Title
81314
    1CHL1    C3    1   3.731   4.133  10.240 -0.3149  0.0247 -0.0485
    1CHL1    H3    2   3.747   4.234  10.196  0.1120  0.0100  0.0650
    1CHL1    O3    3   3.734   4.162  10.377  0.1225 -0.4593  0.0640
    1CHL1   H3'    4   3.647   4.133  10.407 -0.2377  2.3868  2.0951
    1CHL1    C4    5   3.593   4.075  10.210 -0.1182 -0.9125 -0.9755
    1CHL1   H4A    6   3.567   3.978  10.257  1.2901 -2.1955 -2.8439
    1CHL1   H4B    7   3.520   4.151  10.246  0.8030 -1.1466  1.5174
    1CHL1    C5    8   3.578   4.051  10.059  0.3118  0.1050  0.7847
    1CHL1    C6    9   3.489   4.119   9.983 -0.4389  0.2313 -0.3163
    1CHL1    H6   10   3.415   4.180  10.036 -1.3284 -0.9176 -0.2163
    1CHL1    C7   11   3.475   4.100   9.832 -0.1784  0.1630  0.1660
    1CHL1   H7A   12   3.365   4.110   9.815 -0.4207 -1.2151  0.8672
    1CHL1   H7B   13   3.514   4.194   9.788  2.3761 -1.2838 -0.7327
    1CHL1    C8   14   3.550   3.978   9.780 -0.2965 -0.3144 -0.2783
    1CHL1    H8   15   3.496   3.885   9.808 -0.1814 -0.0260  0.9363
    1CHL1   C14   16   3.578   3.995   9.628  0.3420 -0.7261  0.0813
    1CHL1   H14   17   3.640   4.086   9.621 -0.4401 -0.2591 -0.8728
    1CHL1   C15   18   3.452   4.022   9.546 -1.2834  0.5864 -0.0358
    1CHL1  H15A   19   3.361   3.969   9.581 -2.0511  2.5924  1.0867
    1CHL1  H15B   20   3.425   4.128   9.528  1.6974  1.4006  0.0517
    1CHL1   C16   21   3.493   3.983   9.399 -0.5581  0.5733  0.2289
    1CHL1  H16A   22   3.401   3.932   9.363  0.6735 -0.3629 -1.6164
    1CHL1  H16B   23   3.494   4.070   9.330  1.1984  0.5009  0.1464
    1CHL1   C17   24   3.634   3.920   9.409 -0.0505 -0.3395  0.9863
    1CHL1   H17   25   3.707   4.000   9.385 -1.0894  0.4069  0.2353
    1CHL1   C13   26   3.656   3.882   9.559  0.0582 -0.0524  0.1918
    1CHL1   C18   27   3.567   3.756   9.580 -0.3253  0.4404  0.9342
    1CHL1  H18A   28   3.469   3.765   9.529  0.0623  1.4830  0.3563
    1CHL1  H18B   29   3.621   3.667   9.540 -0.7685 -0.5245  2.4467
    1CHL1  H18C   30   3.548   3.733   9.687 -2.8281 -2.7339 -0.0884
    1CHL1   C12   31   3.796   3.871   9.622 -0.4846  0.5055 -0.6842
    1CHL1  H12A   32   3.861   3.787   9.589 -1.0239 -0.2814  0.2344
    1CHL1  H12B   33   3.851   3.965   9.600  1.0217  0.4217  2.4485
    1CHL1   C11   34   3.787   3.865   9.775  0.4419  0.0641 -0.1498
    1CHL1  H11A   35   3.745   3.764   9.794 -0.0378  0.3301  0.2082
    1CHL1  H11B   36   3.891   3.877   9.811  0.5455 -1.4115  0.0512
    1CHL1    C9   37   3.697   3.973   9.845 -0.1505 -0.7122 -0.2148
    1CHL1    H9   38   3.741   4.073   9.824 -0.8245 -0.1784  0.8743
    1CHL1   C10   39   3.692   3.959   9.996  0.6851 -0.6753  0.6785
    1CHL1   C19   40   3.644   3.822  10.038 -0.6380 -0.1370  0.6008
    1CHL1  H19A   41   3.552   3.791   9.985  0.4787 -2.1222 -0.2469
    1CHL1  H19B   42   3.719   3.742  10.018 -0.9894 -0.1336 -0.7870
    1CHL1  H19C   43   3.639   3.802  10.147 -0.7596 -1.2730  0.4001
    1CHL1    C1   44   3.830   4.005  10.049  0.4490 -0.1216  0.4535
    1CHL1   H1A   45   3.912   3.935  10.022  0.3217 -0.6298  1.3732
    1CHL1   H1B   46   3.852   4.098   9.994 -4.2375  0.1676 -1.2191
    1CHL1    C2   47   3.847   4.033  10.199  0.6189 -0.0150 -0.3460
    1CHL1   H2A   48   3.946   4.078  10.222  0.8799 -0.4739 -0.5545
    1CHL1   H2B   49   3.827   3.931  10.240  0.2648 -0.2181 -1.0106
    1CHL1   C20   50   3.656   3.820   9.296  0.1846 -0.2929  1.0929
    1CHL1   H20   51   3.587   3.733   9.306  1.0882 -0.9255  1.9597
    1CHL1   C21   52   3.801   3.770   9.307 -0.3136 -0.3447  0.5397
    1CHL1  H21A   53   3.885   3.838   9.282  0.1484 -1.2439 -0.3819
    1CHL1  H21B   54   3.819   3.684   9.239 -0.4986  0.8621 -1.0647
    1CHL1  H21C   55   3.839   3.747   9.409 -0.3244  1.1546  0.8974
    1CHL1   C22   56   3.639   3.892   9.157  0.3162 -0.3872 -0.0642
    1CHL1  H22A   57   3.531   3.914   9.143  0.5072  0.1399 -0.7318
    1CHL1  H22B   58   3.693   3.989   9.159  0.1063 -0.2685 -0.1565
    1CHL1   C23   59   3.685   3.803   9.039  0.2045 -0.0285 -0.2780
    1CHL1  H23A   60   3.793   3.781   9.052  0.0826  0.6720  2.1761
    1CHL1  H23B   61   3.632   3.705   9.044  1.8066 -1.1528 -3.7309
    1CHL1   C24   62   3.651   3.871   8.904 -0.2700  0.5167  0.2139
    1CHL1  H24A   63   3.540   3.877   8.897 -0.0739  2.6493 -1.7765
    1CHL1  H24B   64   3.701   3.970   8.907 -1.1100  0.9956 -1.0490
    1CHL1   C25   65   3.695   3.782   8.776 -0.4623 -0.1199 -0.0105
    1CHL1   H25   66   3.660   3.677   8.790  0.3357 -0.4675 -0.5695
    1CHL1   C26   67   3.622   3.831   8.656 -0.2561 -0.8034 -0.2398
    1CHL1  H26A   68   3.645   3.766   8.569  1.4686  1.2165 -1.3473
    1CHL1  H26B   69   3.514   3.824   8.681 -0.6078  0.4674 -1.3562
    1CHL1  H26C   70   3.641   3.935   8.624  1.3899 -0.4332  1.7842
    1CHL1   C27   71   3.845   3.774   8.750  0.4485  0.1008  0.3911
    1CHL1  H27A   72   3.870   3.694   8.677  0.9595  1.0082 -0.4485
    1CHL1  H27B   73   3.882   3.873   8.715 -0.1477  0.8087  1.7014
    1CHL1  H27C   74   3.908   3.754   8.839 -0.3290  2.4206  1.5049
    2CHL1    C3   75   4.390   1.890   9.939 -0.0626 -0.2712  0.2289
    2CHL1    H3   76   4.288   1.877   9.897  1.0869 -1.3130 -2.3424
    2CHL1    O3   77   4.392   1.844  10.070  0.5398 -0.5034  0.4507
    2CHL1   H3'   78   4.470   1.886  10.106 -0.6795  0.6290  1.8244
    2CHL1    C4   79   4.492   1.811   9.850 -0.3193 -0.1256 -0.3129
    2CHL1   H4A   80   4.590   1.816   9.901  0.6396  0.2930 -2.1398
    2CHL1   H4B   81   4.469   1.703   9.862 -2.0505 -0.0158 -2.4340
    2CHL1    C5   82   4.490   1.855   9.708 -0.2950 -0.1214 -0.4018
    2CHL1    C6   83   4.450   1.776   9.610 -0.2983  0.1490  0.8885
    2CHL1    H6   84   4.419   1.671   9.622  1.0942 -0.3690  0.0484
    2CHL1    C7   85   4.466   1.810   9.465 -0.6823 -0.5828 -0.2515
    2CHL1   H7A   86   4.501   1.719   9.412 -0.8770 -0.7526 -0.0862
    2CHL1   H7B   87   4.377   1.845   9.409  0.2245  2.0409 -0.1122
    2CHL1    C8   88   4.576   1.931   9.452  0.2453  0.7959 -0.0753
    2CHL1    H8   89   4.679   1.893   9.471 -0.0540 -0.6963 -1.3124
    2CHL1   C14   90   4.564   1.981   9.308  0.0096 -0.1589 -1.1102
    2CHL1   H14   91   4.459   2.015   9.293  0.3058  0.1495 -2.5781
    2CHL1   C15   92   4.590   1.886   9.193  0.3362 -0.4656  0.5859
    2CHL1  H15A   93   4.678   1.819   9.205  0.2635 -1.1019 -1.9948
    2CHL1  H15B   94   4.505   1.818   9.174 -0.3252 -0.4918  3.4302
    2CHL1   C16   95   4.623   1.973   9.073 -0.0934  0.5406 -0.3562
    2CHL1  H16A   96   4.729   1.954   9.047  0.4407  1.2550  1.2103
    2CHL1  H16B   97   4.561   1.946   8.985 -0.6166 -1.9044  0.7352
    2CHL1   C17   98   4.619   2.116   9.127 -0.4180 -0.8489  0.1998
    2CHL1   H17   99   4.514   2.151   9.119  0.2536  1.2253  0.2794
    2CHL1   C13  100   4.639   2.106   9.279 -0.1483  0.4092 -0.6067
    2CHL1   C18  101   4.796   2.080   9.305 -0.2049  0.2997  0.1911
    2CHL1  H18A  102   4.863   2.160   9.268 -0.6530  0.3331 -0.5630
    2CHL1  H18B  103   4.810   2.064   9.414  0.2576 -0.0271  0.0849
    2CHL1  H18C  104   4.825   1.982   9.262  1.2534  0.6946  0.2587
    2CHL1   C12  105   4.561   2.211   9.359  0.2235 -0.3855 -0.1888
    2CHL1  H12A  106   4.595   2.314   9.338  0.9328 -0.7177 -0.6649
    2CHL1  H12B  107   4.451   2.215   9.340  0.4028 -0.4648 -1.2528
    2CHL1   C11  108   4.576   2.180   9.508  0.2935  0.4868 -0.0109
    2CHL1  H11A  109   4.684   2.185   9.534  0.1985 -1.4320  0.8819
    2CHL1  H11B  110   4.526   2.254   9.574 -0.5808 -0.9784  1.0199
    2CHL1    C9  111   4.526   2.036   9.546  0.7025 -0.6334  0.7892
    2CHL1    H9  112   4.418   2.047   9.524  1.1075 -1.3477 -1.7089
    2CHL1   C10  113   4.540   1.997   9.688  0.3815 -0.0347  0.2775
    2CHL1   C19  114   4.691   2.006   9.729 -0.8871 -0.4159 -0.1368
    2CHL1  H19A  115   4.708   1.976   9.835 -1.0466  0.3163  0.0976
    2CHL1  H19B  116   4.749   1.934   9.667 -0.4477 -0.7660  0.6747
    2CHL1  H19C  117   4.741   2.104   9.715  0.8104 -1.1907  0.2835
    2CHL1    C1  118   4.449   2.083   9.781 -0.1113  0.7666 -0.3797
    2CHL1   H1A  119   4.489   2.186   9.787  0.6347  0.4052  0.9908
    2CHL1   H1B  120   4.354   2.096   9.724  0.4569 -0.7383 -1.7166
    2CHL1    C2  121   4.419   2.035   9.923  0.1378  0.1982 -0.1622
    2CHL1   H2A  122   4.335   2.096   9.963 -0.9710  0.9182 -3.4277
    2CHL1   H2B  123   4.506   2.066   9.986 -0.0898 -0.7227  0.6132
    2CHL1   C20  124   4.707   2.222   9.055 -0.3099  0.5583  0.2145
    2CHL1   H20  125   4.813   2.192   9.071  0.7197  2.4444 -2.6404
    2CHL1   C21  126   4.710   2.361   9.112  0.3750  0.9319 -0.0495
    2CHL1  H21A  127   4.606   2.399   9.123  0.7091  2.2773 -1.3396
    2CHL1  H21B  128   4.761   2.429   9.040  3.0120 -1.5565 -0.6359
    2CHL1  H21C  129   4.764   2.374   9.208 -0.7289 -2.5396  1.1134
    2CHL1   C22  130   4.693   2.211   8.902  0.9316  0.3995 -0.4809
    2CHL1  H22A  131   4.768   2.279   8.858 -1.5341  1.9529 -2.4157
    2CHL1  H22B  132   4.717   2.113   8.854  1.2702  0.9996 -1.5436
    2CHL1   C23  133   4.550   2.259   8.857  0.2207  0.6667 -0.5020
    2CHL1  H23A  134   4.481   2.177   8.884  0.8552  0.1884 -0.3064
    2CHL1  H23B  135   4.521   2.351   8.912 -0.6067  1.4211 -2.1581
    2CHL1   C24  136   4.532   2.284   8.707 -0.6384 -0.2014 -0.0957
    2CHL1  H24A  137   4.616   2.346   8.672  1.2132 -0.2797  3.9655
    2CHL1  H24B  138   4.543   2.185   8.657 -1.1411 -0.4895  0.3499
    2CHL1   C25  139   4.406   2.351   8.665 -0.4147 -0.6337  0.4037
    2CHL1   H25  140   4.404   2.452   8.712  0.4100 -1.0212  1.2918
    2CHL1   C26  141   4.405   2.360   8.506  0.3665 -0.3932 -0.2529
    2CHL1  H26A  142   4.413   2.260   8.457 -1.1358 -0.7574  0.2157
    2CHL1  H26B  143   4.314   2.401   8.457  1.3162  0.4201 -1.3680
    2CHL1  H26C  144   4.486   2.426   8.469 -0.4864 -0.2986 -1.9921
    2CHL1   C27  145   4.276   2.270   8.701  0.2509  0.2536  0.0124
    2CHL1  H27A  146   4.194   2.297   8.631 -0.6412 -0.5620  0.7383
    2CHL1  H27B  147   4.301   2.162   8.700  0.4111  0.2895  0.1902
    2CHL1  H27C  148   4.246   2.297   8.804  0.1397  1.8128 -0.4008
    3CHL1    C3  149   5.122   2.052  10.332  0.3141 -0.3956  0.9789
    3CHL1    H3  150   5.225   2.069  10.368  0.2758  3.2270 -0.4168
    3CHL1    O3  151   5.036   2.030  10.443  0.3316 -0.0427 -0.6638
    3CHL1   H3'  152   5.083   1.959  10.487 -0.1391 -1.3747 -2.2310
    3CHL1    C4  153   5.059   2.172  10.253 -0.2101  0.0699 -0.1932
    3CHL1   H4A  154   4.950   2.151  10.250 -0.7317  2.2962  1.0927
    3CHL1   H4B  155   5.069   2.265  10.313 -2.6370  1.6489 -2.1176
    3CHL1    C5  156   5.134   2.202  10.124  0.4832 -0.1634  0.3903
    3CHL1    C6  157   5.174   2.326  10.085 -0.8945  0.0902 -1.0461
    3CHL1    H6  158   5.157   2.409  10.154  0.6731 -0.3432 -0.1229
    3CHL1    C7  159   5.218   2.355   9.947 -0.3922 -0.1050 -0.3438
    3CHL1   H7A  160   5.178   2.455   9.918 -0.2514 -0.6573 -2.5467
    3CHL1   H7B  161   5.326   2.379   9.938 -0.1930 -1.4500 -1.7025
    3CHL1    C8  162   5.189   2.249   9.846  0.1180 -0.3006 -0.2557
    3CHL1    H8  163   5.078   2.251   9.836  0.0282 -0.3531  0.7008
    3CHL1   C14  164   5.250   2.278   9.707  0.2533 -0.0682 -0.7761
    3CHL1   H14  165   5.357   2.277   9.735 -0.5352 -1.0137  2.3942
    3CHL1   C15  166   5.233   2.413   9.644  0.4781  0.9614 -0.8012
    3CHL1  H15A  167   5.129   2.448   9.660  0.4175  0.2728  0.3672
    3CHL1  H15B  168   5.306   2.489   9.681 -0.5857  1.7492 -0.2849
    3CHL1   C16  169   5.255   2.387   9.495 -0.4915  0.0916 -0.1964
    3CHL1  H16A  170   5.161   2.418   9.444 -0.6246  1.1307  0.6673
    3CHL1  H16B  171   5.338   2.449   9.456  1.7359 -4.0317 -2.4060
    3CHL1   C17  172   5.290   2.233   9.482  0.4270 -0.3891  0.3003
    3CHL1   H17  173   5.399   2.246   9.497  0.4600 -0.9384  0.5394
    3CHL1   C13  174   5.217   2.174   9.606 -1.1833  0.0983  0.2929
    3CHL1   C18  175   5.065   2.164   9.575 -0.5543 -0.0665 -0.5262
    3CHL1  H18A  176   5.033   2.076   9.514 -2.4774 -0.4136  0.9576
    3CHL1  H18B  177   5.015   2.157   9.673  0.1568  2.4630  0.0468
    3CHL1  H18C  178   5.032   2.257   9.523 -0.2231  0.2357 -0.1997
    3CHL1   C12  179   5.266   2.030   9.645  0.5868 -0.0242  0.3874
    3CHL1  H12A  180   5.223   1.958   9.572  2.4662 -1.4264  0.6168
    3CHL1  H12B  181   5.376   2.037   9.633  0.3688  2.5516 -0.2533
    3CHL1   C11  182   5.227   1.991   9.790  0.3627 -0.2443  0.5347
    3CHL1  H11A  183   5.121   1.974   9.765  0.2746  0.4466  0.4284
    3CHL1  H11B  184   5.266   1.892   9.823 -1.9367 -2.0600 -1.9545
    3CHL1    C9  185   5.226   2.107   9.897 -0.2609  0.3138  0.5376
    3CHL1    H9  186   5.335   2.112   9.917 -0.1588 -1.1772  0.4725
    3CHL1   C10  187   5.144   2.086  10.029  0.4016  0.0873 -0.0097
    3CHL1   C19  188   5.001   2.057   9.991  0.1458 -0.1680  0.2529
    3CHL1  H19A  189   4.990   1.968   9.926  0.9498 -0.3894  0.4197
    3CHL1  H19B  190   4.946   2.043  10.087 -2.4818 -0.3100 -1.2205
    3CHL1  H19C  191   4.948   2.139   9.938 -0.5188  1.0626  2.7553
    3CHL1    C1  192   5.193   1.967  10.101 -0.2623  0.6297  0.6117
    3CHL1   H1A  193   5.169   1.886  10.029  1.0563  1.9769 -1.4133
    3CHL1   H1B  194   5.302   1.967  10.121  0.2039  1.1789 -1.8172
    3CHL1    C2  195   5.119   1.929  10.233  0.0195 -0.2013  0.3634
    3CHL1   H2A  196   5.184   1.857  10.286  0.3166 -0.8564 -0.8642
    3CHL1   H2B  197   5.016   1.892  10.213 -0.7435  1.3053  1.4161
    3CHL1   C20  198   5.261   2.178   9.342 -0.1636  0.1927  0.4999
    3CHL1   H20  199   5.151   2.168   9.343 -0.0863 -1.3561 -2.0045
    3CHL1   C21  200   5.339   2.048   9.319 -0.4381 -0.8299  0.0039
    3CHL1  H21A  201   5.449   2.061   9.316 -0.1570 -3.0706  0.2570
    3CHL1  H21B  202   5.315   2.001   9.222  0.2610 -0.2760 -0.4470
    3CHL1  H21C  203   5.312   1.984   9.406  1.8394 -0.8559  0.7283
    3CHL1   C22  204   5.292   2.275   9.220  0.1337  0.2811  0.2079
    3CHL1  H22A  205   5.243   2.371   9.249 -2.7262 -1.0715 -0.0344
    3CHL1  H22B  206   5.400   2.301   9.208  0.1625 -0.4109 -1.2226
    3CHL1   C23  207   5.226   2.230   9.089 -0.3119  0.3475 -0.3237
    3CHL1  H23A  208   5.266   2.127   9.072 -0.3299  0.7468 -3.1480
    3CHL1  H23B  209   5.118   2.225   9.112 -0.1755 -1.0850  0.0574
    3CHL1   C24  210   5.247   2.338   8.983  0.1156 -0.1491 -0.4530
    3CHL1  H24A  211   5.189   2.431   8.998  2.7051  1.3964  0.2578
    3CHL1  H24B  212   5.357   2.357   8.986  0.1107  0.1911 -1.9626
    3CHL1   C25  213   5.222   2.284   8.841 -0.8532  0.3827  0.7054
    3CHL1   H25  214   5.260   2.182   8.823 -1.2084 -0.1018  2.5502
    3CHL1   C26  215   5.067   2.270   8.822  0.2340 -0.4119  0.5276
    3CHL1  H26A  216   5.024   2.371   8.804 -0.7295 -0.6080  1.6340
    3CHL1  H26B  217   5.054   2.206   8.732 -0.2125  0.5678 -0.1064
    3CHL1  H26C  218   5.018   2.207   8.899 -0.0210 -1.4774 -0.4813
    3CHL1   C27  219   5.280   2.388   8.737 -0.1132 -0.6418 -0.5525
    3CHL1  H27A  220   5.389   2.369   8.727 -0.2656 -1.0705 -1.4111
    3CHL1  H27B  221   5.255   2.371   8.630  1.2948  1.5409 -1.2572
    3CHL1  H27C  222   5.239   2.490   8.757  1.1330 -0.2892  0.3028
    4CHL1    C3  223   4.927   3.823  10.563 -0.5161  0.1794 -0.3241
    4CHL1    H3  224   4.835   3.798  10.505 -3.0388 -0.3744  3.7626
    4CHL1    O3  225   4.906   3.782  10.695  0.3569  0.4481  0.1881
    4CHL1   H3'  226   4.898   3.863  10.745 -1.2776  1.5540 -1.8278
    4CHL1    C4  227   5.047   3.744  10.497 -0.3830 -0.5871  0.3888
    4CHL1   H4A  228   5.145   3.748  10.550 -0.2289  1.3443 -0.0192
    4CHL1   H4B  229   5.009   3.639  10.496 -1.7304 -0.1017  0.1893
    4CHL1    C5  230   5.063   3.782  10.350 -0.0070  0.6624 -0.1288
    4CHL1    C6  231   5.052   3.697  10.253 -0.3049  0.4459  0.6837
    4CHL1    H6  232   5.025   3.594  10.280  0.4275  0.1330  0.2493
    4CHL1    C7  233   5.069   3.730  10.107 -0.5254 -0.1014  0.2181
    4CHL1   H7A  234   5.137   3.657  10.058 -2.3874 -1.2571 -0.6822
    4CHL1   H7B  235   4.967   3.734  10.062  0.6184  1.8774 -2.3288
    4CHL1    C8  236   5.146   3.861  10.087  0.9056  0.5125  0.1934
    4CHL1    H8  237   5.250   3.845  10.123  0.8584 -1.3338 -0.4300
    4CHL1   C14  238   5.147   3.907   9.943 -0.2481  0.5653  0.5306
    4CHL1   H14  239   5.042   3.939   9.927  0.0040  1.3752  0.4908
    4CHL1   C15  240   5.166   3.796   9.833 -0.1463 -0.1322  0.3290
    4CHL1  H15A  241   5.254   3.738   9.867 -0.3386  0.7330  2.4041
    4CHL1  H15B  242   5.079   3.727   9.831 -0.2318 -0.0106 -0.2824
    4CHL1   C16  243   5.188   3.876   9.706 -0.4275 -0.0650  0.0229
    4CHL1  H16A  244   5.291   3.838   9.684  0.5834  0.8398  2.9496
    4CHL1  H16B  245   5.110   3.856   9.630 -0.6934  0.2114  0.2270
    4CHL1   C17  246   5.194   4.030   9.746 -0.4689 -1.4333  0.0007
    4CHL1   H17  247   5.092   4.073   9.735  0.6396  1.5940  1.0343
    4CHL1   C13  248   5.218   4.028   9.894  1.5603  0.3598 -0.2399
    4CHL1   C18  249   5.361   4.004   9.927  0.6607 -0.2031 -0.1723
    4CHL1  H18A  250   5.384   3.996  10.036 -1.9780 -1.7350  0.3130
    4CHL1  H18B  251   5.400   3.915   9.874 -0.3725 -1.1164  0.5945
    4CHL1  H18C  252   5.411   4.096   9.890 -1.3727  0.5755 -1.0541
    4CHL1   C12  253   5.164   4.148   9.981 -0.0471 -0.3232  0.8310
    4CHL1  H12A  254   5.227   4.233   9.948 -2.8059  1.2884 -0.4464
    4CHL1  H12B  255   5.058   4.159   9.951  0.6749 -0.1412 -1.7268
    4CHL1   C11  256   5.160   4.109  10.135  0.0390 -0.7475  0.7906
    4CHL1  H11A  257   5.267   4.098  10.161  0.4478 -0.2451 -0.5915
    4CHL1  H11B  258   5.118   4.197  10.188  0.9768  0.1568  0.0772
    4CHL1    C9  259   5.087   3.977  10.172 -0.6386 -0.5634 -0.5136
    4CHL1    H9  260   4.980   3.986  10.146 -0.4171  1.6604 -0.7886
    4CHL1   C10  261   5.086   3.938  10.325 -0.3775 -0.5672  0.2639
    4CHL1   C19  262   5.226   3.967  10.386 -0.2544 -0.0612  0.3035
    4CHL1  H19A  263   5.241   4.077  10.392  0.5465 -0.1446 -0.1822
    4CHL1  H19B  264   5.234   3.928  10.490 -1.8545  0.8847  0.7996
    4CHL1  H19C  265   5.306   3.921  10.326  1.1457  0.9507  1.3651
    4CHL1    C1  266   4.974   4.015  10.399 -0.6359 -0.0106 -0.3864
    4CHL1   H1A  267   4.998   4.123  10.389  1.0450 -0.5620 -2.8370
    4CHL1   H1B  268   4.878   3.984  10.354 -1.6436  2.0681  0.2482
    4CHL1    C2  269   4.955   3.977  10.551  0.0371  0.1213  0.6342
    4CHL1   H2A  270   4.876   4.040  10.596  1.4951  0.8737  2.2330
    4CHL1   H2B  271   5.045   3.997  10.614 -0.1148 -0.9934  1.2209
    4CHL1   C20  272   5.282   4.112   9.654 -0.4943  0.0951  0.3037
    4CHL1   H20  273   5.387   4.080   9.640 -0.8318 -0.7378 -0.3477
    4CHL1   C21  274   5.292   4.265   9.690 -0.0194 -0.0541 -0.5812
    4CHL1  H21A  275   5.376   4.286   9.759  0.0258  2.9369 -1.4438
    4CHL1  H21B  276   5.191   4.286   9.731  0.3252 -1.6406  1.1465
    4CHL1  H21C  277   5.292   4.335   9.604 -1.1394 -0.9835 -1.3590
    4CHL1   C22  278   5.224   4.093   9.510 -0.8022 -0.8042  0.9238
    4CHL1  H22A  279   5.233   3.990   9.470  2.9469 -1.2741  2.7835
    4CHL1  H22B  280   5.117   4.123   9.498 -1.6032 -3.0970  1.9628
    4CHL1   C23  281   5.308   4.176   9.405 -0.5752  0.0431  0.1910
    4CHL1  H23A  282   5.288   4.285   9.407 -1.6016 -0.1147 -0.8306
    4CHL1  H23B  283   5.412   4.155   9.435 -0.6943 -0.5521  0.1827
    4CHL1   C24  284   5.297   4.115   9.259 -0.1377 -0.2108 -0.5294
    4CHL1  H24A  285   5.364   4.026   9.254  0.7370  0.5320 -2.4861
    4CHL1  H24B  286   5.190   4.088   9.245 -0.3853  0.7907 -0.5605
    4CHL1   C25  287   5.339   4.208   9.149 -0.5461 -0.5591 -0.1245
    4CHL1   H25  288   5.334   4.144   9.059 -2.2013 -2.6747  1.4016
    4CHL1   C26  289   5.229   4.319   9.140  0.5200 -0.6704 -0.1812
    4CHL1  H26A  290   5.127   4.280   9.158 -0.2120  0.9061 -0.8381
    4CHL1  H26B  291   5.245   4.388   9.226 -0.0614 -0.5301 -0.1836
    4CHL1  H26C  292   5.242   4.374   9.044  1.0940  1.9355  1.3391
    4CHL1   C27  293   5.488   4.252   9.156  0.1312  0.2733  0.0154
    4CHL1  H27A  294   5.523   4.298   9.061 -0.7326 -1.4183 -1.1542
    4CHL1  H27B  295   5.505   4.308   9.250 -2.1712 -0.0433  0.6540
    4CHL1  H27C  296   5.542   4.156   9.170 -1.4905 -0.7435 -0.5541
    5CHL1    C3  297   5.681   2.051  10.345 -0.7953 -0.3946  0.3696
    5CHL1    H3  298   5.636   1.956  10.311 -0.9237 -0.4913  0.8109
    5CHL1    O3  299   5.679   2.048  10.488  0.6402  0.0845  0.3206
    5CHL1   H3'  300   5.587   2.037  10.511 -0.1402 -0.0520 -2.6956
    5CHL1    C4  301   5.826   2.074  10.289  0.4282  0.2473 -0.4299
    5CHL1   H4A  302   5.866   2.169  10.329 -0.1886  0.9041 -1.3726
    5CHL1   H4B  303   5.888   1.994  10.336 -1.1049 -0.6429  0.0992
    5CHL1    C5  304   5.828   2.079  10.141  0.5703 -0.0245  0.1025
    5CHL1    C6  305   5.911   2.005  10.071  0.0310 -0.0820  0.1498
    5CHL1    H6  306   5.984   1.938  10.120 -0.2563 -3.3769 -3.6241
    5CHL1    C7  307   5.934   2.007   9.925 -0.1817  0.5320 -0.2878
    5CHL1   H7A  308   6.040   2.023   9.894  0.4342 -1.7227  0.6214
    5CHL1   H7B  309   5.891   1.920   9.871 -0.1594  0.3732 -0.0493
    5CHL1    C8  310   5.856   2.125   9.857  0.0785 -0.5628  0.1689
    5CHL1    H8  311   5.920   2.214   9.876 -0.7384  0.3042 -1.0263
    5CHL1   C14  312   5.838   2.106   9.708 -0.1921  0.2225  0.1807
    5CHL1   H14  313   5.758   2.028   9.703 -2.0078  2.0717 -0.1334
    5CHL1   C15  314   5.948   2.037   9.625 -0.1559  0.0108  0.7242
    5CHL1  H15A  315   6.036   2.088   9.669 -1.7612  1.0043  2.9184
    5CHL1  H15B  316   5.959   1.928   9.645 -1.7088  0.1650  2.6241
    5CHL1   C16  317   5.916   2.077   9.480 -0.0713  0.0788  1.1950
    5CHL1  H16A  318   5.999   2.135   9.434 -0.3181 -1.8440 -1.7905
    5CHL1  H16B  319   5.903   1.980   9.427 -1.6498  0.5572  0.7098
    5CHL1   C17  320   5.792   2.166   9.492  0.0096  0.6826  0.0724
    5CHL1   H17  321   5.700   2.106   9.476  0.4575 -0.1698  0.6233
    5CHL1   C13  322   5.788   2.222   9.631 -0.4252  0.5068 -0.2715
    5CHL1   C18  323   5.886   2.332   9.653 -0.1410  0.2033 -0.6983
    5CHL1  H18A  324   5.985   2.313   9.606 -0.4023 -0.2027 -1.0892
    5CHL1  H18B  325   5.864   2.425   9.597  1.4989  1.3337  0.4780
    5CHL1  H18C  326   5.886   2.372   9.757  0.6681  3.2280 -1.8112
    5CHL1   C12  327   5.645   2.258   9.690  0.2791  0.1472  0.7896
    5CHL1  H12A  328   5.601   2.349   9.644  1.3914 -0.6806 -2.0150
    5CHL1  H12B  329   5.575   2.177   9.660  1.0902 -0.2945  0.0690
    5CHL1   C11  330   5.646   2.286   9.846 -0.4346  0.3164 -0.4134
    5CHL1  H11A  331   5.698   2.381   9.867 -0.9577  0.4292  0.3872
    5CHL1  H11B  332   5.542   2.302   9.883  0.0515  0.1286  1.0941
    5CHL1    C9  333   5.721   2.163   9.923 -0.0725  0.1494 -0.7253
    5CHL1    H9  334   5.655   2.076   9.907 -0.9668  1.1181 -2.4631
    5CHL1   C10  335   5.728   2.178  10.077 -0.6249 -0.6417  0.2103
    5CHL1   C19  336   5.787   2.321  10.119  0.1191  0.2170  0.4277
    5CHL1  H19A  337   5.725   2.402  10.076 -0.8232  0.6714  2.5782
    5CHL1  H19B  338   5.797   2.335  10.229 -0.0205 -0.6363  0.5534
    5CHL1  H19C  339   5.889   2.322  10.077 -0.0431  2.2165  0.0403
    5CHL1    C1  340   5.585   2.154  10.138  0.2974 -0.5645 -0.2860
    5CHL1   H1A  341   5.521   2.229  10.087  1.9121 -0.2646 -1.9047
    5CHL1   H1B  342   5.542   2.057  10.105 -1.6658  0.0454  0.3557
    5CHL1    C2  343   5.576   2.150  10.296  0.0967 -0.1739 -0.5041
    5CHL1   H2A  344   5.474   2.108  10.311  0.9388 -1.4044  1.9793
    5CHL1   H2B  345   5.577   2.253  10.339 -1.6145 -0.3909  0.0977
    5CHL1   C20  346   5.793   2.268   9.378  0.3708  0.1596  0.0577
    5CHL1   H20  347   5.861   2.355   9.394  0.0784  0.5402 -0.7382
    5CHL1   C21  348   5.648   2.334   9.369  0.1928  0.1533  0.6242
    5CHL1  H21A  349   5.566   2.259   9.367  0.5951 -0.2580 -0.5593
    5CHL1  H21B  350   5.647   2.399   9.280  0.7083 -0.3802  0.2229
    5CHL1  H21C  351   5.620   2.400   9.454 -2.8527 -0.3827  0.1172
    5CHL1   C22  352   5.826   2.207   9.242  0.2208 -0.3658  0.0539
    5CHL1  H22A  353   5.829   2.292   9.170 -0.5328 -2.3427 -2.4157
    5CHL1  H22B  354   5.926   2.159   9.242 -0.2170 -1.2831  0.4241
    5CHL1   C23  355   5.725   2.114   9.166 -0.3294  0.3317 -0.7130
    5CHL1  H23A  356   5.726   2.023   9.229  3.4755  1.4176  0.9769
    5CHL1  H23B  357   5.625   2.161   9.171 -1.2668 -1.8731  2.2916
    5CHL1   C24  358   5.767   2.055   9.027  0.8491  0.3339 -0.8224
    5CHL1  H24A  359   5.874   2.028   9.042  0.8895  0.0615 -1.6041
    5CHL1  H24B  360   5.716   1.960   9.001 -1.7299  1.3266  0.4880
    5CHL1   C25  361   5.777   2.164   8.914  0.3023  0.3127 -0.3670
    5CHL1   H25  362   5.857   2.237   8.942  0.3661 -0.4085  1.3635
    5CHL1   C26  363   5.825   2.093   8.783  0.2491 -0.0695 -0.2117
    5CHL1  H26A  364   5.742   2.036   8.735 -0.5470  1.6414 -0.9460
    5CHL1  H26B  365   5.863   2.182   8.728 -0.6570  0.7596  0.4635
    5CHL1  H26C  366   5.911   2.026   8.805 -0.3917 -0.6076  0.6948
    5CHL1   C27  367   5.640   2.229   8.876  0.2136  0.0943 -0.5199
    5CHL1  H27A  368   5.584   2.283   8.955  0.8229 -0.3591  0.2262
    5CHL1  H27B  369   5.646   2.303   8.793  1.0870  3.1655  2.1850
    5CHL1  H27C  370   5.573   2.145   8.849  2.2993 -1.7108 -0.2326
    6CHL1    C3  371   3.295   5.677  10.472 -0.8694 -0.1622  0.5005
    6CHL1    H3  372   3.304   5.787  10.465 -3.2822 -0.0450 -1.3018
    6CHL1    O3  373   3.281   5.630  10.599 -0.0422  0.4361 -0.1842
    6CHL1   H3'  374   3.286   5.535  10.587 -0.4344  0.3723  0.1249
    6CHL1    C4  375   3.176   5.628  10.387  0.4362  0.0661  0.2684
    6CHL1   H4A  376   3.167   5.521  10.414  4.1502 -0.6216 -0.8977
    6CHL1   H4B  377   3.091   5.687  10.426  0.5138 -0.1708  0.8003
    6CHL1    C5  378   3.186   5.639  10.234  0.9259  0.5620  0.0996
    6CHL1    C6  379   3.097   5.709  10.169  0.2664  0.3677  0.1976
    6CHL1    H6  380   3.009   5.751  10.220 -1.1092 -1.7638 -0.4018
    6CHL1    C7  381   3.095   5.726  10.019  0.4628  0.5152  0.1908
    6CHL1   H7A  382   2.993   5.724   9.977 -0.4896 -0.5827  2.4869
    6CHL1   H7B  383   3.129   5.831  10.008  1.7815  0.2180  1.1610
    6CHL1    C8  384   3.205   5.636   9.952  0.2116 -0.3663 -0.9986
    6CHL1    H8  385   3.154   5.538   9.942 -1.9200  0.7635 -1.4581
    6CHL1   C14  386   3.226   5.689   9.817  0.5869 -0.6793  0.3236
    6CHL1   H14  387   3.293   5.778   9.821 -0.9906  0.5654 -0.2511
    6CHL1   C15  388   3.110   5.739   9.725 -0.5619 -0.2892 -0.3254
    6CHL1  H15A  389   3.034   5.659   9.731  0.2506 -1.0209  0.3048
    6CHL1  H15B  390   3.078   5.838   9.764  0.8955 -0.1674  0.5991
    6CHL1   C16  391   3.159   5.724   9.582 -0.0561  0.5538  0.0812
    6CHL1  H16A  392   3.093   5.650   9.531 -0.3280  0.5595  0.4213
    6CHL1  H16B  393   3.153   5.812   9.515 -0.6926  1.5076  1.3816
    6CHL1   C17  394   3.303   5.667   9.584  0.8386  0.0233 -0.3418
    6CHL1   H17  395   3.368   5.756   9.595 -1.7106  1.6091  2.9673
    6CHL1   C13  396   3.313   5.593   9.727 -0.9846  0.6802  0.0313
    6CHL1   C18  397   3.248   5.457   9.701 -0.3735  0.2253  0.5595
    6CHL1  H18A  398   3.161   5.467   9.632  0.0870 -0.3375 -0.1103
    6CHL1  H18B  399   3.321   5.383   9.661 -3.3374 -3.1859  1.1849
    6CHL1  H18C  400   3.231   5.410   9.800  0.7540 -1.9211 -0.2345
    6CHL1   C12  401   3.456   5.582   9.792 -0.0317 -0.0031  0.1540
    6CHL1  H12A  402   3.508   5.507   9.729 -0.0976  0.6350 -0.6643
    6CHL1  H12B  403   3.509   5.680   9.791  0.6419 -0.3679  0.0511
    6CHL1   C11  404   3.432   5.543   9.942 -0.1582 -0.0189 -0.0824
    6CHL1  H11A  405   3.396   5.438   9.939  0.0023 -0.2633  4.1501
    6CHL1  H11B  406   3.534   5.527   9.982  0.5193 -1.2010 -2.2019
    6CHL1    C9  407   3.334   5.630  10.032 -0.2526 -0.5832  0.8423
    6CHL1    H9  408   3.367   5.736  10.029 -2.6240  0.1270 -2.6571
    6CHL1   C10  409   3.321   5.587  10.176  0.8708 -0.7285 -0.1656
    6CHL1   C19  410   3.316   5.426  10.181  0.1080  1.0228 -0.0481
    6CHL1  H19A  411   3.232   5.383  10.122  0.4207  2.3437 -1.4921
    6CHL1  H19B  412   3.410   5.381  10.142 -0.0235 -1.1287  2.0238
    6CHL1  H19C  413   3.326   5.405  10.289  1.6938  1.5404 -0.0844
    6CHL1    C1  414   3.433   5.652  10.260 -0.8602  0.1712 -0.0220
    6CHL1   H1A  415   3.528   5.604  10.229 -0.6386  0.7510 -0.2492
    6CHL1   H1B  416   3.432   5.761  10.235 -1.7242 -0.3347 -2.3921
    6CHL1    C2  417   3.428   5.617  10.411 -0.1269  0.2458  0.1800
    6CHL1   H2A  418   3.507   5.662  10.473 -0.8035 -0.2117  1.3902
    6CHL1   H2B  419   3.427   5.507  10.428  1.4076 -0.0781 -1.6828
    6CHL1   C20  420   3.340   5.594   9.459 -0.5490 -0.0010  0.0416
    6CHL1   H20  421   3.268   5.510   9.446 -0.9607  0.6521 -1.9770
    6CHL1   C21  422   3.479   5.546   9.461 -0.6137 -0.0884 -0.0107
    6CHL1  H21A  423   3.548   5.629   9.487 -0.4471 -1.2828  3.6836
    6CHL1  H21B  424   3.518   5.515   9.362 -0.5403  1.7674 -0.5897
    6CHL1  H21C  425   3.496   5.454   9.522  1.1106 -0.6414 -1.2961
    6CHL1   C22  426   3.323   5.674   9.323  0.2009 -0.1842  0.1252
    6CHL1  H22A  427   3.217   5.706   9.324  0.4685  0.7712 -0.8258
    6CHL1  H22B  428   3.394   5.759   9.318  0.4125 -0.3927 -0.5281
    6CHL1   C23  429   3.331   5.589   9.191 -0.6161  0.5321  0.0892
    6CHL1  H23A  430   3.428   5.536   9.197 -0.7539  0.1499 -0.9547
    6CHL1  H23B  431   3.247   5.518   9.177  0.1153 -0.1054 -1.0906
    6CHL1   C24  432   3.346   5.675   9.062 -0.4996 -0.0195  0.3434
    6CHL1  H24A  433   3.250   5.723   9.035  1.5207  2.1433 -3.3902
    6CHL1  H24B  434   3.428   5.748   9.081 -0.4109  0.1436 -0.6720
    6CHL1   C25  435   3.392   5.600   8.934 -0.4578  0.5713  0.3894
    6CHL1   H25  436   3.475   5.538   8.974 -0.2471  0.5928 -0.0192
    6CHL1   C26  437   3.278   5.517   8.871  0.3664  0.0206 -0.2244
    6CHL1  H26A  438   3.317   5.489   8.771  2.7689  1.2096  0.3247
    6CHL1  H26B  439   3.249   5.436   8.941 -1.5246  1.4975  0.7552
    6CHL1  H26C  440   3.188   5.582   8.863  0.3597  0.0771  0.2832
    6CHL1   C27  441   3.469   5.684   8.829 -0.2666 -0.2054  0.2003
    6CHL1  H27A  442   3.406   5.755   8.771  0.7045  0.5862  0.0988
    6CHL1  H27B  443   3.543   5.752   8.877 -0.5356 -0.2847  0.7279
    6CHL1  H27C  444   3.508   5.614   8.752 -1.2158  0.3130 -0.7684
    7CHL1    C3  445   6.609   2.593  10.465  0.2507 -0.4647  0.1949
    7CHL1    H3  446   6.525   2.521  10.470 -0.7378  0.8385  3.9937
    7CHL1    O3  447   6.642   2.624  10.601 -0.1592  0.1278  0.2584
    7CHL1   H3'  448   6.719   2.679  10.586 -0.8122  0.8074 -0.7157
    7CHL1    C4  449   6.731   2.530  10.391 -0.5244 -0.2779  0.3493
    7CHL1   H4A  450   6.818   2.597  10.413 -1.0547  0.6345 -0.3366
    7CHL1   H4B  451   6.748   2.438  10.451 -0.8813  0.3626  1.4670
    7CHL1    C5  452   6.720   2.516  10.241 -0.1811  0.4766  0.1277
    7CHL1    C6  453   6.744   2.400  10.188 -0.0371  0.8649  0.1328
    7CHL1    H6  454   6.792   2.322  10.249  0.5834  0.8168 -0.4100
    7CHL1    C7  455   6.746   2.364  10.041 -0.3217  0.0894  0.2951
    7CHL1   H7A  456   6.837   2.303  10.026 -0.3370  0.1575 -0.0673
    7CHL1   H7B  457   6.659   2.299  10.018  0.4083 -1.1884  1.0869
    7CHL1    C8  458   6.741   2.497   9.961 -0.1811  0.6198  0.3854
    7CHL1    H8  459   6.844   2.540   9.965  0.3433 -0.5201 -0.6472
    7CHL1   C14  460   6.705   2.457   9.820  1.3495  0.8449 -0.3162
    7CHL1   H14  461   6.605   2.410   9.810  0.1902  3.4500 -1.1602
    7CHL1   C15  462   6.786   2.341   9.754  0.1057 -0.6517 -0.2636
    7CHL1  H15A  463   6.895   2.346   9.774  0.2469  0.6297 -1.2641
    7CHL1  H15B  464   6.745   2.244   9.789  1.0803 -1.1123 -0.3828
    7CHL1   C16  465   6.764   2.368   9.604  0.7071 -0.5644 -0.6384
    7CHL1  H16A  466   6.864   2.371   9.555  1.0274  0.5899  0.0823
    7CHL1  H16B  467   6.696   2.290   9.563 -1.8130 -0.0827  2.5106
    7CHL1   C17  468   6.686   2.506   9.590  0.2100 -0.4569  0.2537
    7CHL1   H17  469   6.577   2.484   9.587  0.4076 -1.4902  0.6402
    7CHL1   C13  470   6.708   2.573   9.724  0.3509 -0.2001  0.8928
    7CHL1   C18  471   6.850   2.634   9.710 -0.4596 -0.0823  0.4937
    7CHL1  H18A  472   6.889   2.679   9.803  0.0453  1.4982 -0.4598
    7CHL1  H18B  473   6.925   2.571   9.657 -0.1441  2.0366 -1.6819
    7CHL1  H18C  474   6.843   2.722   9.642 -2.2023 -1.1185 -0.7111
    7CHL1   C12  475   6.600   2.670   9.765 -0.4481 -0.4163 -0.5153
    7CHL1  H12A  476   6.601   2.762   9.703  1.1554 -1.2126 -1.6992
    7CHL1  H12B  477   6.501   2.620   9.765 -0.1960 -1.0002  2.6348
    7CHL1   C11  478   6.614   2.713   9.910 -0.1929  0.3607 -0.0389
    7CHL1  H11A  479   6.704   2.779   9.911 -0.8111  1.2199  1.8607
    7CHL1  H11B  480   6.531   2.777   9.948  1.4966  2.2575  0.5691
    7CHL1    C9  481   6.636   2.601  10.018  0.0451  0.0262 -0.0161
    7CHL1    H9  482   6.541   2.545  10.028 -0.3687  0.3354 -2.0329
    7CHL1   C10  483   6.668   2.644  10.162  0.3505  0.3568 -0.2369
    7CHL1   C19  484   6.786   2.750  10.149 -0.1204 -0.0527  0.5153
    7CHL1  H19A  485   6.741   2.849  10.124 -1.3001 -0.4836  0.8826
    7CHL1  H19B  486   6.845   2.755  10.243 -1.5902  0.8390  1.4237
    7CHL1  H19C  487   6.856   2.722  10.068 -0.7181 -0.5791  0.1782
    7CHL1    C1  488   6.535   2.697  10.238  0.2372  0.3604 -0.0225
    7CHL1   H1A  489   6.507   2.795  10.193  0.3868  0.2318 -0.3998
    7CHL1   H1B  490   6.446   2.633  10.219  1.2993 -2.5286  3.9248
    7CHL1    C2  491   6.558   2.725  10.387 -0.2707 -0.1775 -0.0737
    7CHL1   H2A  492   6.468   2.767  10.435  2.2604  2.0859  2.9646
    7CHL1   H2B  493   6.632   2.807  10.399 -0.2142  0.2108 -2.7522
    7CHL1   C20  494   6.712   2.575   9.451 -0.0310  0.2666 -0.3592
    7CHL1   H20  495   6.818   2.608   9.452 -0.3897  1.4178  0.1895
    7CHL1   C21  496   6.636   2.701   9.438 -0.6959 -0.1140  0.0898
    7CHL1  H21A  497   6.657   2.745   9.338  1.7174 -1.5800 -0.0969
    7CHL1  H21B  498   6.668   2.778   9.510  0.0713 -3.4484  3.4816
    7CHL1  H21C  499   6.530   2.671   9.455 -0.9982  1.1549  0.4459
    7CHL1   C22  500   6.681   2.473   9.339 -0.9012  0.5663  0.3689
    7CHL1  H22A  501   6.722   2.370   9.351 -2.0247 -0.8750 -6.0024
    7CHL1  H22B  502   6.571   2.456   9.336 -1.2894  3.0233 -1.5973
    7CHL1   C23  503   6.727   2.513   9.200 -0.2830 -0.7522  0.3658
    7CHL1  H23A  504   6.670   2.597   9.156  0.6827 -1.3761 -2.1560
    7CHL1  H23B  505   6.836   2.528   9.214 -0.6095  1.5196  0.6246
    7CHL1   C24  506   6.714   2.399   9.095  0.2288  0.5735 -0.0151
    7CHL1  H24A  507   6.769   2.310   9.130 -1.2018 -0.4402 -0.2944
    7CHL1  H24B  508   6.607   2.370   9.085  0.0436  0.9080  0.9144
    7CHL1   C25  509   6.774   2.428   8.960  0.6302 -0.6741 -0.2232
    7CHL1   H25  510   6.882   2.450   8.969  0.9054 -1.9117 -0.3560
    7CHL1   C26  511   6.757   2.309   8.859  0.7753  0.4354  0.2663
    7CHL1  H26A  512   6.799   2.336   8.760 -2.0569  1.7941 -0.6346
    7CHL1  H26B  513   6.807   2.213   8.885  1.7571  1.0995  0.8727
    7CHL1  H26C  514   6.651   2.288   8.834  1.9920 -3.1151 -2.2836
    7CHL1   C27  515   6.709   2.559   8.906  0.0159 -0.1825  0.2720
    7CHL1  H27A  516   6.760   2.646   8.952 -0.4225  0.3640 -0.2655
    7CHL1  H27B  517   6.732   2.562   8.797 -0.6044 -0.9434  0.1113
    7CHL1  H27C  518   6.598   2.548   8.904  0.1280 -1.3730 -0.0342
    8CHL1    C3  519   0.177   3.823  10.482 -0.2018  0.6543  0.4005
    8CHL1    H3  520   0.077   3.775  10.484  1.4922 -2.9870  2.2267
    8CHL1    O3  521   0.205   3.875  10.611 -0.6034 -0.2578 -0.3070
    8CHL1   H3'  522   0.285   3.926  10.595 -0.9572 -0.6414 -3.6894
    8CHL1    C4  523   0.283   3.722  10.437 -0.2661 -0.3647  0.7429
    8CHL1   H4A  524   0.383   3.771  10.441 -1.8055  2.9351  0.4763
    8CHL1   H4B  525   0.288   3.633  10.503  2.5424  0.1910  1.3234
    8CHL1    C5  526   0.251   3.678  10.296  0.2025 -0.0852  0.1594
    8CHL1    C6  527   0.221   3.551  10.262  0.2708  0.2013  0.0482
    8CHL1    H6  528   0.213   3.468  10.333  2.8794  0.5455  0.8165
    8CHL1    C7  529   0.203   3.506  10.117 -0.0671 -0.1710  0.2718
    8CHL1   H7A  530   0.248   3.408  10.093 -0.4669 -0.6974  1.6195
    8CHL1   H7B  531   0.093   3.493  10.101  0.0134  1.3342 -1.7411
    8CHL1    C8  532   0.265   3.608  10.014 -0.2809 -0.9641  0.5351
    8CHL1    H8  533   0.375   3.602  10.030  0.0507 -0.8687 -1.5519
    8CHL1   C14  534   0.228   3.567   9.869  0.3404 -0.4995  0.7256
    8CHL1   H14  535   0.117   3.562   9.861  0.2878  0.6249  0.6959
    8CHL1   C15  536   0.293   3.433   9.819  0.3754 -0.4750 -1.1017
    8CHL1  H15A  537   0.396   3.423   9.857  0.0196  0.1943  0.0789
    8CHL1  H15B  538   0.238   3.343   9.856  1.1492 -1.1167 -1.4988
    8CHL1   C16  539   0.281   3.449   9.666  0.4379 -0.6017 -0.0908
    8CHL1  H16A  540   0.384   3.425   9.632 -1.4299 -3.0172 -4.5075
    8CHL1  H16B  541   0.216   3.368   9.625 -1.1757  1.4412 -1.6206
    8CHL1   C17  542   0.243   3.591   9.632  0.1537  0.1131  0.1559
    8CHL1   H17  543   0.132   3.598   9.631  0.2868  3.2563 -0.1113
    8CHL1   C13  544   0.274   3.674   9.758 -0.1788  0.0939  0.0216
    8CHL1   C18  545   0.427   3.694   9.754 -0.0423 -0.4164  0.1758
    8CHL1  H18A  546   0.481   3.605   9.715 -1.9174 -2.2698  1.6741
    8CHL1  H18B  547   0.462   3.779   9.692 -0.4652 -1.6926 -1.8547
    8CHL1  H18C  548   0.460   3.707   9.859  1.8850 -1.4042 -0.2795
    8CHL1   C12  549   0.212   3.811   9.797 -0.7755 -0.3132  0.3983
    8CHL1  H12A  550   0.232   3.897   9.730 -2.4443 -0.1428  0.1127
    8CHL1  H12B  551   0.102   3.794   9.794 -0.8413 -0.6946  3.2966
    8CHL1   C11  552   0.237   3.851   9.941 -0.2021 -0.0788 -0.4945
    8CHL1  H11A  553   0.341   3.890   9.944 -0.1133 -0.4050  1.5218
    8CHL1  H11B  554   0.180   3.944   9.964  2.9796  1.6427  0.7428
    8CHL1    C9  555   0.209   3.745  10.050 -0.3081  0.3763  0.2162
    8CHL1    H9  556   0.100   3.725  10.051  0.1851 -2.5887  3.3171
    8CHL1   C10  557   0.254   3.793  10.197  0.1574 -0.0765  0.7697
    8CHL1   C19  558   0.401   3.849  10.187 -0.0319  0.2930  0.1896
    8CHL1  H19A  559   0.420   3.939  10.124 -0.6319  0.4953  0.2942
    8CHL1  H19B  560   0.448   3.871  10.285  0.9102 -1.1828  0.0880
    8CHL1  H19C  561   0.474   3.775  10.147  2.2367  2.9505 -0.8499
    8CHL1    C1  562   0.150   3.895  10.238 -0.1075  0.3977  0.3569
    8CHL1   H1A  563   0.152   3.990  10.180  0.6072 -0.7331 -1.4922
    8CHL1   H1B  564   0.049   3.853  10.218 -1.0185  2.6755  0.0020
    8CHL1    C2  565   0.171   3.941  10.384 -0.6155 -0.4414  0.1056
    8CHL1   H2A  566   0.103   4.021  10.422 -2.3963 -0.0194 -3.7277
    8CHL1   H2B  567   0.273   3.984  10.394 -0.1198 -0.6091 -3.5474
    8CHL1   C20  568   0.295   3.638   9.491  0.0824  0.6525 -0.0445
    8CHL1   H20  569   0.406   3.634   9.497  0.0326 -1.7823 -0.0682
    8CHL1   C21  570   0.265   3.786   9.467 -0.1810 -0.0066  0.3204
    8CHL1  H21A  571   0.155   3.800   9.475 -0.1419 -0.1673  1.1903
    8CHL1  H21B  572   0.301   3.829   9.372  0.8728 -0.0265  0.7035
    8CHL1  H21C  573   0.306   3.851   9.547 -1.0932 -0.3988  1.1203
    8CHL1   C22  574   0.263   3.541   9.372 -0.2302  0.0178 -0.4582
    8CHL1  H22A  575   0.291   3.437   9.401  0.2960  0.2219 -0.2160
    8CHL1  H22B  576   0.154   3.544   9.354 -0.3391 -1.2622 -0.0535
    8CHL1   C23  577   0.340   3.588   9.245 -0.6899 -0.7149 -0.6981
    8CHL1  H23A  578   0.309   3.687   9.205 -0.5989 -0.4085 -0.0238
    8CHL1  H23B  579   0.449   3.589   9.267 -0.8002  0.5683 -0.1531
    8CHL1   C24  580   0.311   3.489   9.124  0.1151  0.3041  0.6953
    8CHL1  H24A  581   0.352   3.390   9.155  1.4237  0.3875 -0.7420
    8CHL1  H24B  582   0.202   3.486   9.105 -0.1852  2.2590  1.9047
    8CHL1   C25  583   0.376   3.532   8.996 -0.1016 -0.0200 -0.5270
    8CHL1   H25  584   0.362   3.642   8.987 -1.1049 -0.1051 -0.1050
    8CHL1   C26  585   0.527   3.507   9.006  0.2067  0.2049 -0.1207
    8CHL1  H26A  586   0.543   3.400   9.030 -1.6823 -0.1801 -0.4478
    8CHL1  H26B  587   0.577   3.537   8.911  3.8925 -1.1830  1.2951
    8CHL1  H26C  588   0.575   3.564   9.088  1.6436  2.7355 -2.6611
    8CHL1   C27  589   0.330   3.444   8.877  0.1123 -0.3944 -0.4131
    8CHL1  H27A  590   0.381   3.487   8.788  0.7076 -0.0356  0.1016
    8CHL1  H27B  591   0.368   3.340   8.889  0.6414 -0.0763  0.6770
    8CHL1  H27C  592   0.221   3.449   8.856  0.0290  0.7210  0.2795
    9CHL1    C3  593   2.591   0.146  10.201  0.5664 -0.4590  0.3832
    9CHL1    H3  594   2.689   0.189  10.173  0.6774 -0.3307  0.9781
    9CHL1    O3  595   2.565   0.161  10.338 -0.0164  0.6597  0.2720
    9CHL1   H3'  596   2.471   0.183  10.341 -0.4087 -0.4286 -2.3432
    9CHL1    C4  597   2.484   0.235  10.136  0.0001  0.7808 -0.2189
    9CHL1   H4A  598   2.381   0.197  10.154  0.4712 -0.9076 -0.9310
    9CHL1   H4B  599   2.493   0.335  10.182  0.2076  0.4106  0.5613
    9CHL1    C5  600   2.497   0.241   9.987 -0.4981  0.5147 -0.4243
    9CHL1    C6  601   2.507   0.355   9.921  0.3220  0.4921 -0.8780
    9CHL1    H6  602   2.516   0.447   9.981  1.2697  0.5858 -1.1517
    9CHL1    C7  603   2.528   0.367   9.771  0.3565 -0.3727  0.5046
    9CHL1   H7A  604   2.462   0.440   9.719  1.0216 -1.1687 -1.5157
    9CHL1   H7B  605   2.632   0.395   9.746  0.2846 -0.1836  0.4126
    9CHL1    C8  606   2.501   0.235   9.705 -0.4455  0.7865 -0.4323
    9CHL1    H8  607   2.392   0.220   9.714 -0.7768  2.6225 -1.1321
    9CHL1   C14  608   2.550   0.251   9.558  0.4067  0.0130 -0.3971
    9CHL1   H14  609   2.659   0.271   9.568  0.0517  1.4367  0.7486
    9CHL1   C15  610   2.496   0.368   9.466 -0.7129 -0.0220 -0.1817
    9CHL1  H15A  611   2.387   0.385   9.476 -0.7363 -0.3585  0.1522
    9CHL1  H15B  612   2.551   0.463   9.484  0.1674 -0.7777  1.2561
    9CHL1   C16  613   2.529   0.317   9.321  0.1898 -0.3877  0.4786
    9CHL1  H16A  614   2.432   0.318   9.268  0.2226  1.7781  0.4123
    9CHL1  H16B  615   2.606   0.375   9.266 -1.1204 -0.9417 -2.0126
    9CHL1   C17  616   2.576   0.167   9.339 -0.0089 -0.0784 -0.0090
    9CHL1   H17  617   2.687   0.167   9.345  0.0663 -1.7749 -1.2216
    9CHL1   C13  618   2.527   0.125   9.478  0.0842 -0.4446  0.7588
    9CHL1   C18  619   2.371   0.106   9.466 -0.0615  0.0485 -0.2055
    9CHL1  H18A  620   2.349   0.019   9.399 -1.6784 -0.7495  1.3418
    9CHL1  H18B  621   2.324   0.090   9.565  1.2880  0.6417  0.5460
    9CHL1  H18C  622   2.310   0.192   9.432 -1.8098 -1.3162 -0.6093
    9CHL1   C12  623   2.597   0.003   9.541  0.0859  0.0604 -0.9386
    9CHL1  H12A  624   2.586  -0.092   9.486 -0.4451 -0.8469  0.7140
    9CHL1  H12B  625   2.707   0.022   9.546  0.1572 -0.5699  0.0010
    9CHL1   C11  626   2.556  -0.003   9.689 -0.5338  0.8548  0.7213
    9CHL1  H11A  627   2.451  -0.040   9.686 -0.5771  0.7539  2.7860
    9CHL1  H11B  628   2.607  -0.088   9.740 -1.3028  0.4493  0.8277
    9CHL1    C9  629   2.567   0.120   9.773 -0.3166  0.1701 -0.5450
    9CHL1    H9  630   2.675   0.145   9.773  0.3671 -2.5302  1.7484
    9CHL1   C10  631   2.518   0.102   9.919 -0.6536 -0.7278  0.2311
    9CHL1   C19  632   2.367   0.049   9.912  0.0518 -0.6612  0.2168
    9CHL1  H19A  633   2.355  -0.047   9.858  0.3461 -0.9247  0.6290
    9CHL1  H19B  634   2.334   0.025  10.015 -0.3573  1.0123  0.5016
    9CHL1  H19C  635   2.291   0.121   9.874 -1.3660 -1.3604  1.6827
    9CHL1    C1  636   2.618   0.013  10.003 -0.0829 -0.1514  0.7782
    9CHL1   H1A  637   2.624  -0.087   9.954 -2.1194  0.6658 -1.2400
    9CHL1   H1B  638   2.719   0.057   9.990  0.4475 -0.9585  2.0991
    9CHL1    C2  639   2.588   0.006  10.147 -0.0240 -0.5933  0.0519
    9CHL1   H2A  640   2.668  -0.054  10.196  0.0278  0.5058  1.3384
    9CHL1   H2B  641   2.489  -0.037  10.172  0.4123 -0.1400  2.6665
    9CHL1   C20  642   2.542   0.089   9.206 -0.3313  0.2276 -0.9524
    9CHL1   H20  643   2.433   0.085   9.183 -0.4022 -1.0070 -0.4644
    9CHL1   C21  644   2.592  -0.058   9.218 -0.7955  0.1004  1.0163
    9CHL1  H21A  645   2.531  -0.118   9.288 -0.2225 -1.7477 -0.0318
    9CHL1  H21B  646   2.700  -0.055   9.245 -0.2236 -1.9775 -0.9414
    9CHL1  H21C  647   2.579  -0.126   9.132  0.1420 -1.1234  1.8183
    9CHL1   C22  648   2.612   0.151   9.076  0.1576  0.3348 -0.2320
    9CHL1  H22A  649   2.600   0.261   9.077 -1.8408  0.1651  2.4753
    9CHL1  H22B  650   2.720   0.138   9.100  0.0877  2.1722  1.2048
    9CHL1   C23  651   2.573   0.094   8.942  0.1767  0.1292  0.0957
    9CHL1  H23A  652   2.586  -0.016   8.929  1.0451  0.3503 -0.9885
    9CHL1  H23B  653   2.467   0.125   8.930 -0.0198 -0.9400 -1.1487
    9CHL1   C24  654   2.655   0.163   8.832 -0.3768  0.1490 -0.3304
    9CHL1  H24A  655   2.648   0.271   8.858 -0.3565  0.3346 -1.0853
    9CHL1  H24B  656   2.764   0.144   8.837 -0.0903  0.8525 -2.9254
    9CHL1   C25  657   2.598   0.124   8.694 -0.5489 -0.7526  0.0745
    9CHL1   H25  658   2.639   0.024   8.669 -0.3742 -0.9299  1.0390
    9CHL1   C26  659   2.447   0.111   8.684  0.0086 -0.5292 -0.7060
    9CHL1  H26A  660   2.418   0.217   8.670  2.4018  0.4272  1.2616
    9CHL1  H26B  661   2.416   0.069   8.586  1.2821  0.8841 -1.7464
    9CHL1  H26C  662   2.395   0.053   8.762 -1.9464 -1.7561 -2.8602
    9CHL1   C27  663   2.654   0.214   8.577  0.6017 -0.1643 -0.1594
    9CHL1  H27A  664   2.615   0.193   8.475  0.0419 -0.7135  0.1636
    9CHL1  H27B  665   2.649   0.323   8.598  0.9805  0.4211 -2.9156
    9CHL1  H27C  666   2.763   0.195   8.573  0.9094  1.1993  1.0876
   10CHL1    C3  667   2.085   4.453  10.091  0.0381  0.8222 -0.7893
   10CHL1    H3  668   1.981   4.419  10.074 -0.2349  2.4656 -2.5586
   10CHL1    O3  669   2.130   4.456  10.226  0.2542  0.3506 -0.3424
   10CHL1   H3'  670   2.046   4.464  10.273  1.3961  2.0861  1.4665
   10CHL1    C4  671   2.181   4.368  10.004  0.0409  0.5031 -0.8609
   10CHL1   H4A  672   2.282   4.387  10.044 -0.3841  0.7685  0.1024
   10CHL1   H4B  673   2.143   4.265  10.023  0.9231  0.4881  0.8631
   10CHL1    C5  674   2.187   4.402   9.856  0.2898  0.5094 -0.4613
   10CHL1    C6  675   2.173   4.302   9.769  1.0912  0.0646  0.3336
   10CHL1    H6  676   2.175   4.203   9.817 -0.2392 -0.3532 -0.4819
   10CHL1    C7  677   2.179   4.307   9.620  0.0885  0.5578 -0.0851
   10CHL1   H7A  678   2.252   4.231   9.586  0.1629 -0.5019  2.2875
   10CHL1   H7B  679   2.083   4.263   9.583  1.3733 -2.0555 -0.4658
   10CHL1    C8  680   2.215   4.453   9.577  0.8958 -0.8272 -0.0006
   10CHL1    H8  681   2.322   4.467   9.603  0.6212  0.2463  0.5991
   10CHL1   C14  682   2.177   4.467   9.436 -0.3827 -0.1227  0.9332
   10CHL1   H14  683   2.066   4.465   9.431 -0.2823  0.1530 -2.7391
   10CHL1   C15  684   2.227   4.359   9.331 -0.6036  0.0925  1.0384
   10CHL1  H15A  685   2.334   4.335   9.350  0.1872  1.5770 -1.4164
   10CHL1  H15B  686   2.165   4.267   9.345  0.8131 -1.3306 -1.6083
   10CHL1   C16  687   2.207   4.417   9.195 -0.1344 -0.7774  0.2905
   10CHL1  H16A  688   2.307   4.423   9.146  0.4069 -1.1504  1.3412
   10CHL1  H16B  689   2.135   4.383   9.118  1.2675 -0.3507 -1.2174
   10CHL1   C17  690   2.170   4.567   9.229  0.3652  0.3033  0.4226
   10CHL1   H17  691   2.059   4.569   9.231  0.3813  0.2901  1.6513
   10CHL1   C13  692   2.208   4.605   9.375  0.2655 -0.5984 -0.0164
   10CHL1   C18  693   2.364   4.632   9.388  0.0532 -0.2648 -0.2387
   10CHL1  H18A  694   2.401   4.714   9.323  0.5780 -0.3403 -0.0400
   10CHL1  H18B  695   2.391   4.651   9.494  1.0946  0.8150 -0.6919
   10CHL1  H18C  696   2.414   4.540   9.348  1.1940 -0.5702  1.8119
   10CHL1   C12  697   2.127   4.711   9.450  0.0297 -0.2525  0.0667
   10CHL1  H12A  698   2.154   4.815   9.422 -0.9223  0.3238  1.2657
   10CHL1  H12B  699   2.019   4.696   9.430 -0.1604 -0.4657  1.1846
   10CHL1   C11  700   2.142   4.705   9.608  0.0406  0.8462 -0.2568
   10CHL1  H11A  701   2.246   4.739   9.623 -0.0392  0.7460  0.5441
   10CHL1  H11B  702   2.074   4.774   9.663 -1.5438  1.2006 -2.5476
   10CHL1    C9  703   2.136   4.558   9.658 -0.1584 -0.3875  0.4322
   10CHL1    H9  704   2.028   4.533   9.648 -0.4583  1.1181 -0.3375
   10CHL1   C10  705   2.175   4.551   9.808 -0.0355  0.1621  0.4514
   10CHL1   C19  706   2.314   4.613   9.833 -0.1404 -0.1773  0.6044
   10CHL1  H19A  707   2.384   4.556   9.769 -2.5027 -1.1334 -1.1915
   10CHL1  H19B  708   2.320   4.722   9.813 -3.4688 -0.3069 -1.3843
   10CHL1  H19C  709   2.352   4.592   9.936  1.9213  0.4103 -0.0050
   10CHL1    C1  710   2.065   4.620   9.901  0.7928  0.0689 -0.1171
   10CHL1   H1A  711   2.061   4.731   9.895  1.6894  0.1547  0.8252
   10CHL1   H1B  712   1.964   4.580   9.877 -0.3896  1.0775  2.8905
   10CHL1    C2  713   2.091   4.601  10.049  0.1642 -0.3569 -0.0706
   10CHL1   H2A  714   2.006   4.655  10.096  0.1628 -0.0806 -0.3845
   10CHL1   H2B  715   2.187   4.636  10.092 -1.0505  1.2933  1.3247
   10CHL1   C20  716   2.218   4.672   9.116 -0.3287  0.3139 -0.8707
   10CHL1   H20  717   2.328   4.674   9.128 -0.4720 -0.1174  0.6359
   10CHL1   C21  718   2.147   4.806   9.134  0.5670  0.5779  0.4240
   10CHL1  H21A  719   2.188   4.869   9.215  1.6362  0.5987 -0.1196
   10CHL1  H21B  720   2.036   4.793   9.138  0.5381  0.5419 -0.3564
   10CHL1  H21C  721   2.154   4.863   9.039  2.2056 -2.9808 -1.7310
   10CHL1   C22  722   2.192   4.625   8.970 -0.4630  0.5976  0.5788
   10CHL1  H22A  723   2.237   4.704   8.906  1.0170 -0.1081  0.7169
   10CHL1  H22B  724   2.253   4.537   8.942 -1.2610 -0.0463  0.8667
   10CHL1   C23  725   2.050   4.622   8.910 -0.6817 -0.0152 -0.0235
   10CHL1  H23A  726   2.001   4.528   8.942  0.5399 -0.9493 -0.8415
   10CHL1  H23B  727   1.987   4.710   8.934  0.9053  1.0365  0.3281
   10CHL1   C24  728   2.058   4.623   8.755  0.4166 -0.3333 -0.2795
   10CHL1  H24A  729   2.101   4.720   8.721  0.7148  0.2618  1.6749
   10CHL1  H24B  730   2.106   4.528   8.724 -0.0537 -0.7755  0.3397
   10CHL1   C25  731   1.927   4.620   8.681  0.1624 -0.2725  0.3111
   10CHL1   H25  732   1.878   4.522   8.700  3.1562 -1.5702  1.6116
   10CHL1   C26  733   1.841   4.745   8.718  1.0863 -0.3858 -0.1483
   10CHL1  H26A  734   1.896   4.840   8.730 -0.7513  0.9467 -1.8976
   10CHL1  H26B  735   1.761   4.755   8.642 -1.7035  0.1096  2.7264
   10CHL1  H26C  736   1.779   4.715   8.806  0.5392 -0.3101 -0.5037
   10CHL1   C27  737   1.949   4.618   8.522  0.2359  0.3346  0.6669
   10CHL1  H27A  738   1.852   4.612   8.469 -0.1035 -0.6882  1.3895
   10CHL1  H27B  739   1.996   4.710   8.482 -0.6075  0.8869  0.9278
   10CHL1  H27C  740   2.010   4.526   8.510 -0.3494 -0.2725  2.2214
   11CHL1    C3  741   4.811   1.052  10.056  0.2744  1.1096 -0.2898
   11CHL1    H3  742   4.881   1.135  10.035  1.4176 -0.2335 -1.9825
   11CHL1    O3  743   4.817   0.998  10.187  0.0463  0.0631  0.4841
   11CHL1   H3'  744   4.906   0.965  10.199 -0.4844 -1.5242  0.1420
   11CHL1    C4  745   4.675   1.121  10.023 -0.7626  0.1254  0.1883
   11CHL1   H4A  746   4.600   1.040  10.023 -1.0558  0.3737  1.7943
   11CHL1   H4B  747   4.648   1.186  10.109 -1.8185 -1.4212  1.0457
   11CHL1    C5  748   4.680   1.181   9.885  1.0741  0.1306  0.0788
   11CHL1    C6  749   4.660   1.313   9.866 -0.2336 -0.0079  0.0614
   11CHL1    H6  750   4.623   1.381   9.945 -1.9608  2.5994 -2.8729
   11CHL1    C7  751   4.647   1.367   9.727 -0.2265  0.1879 -0.0813
   11CHL1   H7A  752   4.559   1.434   9.720 -0.3600 -0.0481 -0.7248
   11CHL1   H7B  753   4.739   1.423   9.700 -0.6750  0.7949 -0.3469
   11CHL1    C8  754   4.636   1.254   9.615  0.0344  0.1668 -0.6872
   11CHL1    H8  755   4.532   1.215   9.618 -0.3387  1.1899 -0.1888
   11CHL1   C14  756   4.669   1.318   9.482 -0.0066  0.3242  0.6203
   11CHL1   H14  757   4.772   1.358   9.495  0.3749 -1.0436  1.9350
   11CHL1   C15  758   4.577   1.445   9.453  0.4337 -0.4024  0.6320
   11CHL1  H15A  759   4.471   1.422   9.476  1.7612 -4.1901  3.4571
   11CHL1  H15B  760   4.611   1.539   9.502 -2.4253  0.1491  1.6590
   11CHL1   C16  761   4.580   1.459   9.298  0.0335 -0.3075  0.0282
   11CHL1  H16A  762   4.475   1.444   9.264 -0.1877 -1.5922  1.2129
   11CHL1  H16B  763   4.615   1.555   9.255 -0.6362 -0.8105 -1.7011
   11CHL1   C17  764   4.664   1.334   9.245  0.4735  0.3754  0.3117
   11CHL1   H17  765   4.767   1.376   9.244 -0.0718  1.7497  0.4780
   11CHL1   C13  766   4.660   1.228   9.358 -0.2666  0.6345 -0.3676
   11CHL1   C18  767   4.517   1.166   9.352 -0.0134 -0.0284 -0.3407
   11CHL1  H18A  768   4.433   1.238   9.351 -0.7479 -0.8870 -1.1071
   11CHL1  H18B  769   4.522   1.097   9.265 -2.0620  0.6089 -0.9866
   11CHL1  H18C  770   4.493   1.099   9.438  0.0593 -0.0563 -0.3438
   11CHL1   C12  771   4.777   1.134   9.386 -0.1183  0.1300  0.4571
   11CHL1  H12A  772   4.777   1.065   9.299 -0.3203  0.3433  0.2920
   11CHL1  H12B  773   4.876   1.184   9.391  0.4085 -0.6395 -1.7503
   11CHL1   C11  774   4.758   1.052   9.514 -0.5415 -0.5933  0.3827
   11CHL1  H11A  775   4.669   0.988   9.494  1.7551 -3.8365  0.0506
   11CHL1  H11B  776   4.840   0.978   9.527  0.6034  0.4032 -0.9612
   11CHL1    C9  777   4.744   1.144   9.644  0.5370 -0.1021 -0.0797
   11CHL1    H9  778   4.843   1.193   9.644 -0.1780  1.3872  1.6077
   11CHL1   C10  779   4.702   1.078   9.773 -0.6956 -0.4615 -0.3618
   11CHL1   C19  780   4.564   0.991   9.762  0.2627  0.2120 -0.6279
   11CHL1  H19A  781   4.474   1.054   9.746  0.8955  1.8596  2.0108
   11CHL1  H19B  782   4.565   0.925   9.672  0.4108  1.6115 -1.6728
   11CHL1  H19C  783   4.548   0.924   9.849  0.9533 -0.6763 -1.1686
   11CHL1    C1  784   4.824   0.992   9.800  0.0286  0.2661 -0.5826
   11CHL1   H1A  785   4.839   0.908   9.729  0.2648 -0.8288  0.7430
   11CHL1   H1B  786   4.909   1.062   9.791 -0.0423  0.4028 -0.1953
   11CHL1    C2  787   4.835   0.939   9.948 -0.1904  0.1235 -0.0608
   11CHL1   H2A  788   4.925   0.876   9.966 -1.5892 -2.5167 -1.9440
   11CHL1   H2B  789   4.756   0.865   9.973 -0.0419  1.0624  3.4357
   11CHL1   C20  790   4.625   1.288   9.104 -0.0685 -0.4752  0.7553
   11CHL1   H20  791   4.520   1.252   9.099  0.2939 -1.3889 -0.2986
   11CHL1   C21  792   4.721   1.179   9.063 -0.7186  0.7141  0.3593
   11CHL1  H21A  793   4.676   1.086   9.103  0.6245 -1.6117 -3.2911
   11CHL1  H21B  794   4.829   1.192   9.086  0.2357 -1.4349 -2.6911
   11CHL1  H21C  795   4.724   1.150   8.956 -0.4224 -2.7308  1.2454
   11CHL1   C22  796   4.629   1.407   9.005  0.6034 -0.6890 -0.2497
   11CHL1  H22A  797   4.582   1.502   9.040  1.3066  0.0272 -1.1999
   11CHL1  H22B  798   4.736   1.433   8.988  1.1531 -1.1589  2.2724
   11CHL1   C23  799   4.552   1.375   8.880  0.2072 -0.2427 -0.2328
   11CHL1  H23A  800   4.588   1.280   8.834 -0.1500 -1.1577  1.3159
   11CHL1  H23B  801   4.443   1.376   8.900  0.1655 -2.4253 -0.2655
   11CHL1   C24  802   4.555   1.486   8.780 -0.4425 -0.3556  0.3275
   11CHL1  H24A  803   4.481   1.460   8.702 -0.6739  0.1920  0.3603
   11CHL1  H24B  804   4.519   1.573   8.840 -2.0386 -0.3167 -0.6759
   11CHL1   C25  805   4.695   1.516   8.724 -0.0007  0.4730  0.3105
   11CHL1   H25  806   4.763   1.542   8.808 -1.3104 -0.9472  1.8444
   11CHL1   C26  807   4.753   1.403   8.640  0.3816 -0.1163  0.1780
   11CHL1  H26A  808   4.818   1.345   8.708  1.6861  1.6455  0.4687
   11CHL1  H26B  809   4.668   1.343   8.603  0.4851  0.1879 -0.5802
   11CHL1  H26C  810   4.815   1.446   8.558  0.4595 -1.7055 -0.6154
   11CHL1   C27  811   4.689   1.633   8.629  0.3910  0.3756 -0.4606
   11CHL1  H27A  812   4.648   1.727   8.673  1.8898  0.5842  0.5310
   11CHL1  H27B  813   4.790   1.659   8.591 -0.2240 -0.0703 -2.4440
   11CHL1  H27C  814   4.628   1.594   8.545  0.7073 -3.0623  0.8646
   12CHL1    C3  815   1.321   3.200  10.244  0.2429 -0.0615  0.3557
   12CHL1    H3  816   1.404   3.271  10.222 -0.6314  0.1413 -2.5551
   12CHL1    O3  817   1.302   3.198  10.389 -0.5469  0.7691 -0.1935
   12CHL1   H3'  818   1.229   3.137  10.405 -2.3638  2.4455 -1.7641
   12CHL1    C4  819   1.202   3.260  10.177  0.9809 -0.7884  0.8147
   12CHL1   H4A  820   1.117   3.201  10.218 -0.0284  1.3022  1.8182
   12CHL1   H4B  821   1.164   3.358  10.211 -2.0596 -1.1024 -1.4965
   12CHL1    C5  822   1.211   3.250  10.026 -0.3034 -0.0084  0.1582
   12CHL1    C6  823   1.188   3.365   9.956 -0.0871  0.3574 -0.0561
   12CHL1    H6  824   1.175   3.461  10.008  3.3844  2.2576 -2.4863
   12CHL1    C7  825   1.195   3.361   9.810 -0.9062  0.0374 -0.9129
   12CHL1   H7A  826   1.124   3.427   9.756  1.9434  3.2127 -0.9671
   12CHL1   H7B  827   1.293   3.404   9.779 -0.7737  0.3134 -0.1175
   12CHL1    C8  828   1.189   3.224   9.742 -0.1490 -0.4078 -0.5518
   12CHL1    H8  829   1.082   3.193   9.748 -0.6952  1.4089 -0.6116
   12CHL1   C14  830   1.225   3.224   9.589 -0.0930  0.3409 -0.6666
   12CHL1   H14  831   1.335   3.241   9.585 -0.2067  0.8565 -2.0412
   12CHL1   C15  832   1.168   3.347   9.506  0.0056 -0.0308  0.3155
   12CHL1  H15A  833   1.075   3.397   9.539  1.6894  3.3442  0.2110
   12CHL1  H15B  834   1.236   3.434   9.515 -2.7508  2.0571  1.7331
   12CHL1   C16  835   1.172   3.298   9.355  0.2677 -0.1020  0.2118
   12CHL1  H16A  836   1.068   3.292   9.316  0.0222 -2.4246  1.1396
   12CHL1  H16B  837   1.237   3.364   9.294 -0.8501  0.4316 -0.4186
   12CHL1   C17  838   1.228   3.146   9.370 -0.4511 -0.2745 -0.4266
   12CHL1   H17  839   1.338   3.152   9.351 -0.2707 -0.7843  0.4005
   12CHL1   C13  840   1.200   3.093   9.511  0.6844  0.2113 -0.2080
   12CHL1   C18  841   1.046   3.063   9.523 -0.0637  0.1044  0.0608
   12CHL1  H18A  842   0.992   3.156   9.494 -0.0798 -0.0667 -0.4649
   12CHL1  H18B  843   1.002   2.992   9.449 -1.5027  1.6181 -0.5550
   12CHL1  H18C  844   1.009   3.046   9.627 -0.9641  0.5572 -0.1735
   12CHL1   C12  845   1.294   2.985   9.580 -0.2401  0.0321  0.5690
   12CHL1  H12A  846   1.286   2.880   9.545  2.4906  0.6112 -2.1303
   12CHL1  H12B  847   1.396   3.015   9.546 -0.9137  1.7847  0.0051
   12CHL1   C11  848   1.284   2.986   9.736 -0.5201 -0.2196 -1.0976
   12CHL1  H11A  849   1.192   2.929   9.760  1.3053 -2.9591 -0.3479
   12CHL1  H11B  850   1.355   2.913   9.779 -1.6062  0.7108  2.4143
   12CHL1    C9  851   1.279   3.123   9.809  0.1872  0.5365 -0.0458
   12CHL1    H9  852   1.385   3.156   9.799 -0.2067  2.3750  1.6796
   12CHL1   C10  853   1.251   3.115   9.964  0.5400  0.4521  0.8577
   12CHL1   C19  854   1.130   3.029   9.991  0.0802 -1.0973  0.1611
   12CHL1  H19A  855   1.056   3.055   9.913  1.8816  2.6586 -0.3921
   12CHL1  H19B  856   1.149   2.920   9.974  0.5224 -0.7717 -1.5078
   12CHL1  H19C  857   1.085   3.048  10.090 -2.8346 -0.6553 -1.2039
   12CHL1    C1  858   1.373   3.071  10.040 -0.0931  0.0625  0.8181
   12CHL1   H1A  859   1.399   2.971   9.999  1.3914 -0.4523  2.9496
   12CHL1   H1B  860   1.453   3.146  10.023  0.3588 -0.7530 -0.8364
   12CHL1    C2  861   1.352   3.061  10.194 -0.1691 -0.3528  0.1544
   12CHL1   H2A  862   1.446   3.031  10.244 -0.5365 -1.9856 -0.1243
   12CHL1   H2B  863   1.272   2.993  10.231  0.5435 -1.0530  0.4111
   12CHL1   C20  864   1.181   3.054   9.255 -0.4635  0.0726  0.4972
   12CHL1   H20  865   1.071   3.039   9.267 -0.5353  1.7313  2.0533
   12CHL1   C21  866   1.253   2.913   9.257  0.4646 -0.3636 -0.1135
   12CHL1  H21A  867   1.362   2.922   9.239  0.6814  0.1832  1.4301
   12CHL1  H21B  868   1.205   2.848   9.181  1.4830 -0.7493 -0.4376
   12CHL1  H21C  869   1.240   2.859   9.353 -1.4204  1.0512  0.4639
   12CHL1   C22  870   1.183   3.122   9.113 -0.7148 -0.6077 -0.0539
   12CHL1  H22A  871   1.151   3.040   9.046  1.0920 -1.1923 -0.2399
   12CHL1  H22B  872   1.113   3.208   9.111  0.2403  0.2095  0.6978
   12CHL1   C23  873   1.315   3.172   9.057 -0.5506  0.5125  0.7900
   12CHL1  H23A  874   1.382   3.209   9.138 -0.0081  0.5253  0.3364
   12CHL1  H23B  875   1.361   3.084   9.008  0.1140  1.4251 -0.2462
   12CHL1   C24  876   1.287   3.286   8.956  0.4252  0.2330  0.1637
   12CHL1  H24A  877   1.203   3.257   8.889  0.3731 -1.0439  0.7679
   12CHL1  H24B  878   1.259   3.376   9.016  4.4605  1.5649  0.2220
   12CHL1   C25  879   1.405   3.326   8.865  0.3127  1.3658 -0.4103
   12CHL1   H25  880   1.501   3.333   8.920 -0.1225  0.4563  0.4773
   12CHL1   C26  881   1.415   3.210   8.762 -0.3527 -0.1798  0.7089
   12CHL1  H26A  882   1.417   3.112   8.814  1.7437 -1.1158 -1.0713
   12CHL1  H26B  883   1.324   3.210   8.699 -0.9873  1.8429  1.5857
   12CHL1  H26C  884   1.509   3.213   8.704 -1.3748  1.1957 -0.8938
   12CHL1   C27  885   1.393   3.460   8.794  0.3841 -0.2026  0.0147
   12CHL1  H27A  886   1.478   3.481   8.725  1.2405  0.1223  1.1442
   12CHL1  H27B  887   1.293   3.472   8.747  0.9985  0.7897 -1.0730
   12CHL1  H27C  888   1.393   3.547   8.863  1.7721 -0.6236  0.5545
   13CHL1    C3  889   0.049   5.048   9.787 -0.4554  0.2465  0.1493
   13CHL1    H3  890   0.114   5.138   9.777  1.5313 -1.0444  1.1207
   13CHL1    O3  891   0.072   5.000   9.923  0.1527  0.2916  0.1380
   13CHL1   H3'  892   0.065   4.904   9.917 -2.4153  0.5341 -1.5410
   13CHL1    C4  893  -0.097   5.089   9.767  0.3498  0.1988 -0.1293
   13CHL1   H4A  894  -0.161   5.005   9.802 -0.0002  1.7015  2.9751
   13CHL1   H4B  895  -0.107   5.162   9.851 -1.8432  0.4026 -0.5281
   13CHL1    C5  896  -0.142   5.137   9.626  0.3316  0.3231  0.6734
   13CHL1    C6  897  -0.202   5.256   9.600  0.3229 -0.6029  0.1117
   13CHL1    H6  898  -0.227   5.317   9.688  0.3643 -0.0151 -0.2819
   13CHL1    C7  899  -0.236   5.307   9.457 -0.2134 -0.5291  0.6263
   13CHL1   H7A  900  -0.344   5.333   9.453 -0.3994 -1.2584  0.9084
   13CHL1   H7B  901  -0.172   5.394   9.431 -0.1273  0.6732  4.6248
   13CHL1    C8  902  -0.218   5.198   9.344 -0.3796 -0.3351 -0.1231
   13CHL1    H8  903  -0.306   5.130   9.351 -1.6874  1.2968 -0.2777
   13CHL1   C14  904  -0.223   5.267   9.209  0.1950  0.0649  0.5145
   13CHL1   H14  905  -0.130   5.328   9.204  0.3437  0.1036  2.9767
   13CHL1   C15  906  -0.333   5.359   9.176  1.1513 -0.7429 -0.2616
   13CHL1  H15A  907  -0.433   5.317   9.199  0.4653  1.2745  0.5497
   13CHL1  H15B  908  -0.329   5.456   9.231  0.7071 -0.7038 -0.2896
   13CHL1   C16  909  -0.314   5.377   9.024 -0.9448  0.0202  0.1324
   13CHL1  H16A  910  -0.408   5.358   8.967 -1.3020  1.4344  0.2261
   13CHL1  H16B  911  -0.272   5.479   9.009  0.3357 -0.6359 -0.7960
   13CHL1   C17  912  -0.198   5.276   8.981  0.0624  0.2233  0.3938
   13CHL1   H17  913  -0.109   5.340   8.992 -1.5240  2.0269  3.4744
   13CHL1   C13  914  -0.193   5.171   9.092 -0.3915 -0.3552  0.1733
   13CHL1   C18  915  -0.317   5.074   9.075  0.6236  0.1316 -0.2186
   13CHL1  H18A  916  -0.306   4.991   9.001 -3.0472 -0.8992  0.2912
   13CHL1  H18B  917  -0.333   5.014   9.167  2.2838  0.8374  0.5497
   13CHL1  H18C  918  -0.410   5.126   9.048  0.6114  0.2208 -0.0052
   13CHL1   C12  919  -0.057   5.105   9.107 -0.2022  0.0476  0.0160
   13CHL1  H12A  920  -0.052   5.031   9.025 -1.1994 -1.1670  1.0399
   13CHL1  H12B  921   0.024   5.181   9.101 -1.5760  1.2778 -4.2879
   13CHL1   C11  922  -0.048   5.035   9.244  0.3994 -0.3458 -0.2826
   13CHL1  H11A  923  -0.125   4.955   9.252 -0.1968  0.0611 -1.7393
   13CHL1  H11B  924   0.055   4.995   9.259  0.5996  0.8909  1.8166
   13CHL1    C9  925  -0.088   5.122   9.367  0.0211  0.1091  0.3035
   13CHL1    H9  926  -0.012   5.202   9.371 -2.9330  3.0778 -0.5195
   13CHL1   C10  927  -0.085   5.056   9.511  0.1384 -0.1395  0.3702
   13CHL1   C19  928  -0.168   4.923   9.512  0.0607 -0.5416  1.2465
   13CHL1  H19A  929  -0.125   4.853   9.438 -0.7518  1.2753 -1.0209
   13CHL1  H19B  930  -0.172   4.870   9.610 -1.5326 -1.4203  0.7262
   13CHL1  H19C  931  -0.267   4.940   9.464  0.8972 -1.0444 -0.6995
   13CHL1    C1  932   0.068   5.015   9.540  0.4317 -0.1628 -0.3115
   13CHL1   H1A  933   0.091   4.941   9.461  0.9003  0.5306 -0.8333
   13CHL1   H1B  934   0.144   5.096   9.538  2.5236 -2.0235  1.6481
   13CHL1    C2  935   0.085   4.948   9.679  0.6553  0.3432 -0.2719
   13CHL1   H2A  936   0.194   4.933   9.694  0.3527 -2.0813 -0.2246
   13CHL1   H2B  937   0.031   4.851   9.693 -1.2619  1.5545  0.9499
   13CHL1   C20  938  -0.219   5.229   8.835  0.5962 -0.6493  0.4103
   13CHL1   H20  939  -0.312   5.167   8.833 -1.3327  2.1661 -1.0923
   13CHL1   C21  940  -0.110   5.143   8.777 -1.1734  0.5616 -0.5042
   13CHL1  H21A  941  -0.133   5.120   8.670 -3.2909  3.3635 -0.6926
   13CHL1  H21B  942  -0.107   5.039   8.818  0.8184 -0.1021 -2.2352
   13CHL1  H21C  943  -0.011   5.194   8.781 -0.5147 -0.7304  0.0073
   13CHL1   C22  944  -0.241   5.356   8.747  0.0075 -0.0288  0.3863
   13CHL1  H22A  945  -0.325   5.419   8.783 -0.6414  0.1038 -1.3160
   13CHL1  H22B  946  -0.148   5.415   8.762 -0.5834  0.4942  1.9944
   13CHL1   C23  947  -0.275   5.331   8.595  0.3746 -0.4827 -0.3410
   13CHL1  H23A  948  -0.193   5.271   8.549  1.5942  2.0519 -1.6085
   13CHL1  H23B  949  -0.373   5.279   8.598 -0.3961  0.9713  0.3553
   13CHL1   C24  950  -0.299   5.463   8.523 -0.5618 -0.3511 -0.3162
   13CHL1  H24A  951  -0.382   5.518   8.572 -0.4501  0.1914 -0.7264
   13CHL1  H24B  952  -0.200   5.510   8.542 -2.6160  3.0442  2.5957
   13CHL1   C25  953  -0.311   5.453   8.370  0.3353 -0.5534 -0.0569
   13CHL1   H25  954  -0.241   5.376   8.334  0.4839 -0.8223  0.7957
   13CHL1   C26  955  -0.453   5.415   8.337  0.2718  0.2747  0.2870
   13CHL1  H26A  956  -0.484   5.320   8.385 -0.6939 -0.3306 -1.4931
   13CHL1  H26B  957  -0.531   5.487   8.368  0.6216  0.5587  0.5150
   13CHL1  H26C  958  -0.458   5.394   8.227 -1.4301  0.2731  0.3531
   13CHL1   C27  959  -0.275   5.594   8.309 -0.2740  0.6488  0.6273
   13CHL1  H27A  960  -0.269   5.585   8.198 -2.5970  1.9669  0.3658
   13CHL1  H27B  961  -0.368   5.656   8.308  0.1705  1.3146 -0.3510
   13CHL1  H27C  962  -0.188   5.640   8.360  2.4296 -3.4464 -0.0280
   14CHL1    C3  963   6.188   1.821  10.322 -0.0677 -0.5159  0.8375
   14CHL1    H3  964   6.098   1.881  10.298 -0.8541 -1.9150  0.2631
   14CHL1    O3  965   6.209   1.824  10.459  0.1073  0.3162 -0.6480
   14CHL1   H3'  966   6.123   1.832  10.501  0.3069 -0.2069 -0.1360
   14CHL1    C4  967   6.171   1.681  10.269  0.1272  0.4882 -0.0627
   14CHL1   H4A  968   6.254   1.612  10.296 -1.3228 -2.7643 -3.4064
   14CHL1   H4B  969   6.084   1.634  10.319  0.9740 -1.6630 -0.5159
   14CHL1    C5  970   6.167   1.670  10.121  0.4412  0.9795 -0.0656
   14CHL1    C6  971   6.060   1.617  10.065 -0.2944 -0.5285  0.5024
   14CHL1    H6  972   5.985   1.570  10.130  0.8365 -1.4460  1.1888
   14CHL1    C7  973   6.051   1.598   9.915 -0.0464 -0.1884  0.9650
   14CHL1   H7A  974   6.019   1.493   9.896  0.5305 -0.4858  1.6324
   14CHL1   H7B  975   5.971   1.670   9.887 -1.2685 -1.7577  0.2888
   14CHL1    C8  976   6.178   1.616   9.832 -0.8188  0.1527  0.6389
   14CHL1    H8  977   6.248   1.530   9.840 -0.9251  0.1604  1.7217
   14CHL1   C14  978   6.137   1.654   9.691 -0.0255 -0.5051 -0.6354
   14CHL1   H14  979   6.093   1.756   9.687  1.6475  0.1603 -3.5532
   14CHL1   C15  980   6.050   1.553   9.614  0.3647  0.2246 -0.6470
   14CHL1  H15A  981   6.083   1.448   9.624 -0.0753 -0.0749 -2.1516
   14CHL1  H15B  982   5.946   1.579   9.644  0.6309  2.0226 -1.1795
   14CHL1   C16  983   6.061   1.593   9.465  0.2132  0.2793 -0.0683
   14CHL1  H16A  984   6.100   1.501   9.416 -1.0182  0.1010 -0.7316
   14CHL1  H16B  985   5.965   1.623   9.417 -1.2643 -1.4190  1.7239
   14CHL1   C17  986   6.174   1.700   9.459 -0.4294  0.7627 -0.1778
   14CHL1   H17  987   6.120   1.797   9.453 -1.5085  0.1776 -0.1248
   14CHL1   C13  988   6.251   1.680   9.596  0.3242 -0.9199 -0.1475
   14CHL1   C18  989   6.341   1.558   9.580 -0.2896 -1.2269  0.1743
   14CHL1  H18A  990   6.396   1.553   9.676  1.1697  1.7434 -0.4550
   14CHL1  H18B  991   6.291   1.462   9.555  0.6773 -1.7685  0.3285
   14CHL1  H18C  992   6.416   1.568   9.499  0.9608 -0.6155  1.3923
   14CHL1   C12  993   6.323   1.803   9.654 -0.1717 -0.6548  0.8615
   14CHL1  H12A  994   6.413   1.832   9.595  0.1623  0.9891  2.1421
   14CHL1  H12B  995   6.255   1.891   9.650  1.1071  0.3340  0.6266
   14CHL1   C11  996   6.370   1.791   9.803 -0.1513  0.1268  0.5490
   14CHL1  H11A  997   6.457   1.722   9.806 -0.8486 -0.7276  1.8948
   14CHL1  H11B  998   6.399   1.894   9.836  0.1915  0.1270  0.2406
   14CHL1    C9  999   6.252   1.740   9.892 -0.1640 -0.0538 -0.2278
   14CHL1    H9 1000   6.167   1.812   9.893 -1.0809 -1.0793  3.1243
   14CHL1   C10 1001   6.279   1.722  10.041  0.1103  0.5850  0.2998
   14CHL1   C19 1002   6.403   1.628  10.059  0.6607 -0.4605 -0.0383
   14CHL1  H19A 1003   6.425   1.621  10.167  3.1218 -2.2282 -0.6090
   14CHL1  H19B 1004   6.370   1.530  10.017 -0.4840  0.6336 -1.7980
   14CHL1  H19C 1005   6.493   1.657  10.002  0.8291  1.4048  1.1585
   14CHL1    C1 1006   6.315   1.861  10.099  0.0386 -0.1624 -0.9523
   14CHL1   H1A 1007   6.415   1.893  10.063  1.0080 -1.3545  0.6088
   14CHL1   H1B 1008   6.237   1.931  10.061  0.4156  0.4669 -0.5592
   14CHL1    C2 1009   6.314   1.877  10.255 -0.1098 -0.4353  0.1311
   14CHL1   H2A 1010   6.334   1.979  10.296 -1.1849  0.6145 -1.8717
   14CHL1   H2B 1011   6.402   1.813  10.278  0.5554  0.5980  0.5150
   14CHL1   C20 1012   6.257   1.694   9.321 -0.5807 -0.2054 -0.1664
   14CHL1   H20 1013   6.312   1.598   9.316  0.4859  0.4454 -1.0283
   14CHL1   C21 1014   6.356   1.809   9.307 -0.3364 -0.2430  0.5975
   14CHL1  H21A 1015   6.304   1.906   9.292  1.2359  0.4246 -0.6660
   14CHL1  H21B 1016   6.431   1.800   9.226 -1.2486  1.1686 -0.4141
   14CHL1  H21C 1017   6.419   1.808   9.399 -0.6346 -0.7225  0.7974
   14CHL1   C22 1018   6.162   1.695   9.205 -0.1955 -0.5835 -0.0525
   14CHL1  H22A 1019   6.108   1.598   9.190  0.6268 -0.7398 -2.0745
   14CHL1  H22B 1020   6.082   1.772   9.209  0.1740 -0.0623 -2.2627
   14CHL1   C23 1021   6.234   1.699   9.071  0.0030 -0.3428 -0.5633
   14CHL1  H23A 1022   6.280   1.800   9.060 -0.5608 -0.0251  0.0162
   14CHL1  H23B 1023   6.324   1.634   9.079 -0.5498 -1.1722 -0.9734
   14CHL1   C24 1024   6.159   1.667   8.944 -0.2298 -0.8866  0.1595
   14CHL1  H24A 1025   6.119   1.564   8.945  2.0433 -1.7940  1.4393
   14CHL1  H24B 1026   6.070   1.734   8.940 -1.8437 -2.8561  2.0659
   14CHL1   C25 1027   6.249   1.700   8.826  0.1929  0.1466  0.5402
   14CHL1   H25 1028   6.299   1.796   8.850 -0.2807  0.0915  1.7863
   14CHL1   C26 1029   6.360   1.596   8.791  0.0319 -0.5544 -0.8794
   14CHL1  H26A 1030   6.414   1.582   8.886 -0.3274  0.7362 -0.4810
   14CHL1  H26B 1031   6.321   1.495   8.762 -2.3923 -0.2556  1.1817
   14CHL1  H26C 1032   6.431   1.628   8.712  1.5500 -2.3979 -0.3020
   14CHL1   C27 1033   6.159   1.712   8.700 -0.2821  0.5827 -1.2152
   14CHL1  H27A 1034   6.229   1.744   8.619 -0.5798  1.5893 -1.0880
   14CHL1  H27B 1035   6.104   1.617   8.687 -1.6950  1.0399  1.1914
   14CHL1  H27C 1036   6.083   1.793   8.712  1.1467  1.5686  1.6985
   15CHL1    C3 1037   6.203   0.490  10.134 -0.0898 -0.1214 -0.0885
   15CHL1    H3 1038   6.290   0.551  10.165 -0.7938 -0.4230  2.5692
   15CHL1    O3 1039   6.138   0.456  10.254  0.2993  0.2700  0.1828
   15CHL1   H3' 1040   6.105   0.369  10.233 -0.1387  0.0849  1.6304
   15CHL1    C4 1041   6.106   0.563  10.038  0.2576  0.2822  0.3450
   15CHL1   H4A 1042   6.012   0.504  10.028  0.8255 -0.3331 -1.6302
   15CHL1   H4B 1043   6.076   0.656  10.091  2.5927  0.7585  0.8432
   15CHL1    C5 1044   6.158   0.591   9.904 -0.4607  0.0132  0.4050
   15CHL1    C6 1045   6.158   0.714   9.855  0.7956 -0.3491 -0.1272
   15CHL1    H6 1046   6.113   0.800   9.906  0.4536  1.0852 -2.8030
   15CHL1    C7 1047   6.197   0.749   9.718  0.5357 -0.6361 -0.4369
   15CHL1   H7A 1048   6.112   0.805   9.673  1.1738 -0.3219 -1.2548
   15CHL1   H7B 1049   6.292   0.807   9.711 -0.0649  0.8605  2.8403
   15CHL1    C8 1050   6.200   0.623   9.628  0.6257 -0.0116  0.1934
   15CHL1    H8 1051   6.095   0.592   9.608  0.2942  0.8998  0.5091
   15CHL1   C14 1052   6.266   0.659   9.492  0.0814  0.4506 -0.2255
   15CHL1   H14 1053   6.368   0.695   9.515  0.1651  1.5314 -2.2258
   15CHL1   C15 1054   6.206   0.780   9.416  0.2031  0.3984 -0.3906
   15CHL1  H15A 1055   6.096   0.774   9.414  0.1718  0.7118  0.2960
   15CHL1  H15B 1056   6.230   0.878   9.462 -0.0360 -0.6301  2.0160
   15CHL1   C16 1057   6.272   0.763   9.277 -0.4099 -0.4880 -0.8111
   15CHL1  H16A 1058   6.192   0.776   9.201 -3.8154 -1.5962  2.3988
   15CHL1  H16B 1059   6.354   0.838   9.266 -1.1058  0.0241 -2.7169
   15CHL1   C17 1060   6.349   0.627   9.268 -0.5850  0.2645 -0.3473
   15CHL1   H17 1061   6.453   0.657   9.290 -0.8798  0.3801  0.9515
   15CHL1   C13 1062   6.293   0.550   9.393 -0.0404 -0.4117 -0.4470
   15CHL1   C18 1063   6.148   0.491   9.359 -0.1887  0.7035  0.5707
   15CHL1  H18A 1064   6.081   0.572   9.322 -0.3533 -0.3088 -1.4317
   15CHL1  H18B 1065   6.154   0.413   9.280  0.8319  1.9370 -0.5972
   15CHL1  H18C 1066   6.097   0.449   9.448  0.5791 -0.2267  0.5802
   15CHL1   C12 1067   6.377   0.442   9.458 -0.6149  0.3098  0.0028
   15CHL1  H12A 1068   6.382   0.358   9.386 -0.5166 -1.0013  1.5358
   15CHL1  H12B 1069   6.482   0.478   9.462  0.2669 -2.2551  0.5768
   15CHL1   C11 1070   6.329   0.391   9.602  0.2269 -1.1538 -0.4430
   15CHL1  H11A 1071   6.255   0.311   9.583  1.0102 -1.6845 -1.3383
   15CHL1  H11B 1072   6.419   0.342   9.646  0.3936 -1.8441 -1.5292
   15CHL1    C9 1073   6.285   0.515   9.693 -0.0451  0.3595 -0.5001
   15CHL1    H9 1074   6.383   0.561   9.719  0.0039 -0.0350  0.0261
   15CHL1   C10 1075   6.211   0.465   9.829 -0.7355  0.2424  0.3114
   15CHL1   C19 1076   6.083   0.386   9.789  0.0682  1.0729 -0.3347
   15CHL1  H19A 1077   6.025   0.338   9.870 -1.8858 -0.4977 -2.5827
   15CHL1  H19B 1078   6.005   0.448   9.739 -1.1503 -1.2106 -1.3336
   15CHL1  H19C 1079   6.100   0.301   9.719  0.9351  2.5135 -1.9297
   15CHL1    C1 1080   6.305   0.380   9.923  0.4870  0.3336 -0.5965
   15CHL1   H1A 1081   6.331   0.287   9.868 -0.0196  1.6314 -3.1319
   15CHL1   H1B 1082   6.406   0.422   9.942 -0.0915  0.3146  2.8348
   15CHL1    C2 1083   6.252   0.365  10.063 -0.3991  0.4652 -0.1135
   15CHL1   H2A 1084   6.325   0.312  10.128 -0.5737  0.2405 -0.1003
   15CHL1   H2B 1085   6.170   0.290  10.063 -1.1439  1.2635  0.5521
   15CHL1   C20 1086   6.337   0.570   9.128 -0.0412  0.3230 -0.4420
   15CHL1   H20 1087   6.239   0.525   9.103  0.3157 -0.4172 -0.5101
   15CHL1   C21 1088   6.449   0.463   9.117 -0.0798 -0.9214  0.2600
   15CHL1  H21A 1089   6.438   0.386   9.197 -2.3400  0.1554  1.0208
   15CHL1  H21B 1090   6.556   0.491   9.125 -0.9001  2.0109  1.6074
   15CHL1  H21C 1091   6.425   0.408   9.024 -0.4801  0.0131 -0.1907
   15CHL1   C22 1092   6.363   0.678   9.016  0.3950 -0.1505  0.0797
   15CHL1  H22A 1093   6.273   0.744   9.018 -0.3202 -1.1364  0.5027
   15CHL1  H22B 1094   6.454   0.738   9.039  1.4303 -0.8130 -2.1291
   15CHL1   C23 1095   6.385   0.631   8.869 -0.1370 -0.3979 -0.5770
   15CHL1  H23A 1096   6.484   0.582   8.865  0.2409  0.4286 -1.4674
   15CHL1  H23B 1097   6.295   0.568   8.847 -1.8688  0.5864  3.2479
   15CHL1   C24 1098   6.398   0.749   8.765 -0.2521  0.2099  0.4020
   15CHL1  H24A 1099   6.317   0.824   8.781 -0.0151  0.5368  0.0780
   15CHL1  H24B 1100   6.487   0.813   8.784 -1.5965  2.1443  0.3192
   15CHL1   C25 1101   6.396   0.691   8.619  0.0512  0.4677 -0.1957
   15CHL1   H25 1102   6.290   0.671   8.590 -0.2696 -2.1829  2.5938
   15CHL1   C26 1103   6.456   0.800   8.529  0.1865  0.3126  0.1701
   15CHL1  H26A 1104   6.395   0.890   8.549  2.8994  2.2249  0.0496
   15CHL1  H26B 1105   6.557   0.824   8.567  0.0012 -1.3698  1.7973
   15CHL1  H26C 1106   6.458   0.775   8.421  0.0381  0.9007  0.0289
   15CHL1   C27 1107   6.473   0.560   8.594  0.8393  0.1716  0.3434
   15CHL1  H27A 1108   6.576   0.569   8.635  0.0055  0.8955  2.3604
   15CHL1  H27B 1109   6.432   0.476   8.655  0.6783  1.3034  1.8139
   15CHL1  H27C 1110   6.471   0.536   8.486 -2.0545  0.2671  0.3585
   16CHL1    C3 1111   0.009   1.269  10.400  0.2463  0.1832  0.2327
   16CHL1    H3 1112   0.083   1.191  10.429 -1.9711 -1.4506  1.6396
   16CHL1    O3 1113  -0.055   1.314  10.518 -0.5895 -0.5840 -0.4475
   16CHL1   H3' 1114  -0.088   1.401  10.495  0.3982  0.2911  1.3705
   16CHL1    C4 1115   0.082   1.386  10.333 -0.1426  0.6975 -0.7061
   16CHL1   H4A 1116   0.012   1.472  10.325  1.8527  2.5012  0.4330
   16CHL1   H4B 1117   0.166   1.414  10.401 -0.4734 -0.8050  0.3338
   16CHL1    C5 1118   0.134   1.355  10.195 -0.0506  0.4277  0.8065
   16CHL1    C6 1119   0.264   1.368  10.163  0.0256 -0.1401 -0.6377
   16CHL1    H6 1120   0.337   1.402  10.238 -1.1941 -0.0100  0.5028
   16CHL1    C7 1121   0.320   1.339  10.030  0.6876  0.5123 -0.3942
   16CHL1   H7A 1122   0.396   1.410   9.990  0.7474  0.3910 -0.4975
   16CHL1   H7B 1123   0.376   1.242  10.034  0.0383  0.1384 -0.3653
   16CHL1    C8 1124   0.211   1.327   9.920 -0.2805  0.2489 -0.6008
   16CHL1    H8 1125   0.164   1.427   9.909  1.9477  1.6894  2.3480
   16CHL1   C14 1126   0.263   1.282   9.787  0.4392  0.2139  0.4079
   16CHL1   H14 1127   0.300   1.179   9.807 -1.9600 -0.3976  1.8395
   16CHL1   C15 1128   0.374   1.363   9.712  0.5727  0.7121  0.3120
   16CHL1  H15A 1129   0.360   1.473   9.727 -0.2535  0.4661  1.3988
   16CHL1  H15B 1130   0.475   1.341   9.751 -0.0283 -1.6842  0.5739
   16CHL1   C16 1131   0.362   1.322   9.560  0.6689  0.5430  0.0695
   16CHL1  H16A 1132   0.337   1.405   9.491 -0.8400  0.2868  0.2887
   16CHL1  H16B 1133   0.458   1.282   9.522 -0.1748 -0.9023 -0.6026
   16CHL1   C17 1134   0.245   1.225   9.566 -0.8865 -0.0778  0.2005
   16CHL1   H17 1135   0.289   1.132   9.606 -0.9410  0.2903  1.1245
   16CHL1   C13 1136   0.153   1.261   9.678  0.1233 -0.2301 -0.2142
   16CHL1   C18 1137   0.073   1.390   9.641  0.1713  0.1825 -0.2206
   16CHL1  H18A 1138   0.008   1.410   9.729  0.6595 -1.6469  0.5951
   16CHL1  H18B 1139   0.139   1.476   9.620 -0.0649 -0.2628 -3.0234
   16CHL1  H18C 1140   0.011   1.370   9.551  1.8364 -1.1789 -1.1109
   16CHL1   C12 1141   0.055   1.149   9.727 -0.2518 -0.2376 -0.1587
   16CHL1  H12A 1142  -0.028   1.130   9.655  0.7451  2.4134 -2.1256
   16CHL1  H12B 1143   0.101   1.049   9.741  1.2438  0.6807  1.7714
   16CHL1   C11 1144  -0.008   1.196   9.859  0.3843 -0.2447 -0.5494
   16CHL1  H11A 1145  -0.083   1.267   9.819 -0.4738 -1.4518 -1.1048
   16CHL1  H11B 1146  -0.074   1.125   9.915  2.1174  0.6565  2.8091
   16CHL1    C9 1147   0.089   1.247   9.966 -0.2500  0.0168  0.2719
   16CHL1    H9 1148   0.138   1.153   9.997  1.4103  1.4157  1.9863
   16CHL1   C10 1149   0.028   1.309  10.097 -0.5790  0.2493  0.0353
   16CHL1   C19 1150  -0.068   1.427  10.058  0.7764  0.1248 -0.2647
   16CHL1  H19A 1151  -0.014   1.510  10.007  0.3561 -0.0003 -0.9218
   16CHL1  H19B 1152  -0.156   1.397   9.998 -0.6896  0.0880  1.8495
   16CHL1  H19C 1153  -0.110   1.473  10.150 -0.7456  0.6010 -1.1934
   16CHL1    C1 1154  -0.052   1.198  10.164 -0.6950  0.4410  0.0967
   16CHL1   H1A 1155  -0.140   1.165  10.104  1.0608 -2.8925 -0.7821
   16CHL1   H1B 1156   0.002   1.103  10.183  0.7230  0.8763 -1.6577
   16CHL1    C2 1157  -0.109   1.231  10.305 -0.4829  0.5019  0.2506
   16CHL1   H2A 1158  -0.154   1.135  10.339  0.0050 -0.2205 -1.0823
   16CHL1   H2B 1159  -0.181   1.316  10.303  1.7443  2.4020  0.0497
   16CHL1   C20 1160   0.176   1.184   9.443 -0.8634 -0.3432  0.1391
   16CHL1   H20 1161   0.078   1.134   9.458 -2.1929  1.4685 -2.2001
   16CHL1   C21 1162   0.261   1.070   9.382 -0.0546 -0.2865  0.3755
   16CHL1  H21A 1163   0.364   1.107   9.361 -1.6084  3.0963 -1.7661
   16CHL1  H21B 1164   0.215   1.033   9.288  0.3257  0.5566 -0.1524
   16CHL1  H21C 1165   0.280   0.986   9.452 -0.8197 -0.5955  0.2068
   16CHL1   C22 1166   0.164   1.292   9.332  0.2399  0.1839 -0.8080
   16CHL1  H22A 1167   0.115   1.387   9.365 -1.4869 -1.0645  0.3266
   16CHL1  H22B 1168   0.267   1.322   9.303 -0.1274  2.3806  0.0344
   16CHL1   C23 1169   0.079   1.233   9.215 -0.1547  0.4717 -0.0617
   16CHL1  H23A 1170   0.153   1.194   9.141 -1.0391  0.4842 -0.9684
   16CHL1  H23B 1171   0.004   1.158   9.246 -0.4736  0.8895  0.1719
   16CHL1   C24 1172   0.017   1.346   9.138  0.2791  0.1119  0.3570
   16CHL1  H24A 1173  -0.054   1.387   9.212 -0.2606 -0.6768  0.2822
   16CHL1  H24B 1174   0.086   1.425   9.101  0.2364 -0.9879 -2.2073
   16CHL1   C25 1175  -0.072   1.308   9.020  0.0515  1.1754  1.0256
   16CHL1   H25 1176  -0.148   1.232   9.049  1.4427 -0.1050  1.3837
   16CHL1   C26 1177  -0.145   1.427   8.959 -0.8408  0.1487  1.1883
   16CHL1  H26A 1178  -0.166   1.419   8.850 -2.0330  2.6075  1.2063
   16CHL1  H26B 1179  -0.238   1.451   9.015  0.2950 -0.2456  3.2769
   16CHL1  H26C 1180  -0.089   1.523   8.964 -1.0096  0.3221  0.0083
   16CHL1   C27 1181   0.005   1.233   8.904  0.2815 -0.1833 -0.9624
   16CHL1  H27A 1182  -0.070   1.174   8.847  0.3410 -0.8366 -0.3801
   16CHL1  H27B 1183   0.056   1.301   8.833 -0.6472  0.1803 -1.2889
   16CHL1  H27C 1184   0.076   1.167   8.959 -1.0751 -0.4238  0.5457
   17CHL1    C3 1185   2.831   4.891  10.355 -0.4555 -0.7390  0.1376
   17CHL1    H3 1186   2.756   4.971  10.343 -0.7282 -0.7476  1.7125
   17CHL1    O3 1187   2.859   4.869  10.489  0.1956  0.2185 -0.8605
   17CHL1   H3' 1188   2.945   4.826  10.486  0.7522  1.0929  1.3000
   17CHL1    C4 1189   2.783   4.764  10.286  0.1440 -1.0538  0.3910
   17CHL1   H4A 1190   2.862   4.691  10.312  1.2797 -0.3981 -1.1519
   17CHL1   H4B 1191   2.687   4.733  10.332 -0.6277 -0.6516 -0.9059
   17CHL1    C5 1192   2.778   4.761  10.135 -0.2057  0.6002 -0.2392
   17CHL1    C6 1193   2.671   4.720  10.071 -0.2133 -0.7898  0.3740
   17CHL1    H6 1194   2.586   4.674  10.124 -0.3610  0.6995  1.4652
   17CHL1    C7 1195   2.658   4.723   9.919 -0.0265  0.2388 -0.1635
   17CHL1   H7A 1196   2.625   4.624   9.880 -0.8229 -0.2323  1.6065
   17CHL1   H7B 1197   2.576   4.790   9.886 -0.2643 -0.0243 -0.1166
   17CHL1    C8 1198   2.793   4.753   9.843 -0.2037 -0.3930 -0.8071
   17CHL1    H8 1199   2.861   4.666   9.841  0.1082 -0.1529 -0.7029
   17CHL1   C14 1200   2.780   4.807   9.698  0.3477  0.2961  0.5489
   17CHL1   H14 1201   2.722   4.900   9.713 -0.6902 -0.3459  0.5999
   17CHL1   C15 1202   2.704   4.708   9.598 -0.1787  0.3776  0.3380
   17CHL1  H15A 1203   2.744   4.606   9.615 -2.7113 -0.6738  0.2004
   17CHL1  H15B 1204   2.597   4.696   9.621 -0.3001  0.7739 -0.0156
   17CHL1   C16 1205   2.748   4.756   9.464 -0.0481  0.6241 -0.3022
   17CHL1  H16A 1206   2.790   4.680   9.395 -2.1313  1.0915 -2.1400
   17CHL1  H16B 1207   2.660   4.797   9.409 -1.1712  1.0752  1.7991
   17CHL1   C17 1208   2.854   4.875   9.480 -0.1847 -0.3554  0.0718
   17CHL1   H17 1209   2.797   4.971   9.476 -1.6360 -1.2576 -2.5743
   17CHL1   C13 1210   2.904   4.842   9.625 -0.4040 -0.4063 -0.0109
   17CHL1   C18 1211   3.008   4.720   9.620  0.3848 -0.0098  0.1935
   17CHL1  H18A 1212   2.974   4.622   9.580 -0.5539 -0.1469  1.2941
   17CHL1  H18B 1213   3.091   4.735   9.548  0.1996 -1.2922 -0.3081
   17CHL1  H18C 1214   3.056   4.693   9.716  2.7042 -3.5270 -1.8439
   17CHL1   C12 1215   2.960   4.967   9.697  0.5189 -0.4920 -0.0647
   17CHL1  H12A 1216   3.059   4.988   9.649  0.4955 -0.8555 -0.2726
   17CHL1  H12B 1217   2.897   5.058   9.688  1.8418  0.4091 -0.5079
   17CHL1   C11 1218   2.987   4.944   9.842  0.6109  0.3434 -1.4930
   17CHL1  H11A 1219   3.074   4.876   9.851 -1.0118 -1.6525 -0.2494
   17CHL1  H11B 1220   2.995   5.042   9.894  1.5546 -0.8324  0.6170
   17CHL1    C9 1221   2.862   4.871   9.919  0.2432  0.8466  0.4522
   17CHL1    H9 1222   2.779   4.944   9.932 -0.0460  0.1072  3.3107
   17CHL1   C10 1223   2.897   4.834  10.063  0.8446  0.1817  0.0825
   17CHL1   C19 1224   3.013   4.742  10.077 -0.0613  1.2966  0.3673
   17CHL1  H19A 1225   2.998   4.653  10.012 -2.5771  0.8209  1.5300
   17CHL1  H19B 1226   3.098   4.798  10.032  0.7763  0.1508  0.4903
   17CHL1  H19C 1227   3.038   4.704  10.179  1.8341  1.8411  0.1170
   17CHL1    C1 1228   2.937   4.961  10.142  0.0721 -0.3582 -1.3458
   17CHL1   H1A 1229   3.033   4.991  10.095  0.3380  2.5225  0.8790
   17CHL1   H1B 1230   2.863   5.043  10.129  1.7693  1.3064 -0.7139
   17CHL1    C2 1231   2.962   4.940  10.295  0.8485  0.1944  0.1769
   17CHL1   H2A 1232   2.984   5.042  10.332 -1.2567  1.1057 -0.9925
   17CHL1   H2B 1233   3.056   4.882  10.303  0.5786 -0.2965 -0.1836
   17CHL1   C20 1234   2.955   4.879   9.364  0.8478 -0.0787 -0.0228
   17CHL1   H20 1235   3.006   4.781   9.357  1.0932 -0.0232  0.9372
   17CHL1   C21 1236   3.065   4.981   9.381  0.6813 -0.1373  0.2313
   17CHL1  H21A 1237   3.013   5.079   9.394  3.5437  1.7544 -1.8865
   17CHL1  H21B 1238   3.137   4.991   9.297  1.4055  0.2601  0.8917
   17CHL1  H21C 1239   3.129   4.966   9.471 -0.8329  1.2988  1.5918
   17CHL1   C22 1240   2.889   4.906   9.224 -0.1115  0.0832 -0.1215
   17CHL1  H22A 1241   2.827   4.999   9.221  1.5939  1.2242 -0.2547
   17CHL1  H22B 1242   2.976   4.919   9.157 -0.1687  1.2862  0.0377
   17CHL1   C23 1243   2.810   4.790   9.163  0.5098  0.5289 -0.1819
   17CHL1  H23A 1244   2.843   4.693   9.207  0.2255  0.5288  0.0294
   17CHL1  H23B 1245   2.703   4.793   9.190 -0.0125  1.3207 -2.2689
   17CHL1   C24 1246   2.798   4.804   9.009  0.8138  0.7450 -0.2911
   17CHL1  H24A 1247   2.724   4.885   8.989 -1.0950 -0.7548  0.5649
   17CHL1  H24B 1248   2.892   4.821   8.952  1.0137  0.2724 -0.0981
   17CHL1   C25 1249   2.743   4.676   8.943  0.3483  0.2694 -0.5006
   17CHL1   H25 1250   2.812   4.589   8.953  0.7263  0.5564 -0.5562
   17CHL1   C26 1251   2.605   4.632   9.001  1.0428 -0.5295 -0.3818
   17CHL1  H26A 1252   2.539   4.721   9.002 -0.1711 -1.4204  1.8370
   17CHL1  H26B 1253   2.554   4.553   8.942 -0.3030  0.0142  0.0488
   17CHL1  H26C 1254   2.606   4.596   9.106 -2.3786 -0.0411 -0.1384
   17CHL1   C27 1255   2.718   4.705   8.790  0.1440 -0.5609 -0.0544
   17CHL1  H27A 1256   2.625   4.762   8.772  1.0211  0.4950 -1.3214
   17CHL1  H27B 1257   2.801   4.767   8.749 -0.3833  2.3564  3.1241
   17CHL1  H27C 1258   2.723   4.606   8.739 -0.8620  0.0427 -1.3473
   18CHL1    C3 1259   2.147   3.851  10.300 -0.7423 -0.3548 -0.6133
   18CHL1    H3 1260   2.086   3.943  10.305  0.2152  0.3536 -1.5405
   18CHL1    O3 1261   2.177   3.806  10.433  0.0488 -0.9125  0.7582
   18CHL1   H3' 1262   2.229   3.875  10.476 -0.0686 -0.1838 -0.2617
   18CHL1    C4 1263   2.082   3.740  10.222  0.0966  0.1982  0.3288
   18CHL1   H4A 1264   2.133   3.645  10.251 -0.5085 -1.2328 -3.0915
   18CHL1   H4B 1265   1.981   3.735  10.269 -0.0801  0.1099 -0.0647
   18CHL1    C5 1266   2.078   3.760  10.070  0.0265 -0.6835 -0.1493
   18CHL1    C6 1267   1.962   3.748  10.006  0.1974  0.1878 -0.0745
   18CHL1    H6 1268   1.871   3.711  10.056 -1.0633 -1.0884 -3.1313
   18CHL1    C7 1269   1.952   3.753   9.854  0.2680  0.3728 -0.8240
   18CHL1   H7A 1270   1.905   3.656   9.825 -1.3406  0.9387 -0.1933
   18CHL1   H7B 1271   1.886   3.836   9.820  0.1836  0.5332 -0.2662
   18CHL1    C8 1272   2.098   3.779   9.792 -0.1538 -0.0317 -0.3889
   18CHL1    H8 1273   2.143   3.678   9.788  0.2984  0.1246  0.7741
   18CHL1   C14 1274   2.083   3.820   9.649  0.2053 -0.1999 -0.0438
   18CHL1   H14 1275   2.028   3.917   9.645  1.1021  0.2834 -1.3569
   18CHL1   C15 1276   1.996   3.726   9.553  0.8544  0.0783  0.8710
   18CHL1  H15A 1277   2.014   3.617   9.556 -0.9765 -0.2061  1.9265
   18CHL1  H15B 1278   1.891   3.760   9.568 -0.1901 -2.3597 -0.5542
   18CHL1   C16 1279   2.034   3.776   9.413  0.4385 -0.1853 -0.7789
   18CHL1  H16A 1280   2.072   3.693   9.350 -0.0625 -0.3131 -0.9170
   18CHL1  H16B 1281   1.951   3.822   9.356 -0.3623  0.9350  1.2510
   18CHL1   C17 1282   2.155   3.871   9.435 -0.1724 -0.4235  0.1369
   18CHL1   H17 1283   2.111   3.971   9.452 -0.3893 -0.0006 -2.6149
   18CHL1   C13 1284   2.213   3.836   9.573 -0.1224 -0.6112  0.0178
   18CHL1   C18 1285   2.301   3.708   9.557  0.2843  0.1273  0.1724
   18CHL1  H18A 1286   2.246   3.628   9.505  2.3763 -0.9657 -0.3840
   18CHL1  H18B 1287   2.391   3.729   9.496  0.2016 -3.4690 -1.2535
   18CHL1  H18C 1288   2.341   3.675   9.655 -1.9294  1.2933  1.5209
   18CHL1   C12 1289   2.295   3.941   9.648 -0.3761 -0.1554 -0.1320
   18CHL1  H12A 1290   2.393   3.967   9.604  0.2078 -0.5609  0.9010
   18CHL1  H12B 1291   2.236   4.035   9.642  1.5636  1.3943  3.3425
   18CHL1   C11 1292   2.319   3.903   9.794 -0.7243 -0.0775  0.1293
   18CHL1  H11A 1293   2.395   3.823   9.807 -0.6576 -0.1922 -0.9484
   18CHL1  H11B 1294   2.367   3.993   9.837  0.8476 -0.0203 -1.6720
   18CHL1    C9 1295   2.188   3.863   9.869 -0.1950  0.0275  0.7594
   18CHL1    H9 1296   2.144   3.965   9.865 -1.4243 -0.5682 -2.3106
   18CHL1   C10 1297   2.203   3.814  10.012 -0.1926 -0.3952  0.3277
   18CHL1   C19 1298   2.300   3.694  10.017 -0.2029  0.5043 -0.5312
   18CHL1  H19A 1299   2.392   3.721   9.960 -0.5462  0.8218 -0.9481
   18CHL1  H19B 1300   2.325   3.656  10.118 -1.0153 -1.0536 -0.9099
   18CHL1  H19C 1301   2.254   3.603   9.974 -2.7831  1.1202  0.8112
   18CHL1    C1 1302   2.259   3.928  10.091  0.4119  0.2451 -0.0936
   18CHL1   H1A 1303   2.360   3.951  10.052  0.3629  1.1736  0.2924
   18CHL1   H1B 1304   2.206   4.026  10.093  0.1543  0.1224 -0.9828
   18CHL1    C2 1305   2.284   3.891  10.240  0.1664  0.4603  0.0664
   18CHL1   H2A 1306   2.319   3.983  10.290 -1.2785  0.8972  0.3001
   18CHL1   H2B 1307   2.355   3.811  10.271  1.8854  1.9727  0.1070
   18CHL1   C20 1308   2.247   3.892   9.309 -0.6738 -0.0582  0.3178
   18CHL1   H20 1309   2.292   3.798   9.271  0.0796  0.1950  0.5794
   18CHL1   C21 1310   2.361   3.987   9.337  0.5287 -0.4333  0.0411
   18CHL1  H21A 1311   2.425   4.015   9.251  1.2666 -0.4696  0.5707
   18CHL1  H21B 1312   2.430   3.936   9.408  0.3762 -1.3230 -0.4437
   18CHL1  H21C 1313   2.316   4.077   9.385 -1.7801 -1.7968  0.4995
   18CHL1   C22 1314   2.162   3.951   9.192  0.9789  0.1629  0.1918
   18CHL1  H22A 1315   2.065   3.901   9.170  0.1596  1.6860  0.2605
   18CHL1  H22B 1316   2.143   4.057   9.217 -0.2307  0.0411 -0.1753
   18CHL1   C23 1317   2.236   3.962   9.060 -0.3375 -0.3327 -0.4467
   18CHL1  H23A 1318   2.331   4.020   9.069 -1.2412  0.8189  2.1399
   18CHL1  H23B 1319   2.269   3.862   9.023  0.7113 -0.4142  0.6543
   18CHL1   C24 1320   2.138   4.025   8.957 -0.2979  0.8164  0.1089
   18CHL1  H24A 1321   2.053   3.955   8.941 -0.9881  1.7316 -0.2619
   18CHL1  H24B 1322   2.108   4.127   8.991 -0.1051  0.9466 -0.1035
   18CHL1   C25 1323   2.189   4.037   8.816  0.1997 -0.1004 -0.1977
   18CHL1   H25 1324   2.289   4.084   8.827 -1.6056  3.7821  0.2919
   18CHL1   C26 1325   2.187   3.897   8.742 -0.0006  0.4001 -0.0102
   18CHL1  H26A 1326   2.082   3.862   8.734 -0.0337  0.7770 -1.2251
   18CHL1  H26B 1327   2.231   3.911   8.641  0.6392 -3.0554 -0.2514
   18CHL1  H26C 1328   2.254   3.830   8.800  1.0423 -0.2827 -1.9736
   18CHL1   C27 1329   2.110   4.143   8.734 -0.4925  0.3797  0.7514
   18CHL1  H27A 1330   2.006   4.105   8.733  0.7382 -3.2259  1.6344
   18CHL1  H27B 1331   2.132   4.245   8.773 -1.3384  0.7497  0.2948
   18CHL1  H27C 1332   2.146   4.138   8.629 -1.5818 -0.7433  0.4218
   19CHL1    C3 1333   6.093   6.771   9.951  0.0153 -0.4502  0.9695
   19CHL1    H3 1334   6.087   6.882   9.956  1.5505  0.1112 -5.3250
   19CHL1    O3 1335   6.068   6.734  10.085  0.1043 -0.6244  0.4250
   19CHL1   H3' 1336   6.065   6.638  10.078 -1.4849 -0.5701  0.2665
   19CHL1    C4 1337   5.977   6.722   9.867 -0.0406 -0.7106 -0.2019
   19CHL1   H4A 1338   5.982   6.612   9.879  1.3638 -0.6667 -0.2838
   19CHL1   H4B 1339   5.886   6.765   9.914  1.1408  2.5594 -0.7650
   19CHL1    C5 1340   5.988   6.767   9.718  0.2532  0.3346  0.4087
   19CHL1    C6 1341   5.897   6.843   9.655  0.1300 -0.5333  0.1189
   19CHL1    H6 1342   5.807   6.880   9.706  1.0400  0.4677  1.0200
   19CHL1    C7 1343   5.915   6.893   9.515  0.2964 -0.4391 -0.7507
   19CHL1   H7A 1344   5.821   6.882   9.456 -0.2489  0.3170 -0.0437
   19CHL1   H7B 1345   5.932   7.003   9.508  1.8253 -0.6406 -0.2497
   19CHL1    C8 1346   6.031   6.817   9.436  0.9956 -0.4455 -1.0479
   19CHL1    H8 1347   5.983   6.718   9.422  1.7234 -0.8244 -0.9119
   19CHL1   C14 1348   6.063   6.885   9.307  0.4695  0.0188 -0.6368
   19CHL1   H14 1349   6.105   6.985   9.332 -0.6023  0.1090  0.9050
   19CHL1   C15 1350   5.942   6.912   9.216 -0.4659 -0.0804 -0.4825
   19CHL1  H15A 1351   5.879   6.822   9.198  0.4984 -0.7280 -0.6382
   19CHL1  H15B 1352   5.880   6.999   9.245 -0.7094 -0.2666 -0.4394
   19CHL1   C16 1353   6.014   6.947   9.086 -0.3152  0.4623 -0.1945
   19CHL1  H16A 1354   5.976   6.865   9.021  2.1161 -2.1452  1.5690
   19CHL1  H16B 1355   5.990   7.045   9.039  0.4908 -0.4810 -2.6819
   19CHL1   C17 1356   6.162   6.905   9.091 -0.2204 -0.3337  0.1379
   19CHL1   H17 1357   6.216   7.001   9.106  0.3077 -0.9915  2.5233
   19CHL1   C13 1358   6.160   6.817   9.221 -0.6359 -0.8996  0.3277
   19CHL1   C18 1359   6.108   6.677   9.180 -0.4895 -0.2382  0.4643
   19CHL1  H18A 1360   6.069   6.614   9.263  0.4706  0.9034  1.8109
   19CHL1  H18B 1361   6.025   6.679   9.107 -1.4975 -1.7465  1.5429
   19CHL1  H18C 1362   6.191   6.626   9.126  0.0094  0.2147  0.7938
   19CHL1   C12 1363   6.284   6.816   9.297 -0.2723 -0.4806 -0.7019
   19CHL1  H12A 1364   6.366   6.762   9.245 -0.0126  0.3877 -1.1857
   19CHL1  H12B 1365   6.322   6.917   9.320  0.9749 -1.1744  0.3659
   19CHL1   C11 1366   6.269   6.749   9.433 -0.4538  0.9099 -0.0196
   19CHL1  H11A 1367   6.244   6.643   9.411 -0.3247  1.2051 -1.5986
   19CHL1  H11B 1368   6.356   6.748   9.502  0.4118  1.1674 -1.1000
   19CHL1    C9 1369   6.154   6.799   9.525 -0.0849 -0.1669  0.3635
   19CHL1    H9 1370   6.184   6.903   9.550  1.1374 -0.4438  0.0897
   19CHL1   C10 1371   6.128   6.724   9.658 -0.4837 -0.1490  0.5684
   19CHL1   C19 1372   6.129   6.570   9.633  0.6539 -0.1243  0.1846
   19CHL1  H19A 1373   6.108   6.527   9.733  0.4015  0.7407  0.5042
   19CHL1  H19B 1374   6.052   6.535   9.561  1.2202  1.6839 -1.3306
   19CHL1  H19C 1375   6.227   6.531   9.597  0.0047  0.0463 -1.8288
   19CHL1    C1 1376   6.241   6.773   9.749 -0.0259 -0.0905  0.5985
   19CHL1   H1A 1377   6.332   6.726   9.705 -0.4472 -2.2104  1.9022
   19CHL1   H1B 1378   6.237   6.884   9.747  1.8468  0.0153  1.6212
   19CHL1    C2 1379   6.226   6.731   9.895  0.0877 -0.4449 -0.3872
   19CHL1   H2A 1380   6.308   6.790   9.942 -1.6103 -0.6259  2.9031
   19CHL1   H2B 1381   6.244   6.624   9.915 -1.7729 -0.4875  1.1142
   19CHL1   C20 1382   6.200   6.850   8.947 -0.4884 -0.2070 -0.4279
   19CHL1   H20 1383   6.160   6.749   8.926 -0.7131 -0.8073  2.6219
   19CHL1   C21 1384   6.355   6.837   8.956  0.2391 -0.2105 -0.2825
   19CHL1  H21A 1385   6.409   6.755   8.904 -0.7387 -0.3462 -1.1124
   19CHL1  H21B 1386   6.386   6.815   9.060  0.6373  1.0007 -0.1369
   19CHL1  H21C 1387   6.404   6.933   8.928 -0.2732 -0.2426 -1.3267
   19CHL1   C22 1388   6.154   6.952   8.837  0.0130  0.2588 -0.3540
   19CHL1  H22A 1389   6.046   6.957   8.815 -0.3467  1.1040  1.5421
   19CHL1  H22B 1390   6.180   7.051   8.880  1.8437  0.0561 -0.9141
   19CHL1   C23 1391   6.227   6.928   8.701  0.4815  0.1447 -0.5587
   19CHL1  H23A 1392   6.335   6.953   8.700  0.4932  0.1786  1.1697
   19CHL1  H23B 1393   6.213   6.822   8.670  2.1625  0.2873 -1.8909
   19CHL1   C24 1394   6.161   7.018   8.601  0.4124  0.3232 -0.7058
   19CHL1  H24A 1395   6.052   7.001   8.589  0.0173  2.2271 -0.0239
   19CHL1  H24B 1396   6.161   7.119   8.646 -1.0800  0.1718 -0.3310
   19CHL1   C25 1397   6.205   7.008   8.456 -0.3749 -0.2910  0.0347
   19CHL1   H25 1398   6.309   7.041   8.435 -0.0953 -2.0579 -1.5200
   19CHL1   C26 1399   6.197   6.861   8.399  0.5849 -0.2132  0.5713
   19CHL1  H26A 1400   6.094   6.823   8.411 -0.3363  2.2110  0.5908
   19CHL1  H26B 1401   6.217   6.849   8.291  3.8229 -1.9657  1.2878
   19CHL1  H26C 1402   6.272   6.799   8.454  1.9796  1.5978  0.7638
   19CHL1   C27 1403   6.111   7.084   8.368  0.5113 -0.0189  0.3752
   19CHL1  H27A 1404   6.006   7.047   8.370  0.8235 -1.0417 -1.3457
   19CHL1  H27B 1405   6.099   7.186   8.410  0.9097  0.6010 -0.9839
   19CHL1  H27C 1406   6.144   7.088   8.262  0.0763  0.0676  0.2420
   20CHL1    C3 1407   1.013   0.791  10.122  0.4965  0.4403 -0.1683
   20CHL1    H3 1408   0.923   0.856  10.123 -0.5539 -0.9802 -0.0013
   20CHL1    O3 1409   1.055   0.788  10.254 -0.5896  0.3324  0.0747
   20CHL1   H3' 1410   1.149   0.769  10.259 -0.6256  0.0983 -0.1266
   20CHL1    C4 1411   0.967   0.655  10.066 -0.6010 -0.2919  0.0914
   20CHL1   H4A 1412   1.044   0.577  10.086 -1.1636 -0.9844 -0.3990
   20CHL1   H4B 1413   0.885   0.625  10.134 -1.4509  1.6157 -0.0556
   20CHL1    C5 1414   0.932   0.653   9.914 -0.0459  0.7434  0.0088
   20CHL1    C6 1415   0.818   0.599   9.872  0.7994  0.7403 -0.6998
   20CHL1    H6 1416   0.738   0.562   9.938  0.3484 -0.6340 -2.0022
   20CHL1    C7 1417   0.780   0.586   9.728  0.8644  0.1164  0.5210
   20CHL1   H7A 1418   0.725   0.489   9.729  1.2736 -0.1315 -0.6602
   20CHL1   H7B 1419   0.710   0.670   9.706  0.1155 -0.2665  1.3795
   20CHL1    C8 1420   0.907   0.590   9.636 -0.3087  0.5853  0.2205
   20CHL1    H8 1421   0.958   0.497   9.667 -0.7168  0.6114  0.9616
   20CHL1   C14 1422   0.869   0.593   9.487  0.3188  0.1539 -0.3869
   20CHL1   H14 1423   0.816   0.688   9.463  0.6457  0.1975 -0.9437
   20CHL1   C15 1424   0.776   0.491   9.433  0.0599 -0.0817 -0.2292
   20CHL1  H15A 1425   0.807   0.387   9.459  2.4002  0.6276 -0.0970
   20CHL1  H15B 1426   0.668   0.495   9.458 -0.6577 -3.2913 -2.4666
   20CHL1   C16 1427   0.798   0.502   9.278 -0.6523 -0.4685 -0.4390
   20CHL1  H16A 1428   0.814   0.398   9.243 -1.5201 -0.7967  0.1328
   20CHL1  H16B 1429   0.709   0.549   9.232 -1.0197 -0.3211  0.4157
   20CHL1   C17 1430   0.920   0.591   9.257 -0.1710 -0.0445  0.2526
   20CHL1   H17 1431   0.868   0.686   9.237 -0.2071 -0.1303 -0.0594
   20CHL1   C13 1432   0.986   0.597   9.389  0.4488  0.4966 -0.3683
   20CHL1   C18 1433   1.085   0.473   9.403  0.1565 -0.4635 -0.5536
   20CHL1  H18A 1434   1.127   0.455   9.504  2.1393 -0.1363 -1.2904
   20CHL1  H18B 1435   1.047   0.374   9.373 -1.4726 -0.4543  1.3527
   20CHL1  H18C 1436   1.175   0.489   9.339 -0.1696  0.1278 -0.8630
   20CHL1   C12 1437   1.051   0.735   9.421  0.0206 -0.0633 -0.0101
   20CHL1  H12A 1438   1.129   0.766   9.347  0.1617 -2.0473 -0.7294
   20CHL1  H12B 1439   0.978   0.818   9.413 -0.5442 -0.6392 -1.0251
   20CHL1   C11 1440   1.110   0.735   9.565 -0.0945  0.0530 -0.4048
   20CHL1  H11A 1441   1.184   0.653   9.570  0.8809  0.9439  0.0944
   20CHL1  H11B 1442   1.164   0.831   9.583 -1.2120  0.8162 -1.1101
   20CHL1    C9 1443   0.993   0.713   9.677  0.2393  0.1806  0.5320
   20CHL1    H9 1444   0.917   0.794   9.667  1.0865  0.7842 -1.1644
   20CHL1   C10 1445   1.045   0.698   9.819 -0.6879  0.1653 -0.1825
   20CHL1   C19 1446   1.153   0.585   9.834  0.5578 -0.9269  0.7343
   20CHL1  H19A 1447   1.180   0.567   9.941  0.1792  0.9932  1.1646
   20CHL1  H19B 1448   1.124   0.490   9.784 -0.0476  0.0120 -0.7355
   20CHL1  H19C 1449   1.247   0.615   9.783  0.6749 -3.4346 -0.6285
   20CHL1    C1 1450   1.102   0.830   9.877 -0.0783 -0.1881  0.2543
   20CHL1   H1A 1451   1.202   0.849   9.832 -0.6331 -1.3456 -1.5059
   20CHL1   H1B 1452   1.032   0.913   9.856 -3.7440 -2.9007  1.2910
   20CHL1    C2 1453   1.134   0.830  10.031 -0.9694 -0.5375  1.1053
   20CHL1   H2A 1454   1.173   0.932  10.053  0.4136 -1.2564  2.0751
   20CHL1   H2B 1455   1.217   0.759  10.051  0.9256  1.1573 -0.4726
   20CHL1   C20 1456   0.996   0.554   9.132  0.1028 -0.2190 -0.4396
   20CHL1   H20 1457   1.035   0.450   9.142  1.2017  0.2068 -0.2913
   20CHL1   C21 1458   1.115   0.640   9.100 -0.1681 -0.1356  0.4372
   20CHL1  H21A 1459   1.083   0.746   9.089 -1.5307 -0.6713 -0.9256
   20CHL1  H21B 1460   1.166   0.608   9.007  2.2056  0.7136  1.4229
   20CHL1  H21C 1461   1.189   0.618   9.180  0.0580  2.2396  0.8983
   20CHL1   C22 1462   0.886   0.554   9.022 -0.5359  0.0559  0.6493
   20CHL1  H22A 1463   0.854   0.448   9.017  0.4641 -0.2018 -0.3787
   20CHL1  H22B 1464   0.799   0.618   9.050 -1.4948  0.4152 -2.9251
   20CHL1   C23 1465   0.935   0.592   8.878 -0.1892 -0.0548  0.1514
   20CHL1  H23A 1466   0.978   0.694   8.864 -2.0194  0.7654  0.3190
   20CHL1  H23B 1467   1.016   0.520   8.856  0.3221 -0.2588  2.5650
   20CHL1   C24 1468   0.826   0.572   8.769  0.0345  0.7378  0.5901
   20CHL1  H24A 1469   0.809   0.462   8.759  0.1123  0.8722 -1.0469
   20CHL1  H24B 1470   0.731   0.627   8.786 -2.2294 -1.8670 -2.9148
   20CHL1   C25 1471   0.875   0.619   8.631  0.0360 -0.9386 -0.7892
   20CHL1   H25 1472   0.979   0.580   8.622  1.0486  1.4197  0.4825
   20CHL1   C26 1473   0.788   0.586   8.507  0.2223  0.2543  0.3075
   20CHL1  H26A 1474   0.782   0.478   8.481  0.7849  0.4275 -0.5363
   20CHL1  H26B 1475   0.684   0.609   8.537 -0.2782 -1.7538  0.1647
   20CHL1  H26C 1476   0.815   0.638   8.413  0.1117 -1.4123 -0.6556
   20CHL1   C27 1477   0.887   0.777   8.622  0.0939 -0.3373 -0.0343
   20CHL1  H27A 1478   0.942   0.791   8.527 -0.8559  1.0086 -0.4022
   20CHL1  H27B 1479   0.784   0.821   8.618 -0.3741 -1.3701  0.5266
   20CHL1  H27C 1480   0.951   0.810   8.706  2.8535 -4.3778 -0.4226
   21CHL1    C3 1481   1.439   3.775  10.293 -0.0117 -0.1103 -0.3050
   21CHL1    H3 1482   1.459   3.883  10.311  1.7116 -0.6412  1.1075
   21CHL1    O3 1483   1.420   3.722  10.417 -0.3378  0.4091  0.3418
   21CHL1   H3' 1484   1.400   3.628  10.421 -0.4578  0.3846 -0.7665
   21CHL1    C4 1485   1.313   3.757  10.211  0.0138  0.1810 -0.0960
   21CHL1   H4A 1486   1.302   3.647  10.203  1.8422  0.0646 -1.5057
   21CHL1   H4B 1487   1.223   3.797  10.263  1.1612  2.1129  0.4755
   21CHL1    C5 1488   1.329   3.826  10.078  0.2297  0.6649  1.1665
   21CHL1    C6 1489   1.247   3.929  10.048 -0.0293  0.1912  0.5415
   21CHL1    H6 1490   1.166   3.948  10.120 -0.7120 -0.1755 -0.1184
   21CHL1    C7 1491   1.253   3.995   9.917 -0.3547  0.3491 -0.5355
   21CHL1   H7A 1492   1.152   4.035   9.896 -0.7497 -1.1426 -1.5699
   21CHL1   H7B 1493   1.320   4.083   9.926  0.2388 -0.0971 -0.5351
   21CHL1    C8 1494   1.322   3.902   9.817 -0.0115  0.4767  0.1946
   21CHL1    H8 1495   1.253   3.817   9.795 -2.4261  2.1962  0.8375
   21CHL1   C14 1496   1.331   3.978   9.685 -0.1237  0.0266  0.5885
   21CHL1   H14 1497   1.409   4.055   9.703  0.0880 -0.4507  1.7432
   21CHL1   C15 1498   1.207   4.053   9.639  0.3091  0.5164 -0.3804
   21CHL1  H15A 1499   1.115   3.991   9.636  1.1884 -0.7662 -1.1172
   21CHL1  H15B 1500   1.187   4.141   9.705 -1.7128  0.0020 -0.2674
   21CHL1   C16 1501   1.246   4.082   9.494 -0.2121 -0.6198  0.4081
   21CHL1  H16A 1502   1.169   4.039   9.427 -2.1201  2.5564  0.4368
   21CHL1  H16B 1503   1.239   4.193   9.486 -0.0344 -0.6139  0.3487
   21CHL1   C17 1504   1.385   4.026   9.466  0.2742  0.3044  0.9118
   21CHL1   H17 1505   1.461   4.104   9.489  0.5988  0.1170  0.4834
   21CHL1   C13 1506   1.395   3.907   9.563 -0.0774 -0.6679 -1.2381
   21CHL1   C18 1507   1.306   3.795   9.516 -0.1549 -0.3544  0.1503
   21CHL1  H18A 1508   1.318   3.708   9.584 -0.3248 -2.0758 -1.9982
   21CHL1  H18B 1509   1.196   3.807   9.521  0.0210  1.1924  0.7115
   21CHL1  H18C 1510   1.327   3.753   9.416  2.4040  2.0578 -0.3793
   21CHL1   C12 1511   1.526   3.864   9.617 -0.4543  0.0188  0.3531
   21CHL1  H12A 1512   1.566   3.798   9.537  2.1880  2.4414 -0.4058
   21CHL1  H12B 1513   1.586   3.958   9.614 -0.3528 -0.0775 -1.3293
   21CHL1   C11 1514   1.522   3.789   9.751 -0.4642 -0.0377  0.6856
   21CHL1  H11A 1515   1.478   3.690   9.730 -0.5879 -0.3082  2.1893
   21CHL1  H11B 1516   1.630   3.780   9.778  0.8470  1.3695 -3.6262
   21CHL1    C9 1517   1.460   3.859   9.863 -0.0178 -0.0811  0.3878
   21CHL1    H9 1518   1.513   3.955   9.883 -0.2108  0.3028 -0.9353
   21CHL1   C10 1519   1.449   3.779   9.995  0.0640 -0.5389 -1.0259
   21CHL1   C19 1520   1.441   3.624   9.969 -0.0421 -0.6724 -0.6870
   21CHL1  H19A 1521   1.542   3.602   9.929  0.5675  0.7014  0.0474
   21CHL1  H19B 1522   1.431   3.560  10.059  3.6878 -2.0258 -1.1599
   21CHL1  H19C 1523   1.364   3.611   9.890  0.4085  0.0688 -1.2540
   21CHL1    C1 1524   1.573   3.796  10.080  0.4712 -0.8424 -0.1534
   21CHL1   H1A 1525   1.657   3.759  10.017 -1.7694 -5.2894 -0.7289
   21CHL1   H1B 1526   1.601   3.901  10.101 -1.4395 -0.5371  1.0329
   21CHL1    C2 1527   1.569   3.724  10.221  0.1043 -0.9024 -0.1456
   21CHL1   H2A 1528   1.651   3.764  10.284 -2.5264  1.3753  1.9749
   21CHL1   H2B 1529   1.573   3.613  10.213  0.0465 -0.7709 -2.2967
   21CHL1   C20 1530   1.409   3.996   9.314 -0.4229  0.6136  0.0105
   21CHL1   H20 1531   1.328   3.930   9.277  0.8445 -0.8757 -0.1475
   21CHL1   C21 1532   1.536   3.913   9.288 -0.2481  0.0219 -0.3678
   21CHL1  H21A 1533   1.625   3.965   9.331 -0.0809 -0.4219 -0.1712
   21CHL1  H21B 1534   1.558   3.901   9.179  2.0886 -0.8808  0.1637
   21CHL1  H21C 1535   1.524   3.811   9.331  0.4392  0.2162  0.2894
   21CHL1   C22 1536   1.415   4.121   9.228  0.2039  0.0455  0.2191
   21CHL1  H22A 1537   1.317   4.170   9.245  0.0950 -0.9315  2.7363
   21CHL1  H22B 1538   1.495   4.193   9.256  0.3202  0.0192 -0.0414
   21CHL1   C23 1539   1.419   4.097   9.075  0.1655  1.0284 -0.1868
   21CHL1  H23A 1540   1.517   4.060   9.038 -1.5150 -1.3553 -2.4502
   21CHL1  H23B 1541   1.349   4.012   9.061 -0.1825  1.7455 -3.0297
   21CHL1   C24 1542   1.366   4.215   8.993 -0.2867  0.6313 -0.1453
   21CHL1  H24A 1543   1.271   4.243   9.044  0.4840  1.6081  0.7683
   21CHL1  H24B 1544   1.442   4.296   8.992 -2.0577  2.3337 -1.1187
   21CHL1   C25 1545   1.307   4.180   8.850  0.3308  0.6708  0.0427
   21CHL1   H25 1546   1.392   4.123   8.806  0.8478  2.0211 -0.7460
   21CHL1   C26 1547   1.177   4.100   8.858  0.1051 -0.4997  0.4905
   21CHL1  H26A 1548   1.139   4.086   8.754  2.6564 -0.2150 -0.5253
   21CHL1  H26B 1549   1.201   3.997   8.892  1.5070 -0.2133  0.3750
   21CHL1  H26C 1550   1.100   4.151   8.920  0.5611  1.0793 -0.2268
   21CHL1   C27 1551   1.277   4.312   8.783  0.9136  0.6667  0.3692
   21CHL1  H27A 1552   1.364   4.381   8.777  1.1743  0.2417 -0.7257
   21CHL1  H27B 1553   1.241   4.296   8.679  0.0616 -0.8227  0.8840
   21CHL1  H27C 1554   1.201   4.371   8.838  0.4372  0.8081 -0.4365
   22CHL1    C3 1555   0.672   4.922   9.985 -1.0116 -0.7873 -0.0567
   22CHL1    H3 1556   0.746   4.998   9.951  0.8204 -3.2620 -1.8022
   22CHL1    O3 1557   0.685   4.931  10.122  0.4775 -0.1266  0.1959
   22CHL1   H3' 1558   0.702   4.837  10.135  0.5387 -0.3331 -1.3232
   22CHL1    C4 1559   0.523   4.968   9.954  0.1081 -0.2296 -0.5084
   22CHL1   H4A 1560   0.450   4.900  10.002 -0.4258  0.2394 -0.6626
   22CHL1   H4B 1561   0.510   5.066  10.003 -0.9745 -0.9694  0.7117
   22CHL1    C5 1562   0.519   4.953   9.803 -0.0675 -0.5457  1.0683
   22CHL1    C6 1563   0.476   5.065   9.743 -0.0503  0.2628 -0.6980
   22CHL1    H6 1564   0.453   5.153   9.806 -1.8148  0.0900 -1.0619
   22CHL1    C7 1565   0.455   5.076   9.594 -0.5560  0.6018 -0.2975
   22CHL1   H7A 1566   0.361   5.131   9.569  0.3126  2.4366  0.4655
   22CHL1   H7B 1567   0.535   5.142   9.555  0.3931  0.0760  0.7335
   22CHL1    C8 1568   0.453   4.937   9.524 -0.1269 -0.0121 -0.4531
   22CHL1    H8 1569   0.357   4.883   9.542  0.5709 -0.8237  0.9513
   22CHL1   C14 1570   0.472   4.963   9.380  0.6870 -0.2782  0.6208
   22CHL1   H14 1571   0.570   5.015   9.376  1.3859 -1.4629  1.9749
   22CHL1   C15 1572   0.370   5.060   9.315 -0.3919 -0.1286 -0.0284
   22CHL1  H15A 1573   0.268   5.040   9.353 -0.4566  0.9705  0.3635
   22CHL1  H15B 1574   0.396   5.163   9.345 -0.8640 -0.5025  1.6751
   22CHL1   C16 1575   0.394   5.028   9.160  0.5184 -0.4133 -0.5791
   22CHL1  H16A 1576   0.293   5.011   9.115  0.9421 -1.5871 -1.1176
   22CHL1  H16B 1577   0.445   5.109   9.105  1.4086 -1.0591 -0.7233
   22CHL1   C17 1578   0.495   4.908   9.153  0.1171 -0.1499  1.2844
   22CHL1   H17 1579   0.599   4.944   9.147  0.2355 -0.6369  0.3591
   22CHL1   C13 1580   0.484   4.841   9.290  0.1970 -1.2209  0.0758
   22CHL1   C18 1581   0.363   4.753   9.303  0.2462  0.1824 -0.5005
   22CHL1  H18A 1582   0.276   4.818   9.282 -0.3936 -0.6349 -0.4231
   22CHL1  H18B 1583   0.372   4.659   9.244 -2.1089 -0.6582  0.4185
   22CHL1  H18C 1584   0.356   4.720   9.409  0.1723  0.1632 -0.5100
   22CHL1   C12 1585   0.608   4.756   9.338  0.2944 -0.6774 -0.2674
   22CHL1  H12A 1586   0.619   4.665   9.276  0.6909 -0.3166 -0.7421
   22CHL1  H12B 1587   0.704   4.812   9.329 -0.0869  0.1283  0.6151
   22CHL1   C11 1588   0.595   4.725   9.487 -0.1424  0.6031  0.3355
   22CHL1  H11A 1589   0.518   4.649   9.513 -0.0710 -0.1140 -1.4905
   22CHL1  H11B 1590   0.693   4.682   9.516 -0.6107  0.4260  1.7102
   22CHL1    C9 1591   0.574   4.851   9.573  0.4053 -0.5286 -0.4985
   22CHL1    H9 1592   0.669   4.907   9.562  0.0551  0.1934  0.1318
   22CHL1   C10 1593   0.567   4.825   9.728 -0.3812  0.3079 -0.4319
   22CHL1   C19 1594   0.454   4.718   9.753 -0.3737 -0.0879 -0.0823
   22CHL1  H19A 1595   0.372   4.721   9.678 -1.0572  0.0279  0.6680
   22CHL1  H19B 1596   0.500   4.619   9.730 -1.6199 -0.8725  0.7296
   22CHL1  H19C 1597   0.410   4.730   9.854  0.7648  0.0597  0.3959
   22CHL1    C1 1598   0.707   4.781   9.781  0.7207  0.0215 -0.7028
   22CHL1   H1A 1599   0.729   4.686   9.727  2.6020 -0.1550  0.3362
   22CHL1   H1B 1600   0.778   4.858   9.745 -0.7247  0.7018 -2.1615
   22CHL1    C2 1601   0.707   4.784   9.937 -0.1520 -0.2117 -0.3846
   22CHL1   H2A 1602   0.805   4.749   9.976  0.6477  0.6147 -1.6127
   22CHL1   H2B 1603   0.637   4.707   9.975 -0.5702  0.7386  0.8032
   22CHL1   C20 1604   0.460   4.825   9.030  0.1180  0.0877  0.4061
   22CHL1   H20 1605   0.356   4.787   9.032 -0.0777  0.1556 -3.6419
   22CHL1   C21 1606   0.566   4.711   9.016 -0.4214 -0.7403  0.8503
   22CHL1  H21A 1607   0.559   4.629   9.090 -0.7345 -1.9754 -0.5178
   22CHL1  H21B 1608   0.666   4.755   9.038 -1.8531  2.5354  1.0455
   22CHL1  H21C 1609   0.559   4.671   8.912 -1.3401 -1.6772  1.2658
   22CHL1   C22 1610   0.469   4.915   8.901  0.1044 -0.0249 -0.0646
   22CHL1  H22A 1611   0.411   5.008   8.917 -2.0067 -1.2490 -0.4714
   22CHL1  H22B 1612   0.576   4.944   8.893 -0.3334  1.6864  0.2406
   22CHL1   C23 1613   0.408   4.836   8.774 -0.4422 -0.4007  0.0353
   22CHL1  H23A 1614   0.473   4.748   8.759 -1.2712 -0.8615 -0.8753
   22CHL1  H23B 1615   0.312   4.793   8.810  1.3390 -1.5676  3.6086
   22CHL1   C24 1616   0.386   4.922   8.642  0.1814 -0.2529  0.1243
   22CHL1  H24A 1617   0.327   5.015   8.658  0.5156 -0.0104 -0.0470
   22CHL1  H24B 1618   0.487   4.949   8.604  0.9176  0.3078  2.3871
   22CHL1   C25 1619   0.310   4.840   8.537  0.4458  0.0634 -0.1926
   22CHL1   H25 1620   0.350   4.737   8.531 -2.1109 -1.0983  1.5398
   22CHL1   C26 1621   0.163   4.820   8.585  1.0101 -0.1125  0.1791
   22CHL1  H26A 1622   0.107   4.912   8.610  0.6204 -0.8144  1.9878
   22CHL1  H26B 1623   0.108   4.766   8.506 -0.6092 -0.0843  1.2626
   22CHL1  H26C 1624   0.169   4.742   8.664 -1.0099 -2.6429 -2.0969
   22CHL1   C27 1625   0.326   4.894   8.396 -0.3504  0.3214  0.5936
   22CHL1  H27A 1626   0.296   5.001   8.390  0.9792  0.6988  0.3688
   22CHL1  H27B 1627   0.429   4.888   8.354 -0.6334 -2.2521  0.1553
   22CHL1  H27C 1628   0.257   4.838   8.329  1.0671 -1.4183  0.5280
   23CHL1    C3 1629   3.650   6.186  10.255 -0.5301  0.8926 -0.3566
   23CHL1    H3 1630   3.669   6.284  10.205 -0.6477  1.0353 -0.1228
   23CHL1    O3 1631   3.616   6.197  10.393  0.4005  0.3384  0.1623
   23CHL1   H3' 1632   3.645   6.116  10.436 -2.5893 -1.6138 -1.3650
   23CHL1    C4 1633   3.530   6.125  10.171  0.0544  0.0784 -0.6444
   23CHL1   H4A 1634   3.494   6.026  10.208 -0.6284  1.1846  1.7555
   23CHL1   H4B 1635   3.440   6.190  10.182 -1.2010 -1.6804 -0.2711
   23CHL1    C5 1636   3.571   6.104  10.030 -0.3532  0.7738  0.1252
   23CHL1    C6 1637   3.490   6.143   9.931 -0.0593 -0.2567 -1.0496
   23CHL1    H6 1638   3.389   6.175   9.959 -0.2225 -1.2488 -0.4639
   23CHL1    C7 1639   3.519   6.113   9.783 -0.1154 -0.4686  0.5302
   23CHL1   H7A 1640   3.428   6.074   9.732 -1.2769  1.3448  1.1982
   23CHL1   H7B 1641   3.537   6.207   9.726 -5.2835 -0.0166 -0.6129
   23CHL1    C8 1642   3.643   6.027   9.762 -0.1651  0.0964 -0.2830
   23CHL1    H8 1643   3.607   5.923   9.780  1.2012 -0.4182 -0.4922
   23CHL1   C14 1644   3.691   6.035   9.622  0.1023 -0.1902  0.2567
   23CHL1   H14 1645   3.719   6.141   9.606 -2.0508  0.2591 -0.7045
   23CHL1   C15 1646   3.584   6.004   9.512 -0.4529  0.1432 -0.1051
   23CHL1  H15A 1647   3.510   5.930   9.548 -1.7494  0.7761 -1.4005
   23CHL1  H15B 1648   3.525   6.095   9.488  0.2234  1.0923  1.7685
   23CHL1   C16 1649   3.670   5.959   9.395  0.2183 -0.2373 -0.5246
   23CHL1  H16A 1650   3.643   5.857   9.361 -1.2606 -1.6883  4.5454
   23CHL1  H16B 1651   3.657   6.046   9.327 -0.9418 -0.6563 -0.8455
   23CHL1   C17 1652   3.821   5.951   9.449  0.6100  0.5207 -0.2373
   23CHL1   H17 1653   3.871   6.048   9.426 -0.2587  1.7905  2.8851
   23CHL1   C13 1654   3.809   5.939   9.602 -0.2129 -0.1829  0.3405
   23CHL1   C18 1655   3.779   5.794   9.640 -0.0518  0.7504 -0.3238
   23CHL1  H18A 1656   3.872   5.733   9.629 -0.7388 -0.2340 -0.8485
   23CHL1  H18B 1657   3.753   5.784   9.747  0.6846 -2.0074 -0.3495
   23CHL1  H18C 1658   3.696   5.751   9.580  1.1425  1.1871 -2.3622
   23CHL1   C12 1659   3.924   5.997   9.683  0.7576 -0.0167  0.2300
   23CHL1  H12A 1660   4.015   5.932   9.678  1.7721  1.1539  2.6020
   23CHL1  H12B 1661   3.949   6.100   9.650  0.4927 -0.1523 -0.4166
   23CHL1   C11 1662   3.890   5.986   9.835 -0.0499 -0.7475  0.1682
   23CHL1  H11A 1663   3.890   5.881   9.871 -0.2712 -0.6484  0.4580
   23CHL1  H11B 1664   3.980   6.020   9.891  0.4912 -0.5175 -0.8104
   23CHL1    C9 1665   3.752   6.051   9.868 -0.4069  0.0061 -0.0659
   23CHL1    H9 1666   3.761   6.161   9.857  0.1918  0.0439  0.8025
   23CHL1   C10 1667   3.708   6.029  10.017 -0.8835 -0.2005 -0.5717
   23CHL1   C19 1668   3.679   5.879  10.057  0.3112 -1.0121 -0.1433
   23CHL1  H19A 1669   3.766   5.811  10.071  1.2394  0.3736  0.8891
   23CHL1  H19B 1670   3.623   5.872  10.152 -0.2266 -0.5410 -0.4226
   23CHL1  H19C 1671   3.606   5.834   9.986  0.7865 -1.5606 -0.2860
   23CHL1    C1 1672   3.820   6.078  10.113 -0.2248  0.6757  0.3915
   23CHL1   H1A 1673   3.899   6.000  10.116 -0.6293  0.2760  0.8415
   23CHL1   H1B 1674   3.876   6.163  10.070  1.3517 -0.1955  0.6644
   23CHL1    C2 1675   3.773   6.095  10.254 -0.6237 -0.0600 -0.2071
   23CHL1   H2A 1676   3.848   6.150  10.315  0.7213 -1.1558 -0.8526
   23CHL1   H2B 1677   3.748   5.998  10.302 -0.7018  0.0230 -0.0811
   23CHL1   C20 1678   3.906   5.844   9.373  0.0957  0.3078 -0.0850
   23CHL1   H20 1679   3.874   5.742   9.404  1.5203 -0.3960 -0.8825
   23CHL1   C21 1680   4.054   5.850   9.409  0.1447  0.2605  0.5825
   23CHL1  H21A 1681   4.091   5.955   9.408  1.2077 -0.1035  1.4244
   23CHL1  H21B 1682   4.116   5.784   9.345  0.2972  0.8833  0.0891
   23CHL1  H21C 1683   4.080   5.795   9.502  1.8931  1.1121  0.6175
   23CHL1   C22 1684   3.889   5.853   9.222 -0.0816  0.6282 -0.6703
   23CHL1  H22A 1685   3.784   5.855   9.185 -1.7186 -2.1084  3.5614
   23CHL1  H22B 1686   3.915   5.959   9.196 -0.0687  0.7626 -0.1074
   23CHL1   C23 1687   3.981   5.772   9.124  0.3496  0.1620 -0.1999
   23CHL1  H23A 1688   4.075   5.832   9.124 -0.5933  1.6591 -2.1771
   23CHL1  H23B 1689   4.013   5.670   9.155 -0.1405  0.9912  3.2651
   23CHL1   C24 1690   3.937   5.766   8.975  0.0602 -0.2180  0.8616
   23CHL1  H24A 1691   3.842   5.708   8.972 -0.3840  0.4659  1.4330
   23CHL1  H24B 1692   3.899   5.868   8.951 -0.0836  0.2337  2.9894
   23CHL1   C25 1693   4.024   5.700   8.861 -0.1470  0.2753  0.4072
   23CHL1   H25 1694   4.124   5.748   8.861 -0.0628  0.1521 -1.4187
   23CHL1   C26 1695   4.032   5.549   8.886  0.1136 -0.1920 -0.2532
   23CHL1  H26A 1696   3.928   5.510   8.891  0.2301 -0.2322  2.1691
   23CHL1  H26B 1697   4.060   5.488   8.798  0.9276 -0.8887  0.4819
   23CHL1  H26C 1698   4.087   5.517   8.977  0.0618  0.4559  0.0064
   23CHL1   C27 1699   3.969   5.735   8.723 -0.4060  0.3811  0.1846
   23CHL1  H27A 1700   3.974   5.845   8.708  4.4550  0.2021 -0.3433
   23CHL1  H27B 1701   4.021   5.681   8.641 -2.0570 -0.2714 -0.4708
   23CHL1  H27C 1702   3.861   5.708   8.723 -1.0343  2.7579 -0.8977
   24CHL1    C3 1703   5.249   0.772  10.026  0.4116  0.1310 -0.3917
   24CHL1    H3 1704   5.147   0.737  10.048 -0.6993  3.6307  0.3600
   24CHL1    O3 1705   5.303   0.788  10.160 -0.0897 -0.5926 -0.1186
   24CHL1   H3' 1706   5.372   0.855  10.160  1.1707 -1.8711  0.1325
   24CHL1    C4 1707   5.331   0.667   9.942 -0.2670 -0.1741 -0.1519
   24CHL1   H4A 1708   5.438   0.685   9.966 -0.2650  2.7572 -2.2135
   24CHL1   H4B 1709   5.294   0.574   9.992  2.2847 -2.2028 -1.8825
   24CHL1    C5 1710   5.304   0.658   9.790  0.5333 -0.4329 -0.0383
   24CHL1    C6 1711   5.286   0.542   9.718 -0.3107 -0.2395 -0.1275
   24CHL1    H6 1712   5.295   0.446   9.771  2.0052 -1.3478 -2.4457
   24CHL1    C7 1713   5.268   0.532   9.568 -0.4687  0.0471 -0.0904
   24CHL1   H7A 1714   5.335   0.457   9.522  1.4735  0.9372  1.2061
   24CHL1   H7B 1715   5.167   0.491   9.550 -1.0543  0.3935  2.2678
   24CHL1    C8 1716   5.277   0.669   9.496 -0.0410 -0.1230 -0.2696
   24CHL1    H8 1717   5.384   0.689   9.473 -0.3015  1.8879  0.1821
   24CHL1   C14 1718   5.215   0.659   9.359 -0.3064  0.2599 -0.1520
   24CHL1   H14 1719   5.111   0.621   9.371 -0.4679 -0.0781 -2.3521
   24CHL1   C15 1720   5.275   0.550   9.255  0.1972 -0.8111  0.0445
   24CHL1  H15A 1721   5.383   0.568   9.236 -0.6527  2.0872 -2.4970
   24CHL1  H15B 1722   5.242   0.448   9.283  0.2557 -0.9879 -0.5266
   24CHL1   C16 1723   5.210   0.591   9.123  0.4104 -0.9457  0.4173
   24CHL1  H16A 1724   5.288   0.602   9.045 -0.5578 -1.9283 -0.7187
   24CHL1  H16B 1725   5.133   0.522   9.081  0.2352 -1.5975  1.7676
   24CHL1   C17 1726   5.138   0.722   9.144 -0.5776  0.1340 -0.1649
   24CHL1   H17 1727   5.033   0.694   9.167 -0.7433  1.1200  0.3503
   24CHL1   C13 1728   5.203   0.785   9.275 -0.5144 -0.0064 -0.4370
   24CHL1   C18 1729   5.334   0.853   9.230 -0.4616 -0.5655 -0.8284
   24CHL1  H18A 1730   5.314   0.958   9.202 -0.3622 -0.4868 -0.6036
   24CHL1  H18B 1731   5.410   0.853   9.311  0.3412 -1.7592 -1.5577
   24CHL1  H18C 1732   5.384   0.786   9.156  0.1971 -1.2312  0.2011
   24CHL1   C12 1733   5.124   0.880   9.364 -0.0960 -0.2554  0.1315
   24CHL1  H12A 1734   5.106   0.977   9.313  1.2178  0.9709  1.9279
   24CHL1  H12B 1735   5.022   0.840   9.382 -0.7951  1.0729 -0.7413
   24CHL1   C11 1736   5.182   0.907   9.502  0.0473  0.8285  0.2257
   24CHL1  H11A 1737   5.283   0.946   9.476 -0.5781  0.9451 -2.1001
   24CHL1  H11B 1738   5.120   0.984   9.552  0.9869  2.1548 -0.6307
   24CHL1    C9 1739   5.216   0.779   9.579  0.2308 -0.2830  1.0867
   24CHL1    H9 1740   5.115   0.740   9.604  0.9889 -4.3010 -1.6383
   24CHL1   C10 1741   5.291   0.794   9.720  0.2131  0.0179 -0.2001
   24CHL1   C19 1742   5.438   0.846   9.701 -0.6287  0.0650 -0.0162
   24CHL1  H19A 1743   5.434   0.943   9.647  0.0327 -0.5012 -1.1044
   24CHL1  H19B 1744   5.482   0.859   9.802 -0.1071 -1.6164 -0.0128
   24CHL1  H19C 1745   5.491   0.776   9.633 -0.4672  0.7414 -0.5909
   24CHL1    C1 1746   5.210   0.893   9.807 -0.2248 -0.4454  0.9469
   24CHL1   H1A 1747   5.216   0.998   9.772 -3.9165 -0.9762 -1.6392
   24CHL1   H1B 1748   5.103   0.873   9.786  0.1303 -0.7778 -0.5702
   24CHL1    C2 1749   5.253   0.903   9.956  0.8759 -0.9759  0.7363
   24CHL1   H2A 1750   5.182   0.969  10.010  1.7276 -0.4591  1.2394
   24CHL1   H2B 1751   5.348   0.962   9.958 -0.1339  0.7203  0.2442
   24CHL1   C20 1752   5.131   0.812   9.011  0.4340 -0.6823 -0.0978
   24CHL1   H20 1753   5.236   0.841   8.990  0.3216  0.6741  1.1249
   24CHL1   C21 1754   5.046   0.934   9.044  0.6222 -0.5115 -0.4419
   24CHL1  H21A 1755   5.117   1.009   9.085  0.1693 -0.4980  0.3306
   24CHL1  H21B 1756   4.961   0.914   9.113  0.7291  2.7639  0.7437
   24CHL1  H21C 1757   5.006   0.984   8.954 -1.0580  0.4520  0.8118
   24CHL1   C22 1758   5.085   0.734   8.885  0.4995 -0.0001 -0.6593
   24CHL1  H22A 1759   5.120   0.629   8.879 -1.3188 -0.6862  0.3037
   24CHL1  H22B 1760   4.975   0.723   8.892  0.7143 -2.7212 -1.1281
   24CHL1   C23 1761   5.117   0.809   8.756 -0.2278  0.0698  0.2139
   24CHL1  H23A 1762   5.058   0.902   8.743 -0.1617  0.0173 -0.4837
   24CHL1  H23B 1763   5.212   0.864   8.771  0.9926 -1.4824 -1.6061
   24CHL1   C24 1764   5.134   0.725   8.626  0.3374 -0.3651 -0.2804
   24CHL1  H24A 1765   5.204   0.642   8.651  0.2643  0.4593  2.8827
   24CHL1  H24B 1766   5.036   0.684   8.593  0.6360 -1.3643  0.0493
   24CHL1   C25 1767   5.184   0.791   8.498  0.1968 -0.2697 -0.2280
   24CHL1   H25 1768   5.209   0.707   8.431  1.2730 -0.4223  0.3541
   24CHL1   C26 1769   5.073   0.872   8.428  0.5369  0.3878 -0.0181
   24CHL1  H26A 1770   5.008   0.941   8.486  0.7889  1.4432 -0.9880
   24CHL1  H26B 1771   5.111   0.925   8.338  1.3442 -0.2478 -0.0653
   24CHL1  H26C 1772   5.000   0.799   8.388  0.7006  1.2920 -1.9868
   24CHL1   C27 1773   5.314   0.874   8.514  0.1084  0.8599  1.3547
   24CHL1  H27A 1774   5.385   0.868   8.430 -0.7404  0.8232  0.6328
   24CHL1  H27B 1775   5.286   0.978   8.539 -1.2965  0.2643  2.3750
   24CHL1  H27C 1776   5.363   0.825   8.601 -1.1359 -1.1489  0.9818
   25CHL1    C3 1777   0.194   1.958  10.352 -0.0871 -0.8138  0.6591
   25CHL1    H3 1778   0.298   1.929  10.327 -0.8742 -2.5885 -0.7141
   25CHL1    O3 1779   0.179   2.009  10.480  0.4353 -0.3389 -0.0964
   25CHL1   H3' 1780   0.091   2.047  10.479  1.0666  1.3353  2.9385
   25CHL1    C4 1781   0.162   2.082  10.265  0.3834 -0.1767  0.1739
   25CHL1   H4A 1782   0.072   2.142  10.292  0.3679 -0.4182  0.6614
   25CHL1   H4B 1783   0.246   2.153  10.280 -0.7786  0.6247  3.0745
   25CHL1    C5 1784   0.161   2.041  10.118  0.0355 -1.0340 -0.6754
   25CHL1    C6 1785   0.249   2.100  10.034 -0.1238 -0.1260 -0.2004
   25CHL1    H6 1786   0.319   2.177  10.072  1.6418 -1.7097 -0.1980
   25CHL1    C7 1787   0.255   2.079   9.883  0.2510  0.5482  0.2272
   25CHL1   H7A 1788   0.257   2.175   9.827 -1.3752 -0.2020 -1.1572
   25CHL1   H7B 1789   0.348   2.030   9.849  0.3015 -0.6363  1.9872
   25CHL1    C8 1790   0.124   1.998   9.836  0.2805  0.5334 -0.1293
   25CHL1    H8 1791   0.037   2.067   9.837 -2.2456 -2.5405  1.1257
   25CHL1   C14 1792   0.154   1.945   9.696  0.2974  0.5524 -0.2268
   25CHL1   H14 1793   0.225   1.861   9.707  1.9171  1.7300 -1.3119
   25CHL1   C15 1794   0.207   2.037   9.589  0.1362 -0.3071  0.0331
   25CHL1  H15A 1795   0.140   2.126   9.585 -1.3169 -1.1527  3.5467
   25CHL1  H15B 1796   0.311   2.066   9.611  0.2311 -1.0635  0.5961
   25CHL1   C16 1797   0.192   1.959   9.459 -0.2849 -0.1973  0.0876
   25CHL1  H16A 1798   0.153   2.019   9.374 -2.4429 -0.3437  0.9248
   25CHL1  H16B 1799   0.287   1.912   9.426 -0.9268  0.0564 -2.2027
   25CHL1   C17 1800   0.087   1.842   9.487  0.3389  0.2060  0.2491
   25CHL1   H17 1801   0.143   1.745   9.487 -0.6083 -0.3507 -1.4495
   25CHL1   C13 1802   0.032   1.866   9.632 -0.4152  0.5456  0.6461
   25CHL1   C18 1803  -0.083   1.956   9.633  0.5717 -0.1772 -0.2175
   25CHL1  H18A 1804  -0.117   1.980   9.736  0.0027 -2.2392  0.1002
   25CHL1  H18B 1805  -0.057   2.048   9.576  0.8064 -1.8183 -2.8523
   25CHL1  H18C 1806  -0.166   1.906   9.578 -1.2970  1.3373  1.1521
   25CHL1   C12 1807  -0.006   1.746   9.726 -0.5538  0.2742  0.2398
   25CHL1  H12A 1808  -0.107   1.712   9.695  0.3805 -0.9248 -1.6014
   25CHL1  H12B 1809   0.071   1.665   9.725 -1.4474 -0.5642 -0.6788
   25CHL1   C11 1810  -0.027   1.788   9.875  1.2463  0.2092  0.4367
   25CHL1  H11A 1811  -0.129   1.820   9.904  0.6164 -2.3499  1.1531
   25CHL1  H11B 1812  -0.022   1.696   9.937  1.2883  1.4494  2.3112
   25CHL1    C9 1813   0.090   1.880   9.933  0.4406  0.5117 -0.3543
   25CHL1    H9 1814   0.186   1.825   9.932  0.3145  0.2658  0.8103
   25CHL1   C10 1815   0.064   1.929  10.080  1.0788 -0.1211  0.3433
   25CHL1   C19 1816  -0.081   1.983  10.095  0.3355 -0.1679 -0.0604
   25CHL1  H19A 1817  -0.103   2.069  10.027  2.0970  0.2162 -0.1972
   25CHL1  H19B 1818  -0.153   1.902  10.073 -0.6368  0.5887  0.2995
   25CHL1  H19C 1819  -0.095   2.027  10.196  1.1525 -0.6868  0.2863
   25CHL1    C1 1820   0.091   1.809  10.184  0.0086  0.1438 -0.3656
   25CHL1   H1A 1821   0.002   1.747  10.159  0.0628 -0.2374  0.3798
   25CHL1   H1B 1822   0.178   1.752  10.146  0.3532  0.0436  0.5767
   25CHL1    C2 1823   0.093   1.843  10.330  0.4975  0.4661 -0.5363
   25CHL1   H2A 1824   0.129   1.753  10.384  2.3974 -0.0446 -2.5392
   25CHL1   H2B 1825  -0.002   1.867  10.381  0.8148 -2.7422  1.7508
   25CHL1   C20 1826  -0.012   1.805   9.375  0.3396 -0.4785 -0.1229
   25CHL1   H20 1827  -0.088   1.886   9.368  1.5970  0.8737  1.5386
   25CHL1   C21 1828  -0.086   1.680   9.412 -0.2617 -0.0109  0.5580
   25CHL1  H21A 1829  -0.161   1.654   9.335  0.4533 -0.0782 -0.1244
   25CHL1  H21B 1830  -0.158   1.682   9.497  0.2604 -0.3252  1.0147
   25CHL1  H21C 1831  -0.014   1.596   9.423 -0.4375  0.1005  3.0245
   25CHL1   C22 1832   0.058   1.781   9.234 -0.2634 -0.1095 -0.0131
   25CHL1  H22A 1833   0.123   1.869   9.214  1.1001 -1.4142 -1.3735
   25CHL1  H22B 1834   0.126   1.695   9.249  2.4062  1.6441 -1.6408
   25CHL1   C23 1835  -0.060   1.778   9.135 -0.2983 -0.6472  0.6492
   25CHL1  H23A 1836  -0.116   1.682   9.140 -3.1720  0.9624  0.6532
   25CHL1  H23B 1837  -0.133   1.859   9.154 -0.3267 -0.3925 -0.5133
   25CHL1   C24 1838  -0.005   1.775   9.001  0.9900  0.0854  0.3503
   25CHL1  H24A 1839   0.078   1.847   8.984 -0.3391  1.5427 -0.1258
   25CHL1  H24B 1840   0.040   1.677   8.977  1.1833  0.2203  0.1595
   25CHL1   C25 1841  -0.102   1.797   8.887 -0.3604 -0.4585 -0.7350
   25CHL1   H25 1842  -0.178   1.719   8.909 -1.3041  0.4325 -0.8331
   25CHL1   C26 1843  -0.174   1.929   8.874 -0.0854  0.3955 -0.2205
   25CHL1  H26A 1844  -0.256   1.923   8.949 -2.1131 -1.5728 -2.4961
   25CHL1  H26B 1845  -0.108   2.015   8.897  0.4506 -0.3816  1.2373
   25CHL1  H26C 1846  -0.218   1.942   8.773  0.8148  1.4187 -0.4820
   25CHL1   C27 1847  -0.028   1.767   8.757  0.6760  0.6281 -0.3410
   25CHL1  H27A 1848   0.037   1.854   8.735  2.5277 -0.9876 -1.3481
   25CHL1  H27B 1849   0.036   1.678   8.770 -2.7023 -1.6572  1.3337
   25CHL1  H27C 1850  -0.099   1.739   8.676  0.7172 -1.1577  0.2123
   26CHL1    C3 1851   1.626   4.513  10.181 -0.5086  0.3220 -0.0943
   26CHL1    H3 1852   1.732   4.482  10.169 -0.5620  0.4297 -0.8767
   26CHL1    O3 1853   1.602   4.503  10.319  0.5347 -0.2947  0.6513
   26CHL1   H3' 1854   1.523   4.553  10.343 -0.0441 -0.6292 -0.5157
   26CHL1    C4 1855   1.609   4.660  10.130 -0.0906 -0.0189 -0.2342
   26CHL1   H4A 1856   1.513   4.708  10.159 -0.4483 -0.0748 -1.2874
   26CHL1   H4B 1857   1.676   4.725  10.189 -1.5604  0.6895  0.6987
   26CHL1    C5 1858   1.609   4.672   9.982  0.2744 -0.4486 -0.3617
   26CHL1    C6 1859   1.691   4.762   9.923 -0.0475 -0.6705  0.1073
   26CHL1    H6 1860   1.749   4.828   9.988 -0.4895  1.5430 -1.6715
   26CHL1    C7 1861   1.698   4.785   9.774  0.1176  0.4784 -0.4932
   26CHL1   H7A 1862   1.687   4.894   9.753 -0.0513  0.7752  1.0741
   26CHL1   H7B 1863   1.792   4.747   9.729 -0.6780  1.9088 -3.4802
   26CHL1    C8 1864   1.581   4.708   9.698 -0.4798  0.5582 -0.0480
   26CHL1    H8 1865   1.488   4.768   9.699  0.1300  1.5128  0.9544
   26CHL1   C14 1866   1.611   4.708   9.544  0.0097 -0.6147  0.3584
   26CHL1   H14 1867   1.707   4.655   9.528  0.7087  0.6234  0.3262
   26CHL1   C15 1868   1.616   4.841   9.477  0.2490 -0.1577  0.2722
   26CHL1  H15A 1869   1.530   4.906   9.505 -0.7539 -0.3443 -2.3231
   26CHL1  H15B 1870   1.706   4.905   9.493 -1.0956  1.8898 -0.2429
   26CHL1   C16 1871   1.597   4.821   9.323 -0.7900  1.0167  0.2676
   26CHL1  H16A 1872   1.509   4.885   9.298 -1.9147  0.0220  1.5866
   26CHL1  H16B 1873   1.687   4.831   9.260 -1.0227 -0.9690 -0.3932
   26CHL1   C17 1874   1.556   4.667   9.312 -0.0362 -0.5170 -0.1792
   26CHL1   H17 1875   1.642   4.603   9.285  0.3337  0.7073 -2.0189
   26CHL1   C13 1876   1.511   4.630   9.456 -0.3599 -0.0273  0.0044
   26CHL1   C18 1877   1.369   4.692   9.472  0.1673  0.2301  0.3756
   26CHL1  H18A 1878   1.349   4.792   9.428 -2.5907 -0.4502 -0.0030
   26CHL1  H18B 1879   1.287   4.633   9.426  0.2057  2.0193 -2.0849
   26CHL1  H18C 1880   1.344   4.698   9.580 -1.5745  1.0266 -0.0595
   26CHL1   C12 1881   1.505   4.485   9.508 -0.7733 -0.0393 -0.2830
   26CHL1  H12A 1882   1.427   4.420   9.464 -1.7864  0.4133  0.8253
   26CHL1  H12B 1883   1.599   4.435   9.478 -0.8737  0.1013 -0.8397
   26CHL1   C11 1884   1.469   4.479   9.663 -0.0362  0.1310  0.0601
   26CHL1  H11A 1885   1.365   4.516   9.672  0.4383  1.6951 -0.8016
   26CHL1  H11B 1886   1.458   4.377   9.707 -1.0866  0.2955  0.1769
   26CHL1    C9 1887   1.560   4.560   9.752  0.5868  0.0066  0.0281
   26CHL1    H9 1888   1.660   4.513   9.742  0.5549 -0.0596  0.0206
   26CHL1   C10 1889   1.524   4.562   9.910  0.1404  0.2757  0.2198
   26CHL1   C19 1890   1.375   4.597   9.924  0.1735 -0.3592 -0.7522
   26CHL1  H19A 1891   1.355   4.616  10.032 -1.0266  0.9609 -1.2004
   26CHL1  H19B 1892   1.368   4.690   9.864 -0.6361  0.5965  0.7962
   26CHL1  H19C 1893   1.307   4.519   9.884 -1.5517 -1.2427  3.6092
   26CHL1    C1 1894   1.552   4.421   9.966 -0.5726  0.1098 -0.4610
   26CHL1   H1A 1895   1.489   4.345   9.914 -0.1971 -1.5764  1.4361
   26CHL1   H1B 1896   1.655   4.387   9.943  0.9204  2.1990  2.7771
   26CHL1    C2 1897   1.523   4.419  10.121  0.3526 -0.0266 -0.9693
   26CHL1   H2A 1898   1.542   4.313  10.148 -2.8221 -0.6725 -1.0826
   26CHL1   H2B 1899   1.421   4.456  10.142  1.1980  1.1508  1.2210
   26CHL1   C20 1900   1.453   4.645   9.199  0.8457 -0.5112 -0.3702
   26CHL1   H20 1901   1.365   4.709   9.219 -0.1625 -1.8136 -0.5213
   26CHL1   C21 1902   1.410   4.500   9.204 -0.0114  0.1465 -0.2291
   26CHL1  H21A 1903   1.497   4.431   9.198  0.3540  0.7121 -1.4615
   26CHL1  H21B 1904   1.351   4.469   9.115 -0.5204 -0.2822  0.2492
   26CHL1  H21C 1905   1.340   4.472   9.286 -0.4541  0.6676 -0.4253
   26CHL1   C22 1906   1.501   4.680   9.062 -0.4191 -0.3746 -0.1468
   26CHL1  H22A 1907   1.559   4.775   9.058  1.5893 -1.6142 -1.8692
   26CHL1  H22B 1908   1.579   4.605   9.038  0.7152  0.7780 -0.1399
   26CHL1   C23 1909   1.402   4.683   8.939 -0.0010  0.1916 -0.1799
   26CHL1  H23A 1910   1.339   4.592   8.934  0.1686  0.0544  0.1986
   26CHL1  H23B 1911   1.340   4.773   8.961 -0.1267  0.3551 -1.1883
   26CHL1   C24 1912   1.481   4.701   8.814 -0.2816 -0.3105 -0.3338
   26CHL1  H24A 1913   1.533   4.798   8.825  2.6693 -1.8072 -0.7607
   26CHL1  H24B 1914   1.569   4.634   8.804  0.9957  1.3767 -0.5372
   26CHL1   C25 1915   1.396   4.702   8.683 -0.2980  0.0815 -0.5340
   26CHL1   H25 1916   1.378   4.594   8.667  0.6769  0.0301 -1.3443
   26CHL1   C26 1917   1.270   4.782   8.678 -0.7389  0.6893  0.4806
   26CHL1  H26A 1918   1.205   4.730   8.752  0.0819  0.3235  0.9490
   26CHL1  H26B 1919   1.271   4.892   8.691 -2.7046  0.8121 -0.1300
   26CHL1  H26C 1920   1.236   4.773   8.572  3.2509  0.6786 -0.8853
   26CHL1   C27 1921   1.492   4.740   8.570 -0.5352 -0.5277  0.1091
   26CHL1  H27A 1922   1.435   4.750   8.474 -0.4028  1.3346  0.2107
   26CHL1  H27B 1923   1.538   4.840   8.582 -0.8147 -0.3852 -0.0024
   26CHL1  H27C 1924   1.575   4.667   8.563 -0.0044  0.0155  0.7488
   27CHL1    C3 1925   0.644   1.773  10.307 -0.5843  0.1320 -0.5355
   27CHL1    H3 1926   0.646   1.884  10.312  2.6866  0.1187 -0.5042
   27CHL1    O3 1927   0.605   1.732  10.436 -0.2127  0.1704 -1.1651
   27CHL1   H3' 1928   0.621   1.638  10.442 -1.0984  0.1050  0.5525
   27CHL1    C4 1929   0.541   1.721  10.204 -0.6493 -0.7855  0.0869
   27CHL1   H4A 1930   0.517   1.614  10.224  1.4306 -1.4501 -0.8426
   27CHL1   H4B 1931   0.442   1.762  10.233 -1.2139 -0.7622 -1.8196
   27CHL1    C5 1932   0.581   1.732  10.059 -0.0922 -0.4740  0.0964
   27CHL1    C6 1933   0.507   1.793   9.970  0.2903 -0.1223 -0.0677
   27CHL1    H6 1934   0.416   1.843  10.004  1.6895  2.1564  0.4235
   27CHL1    C7 1935   0.542   1.788   9.821 -0.2183  0.2591  0.3098
   27CHL1   H7A 1936   0.451   1.766   9.761  0.6576 -2.1481 -0.2155
   27CHL1   H7B 1937   0.585   1.883   9.783 -0.6076  0.4183  0.2746
   27CHL1    C8 1938   0.655   1.691   9.791 -0.2241 -0.2266  0.0407
   27CHL1    H8 1939   0.615   1.588   9.789 -0.0173 -0.2941 -0.7663
   27CHL1   C14 1940   0.701   1.724   9.651 -0.6927  0.4020  0.7523
   27CHL1   H14 1941   0.761   1.817   9.649  1.5782 -1.0512  0.5668
   27CHL1   C15 1942   0.606   1.729   9.530 -0.3335 -0.1792  0.3179
   27CHL1  H15A 1943   0.526   1.653   9.544 -0.9275  0.4744  0.4966
   27CHL1  H15B 1944   0.544   1.822   9.529  1.1337  0.8305  1.1686
   27CHL1   C16 1945   0.697   1.717   9.414  0.3510 -0.4672 -0.1274
   27CHL1  H16A 1946   0.653   1.642   9.345 -0.8894  1.1980 -1.1596
   27CHL1  H16B 1947   0.706   1.817   9.367  0.6872  0.2323  1.3739
   27CHL1   C17 1948   0.840   1.683   9.461  0.1716 -0.7193  0.1786
   27CHL1   H17 1949   0.897   1.776   9.481 -2.0058  1.4119 -2.9490
   27CHL1   C13 1950   0.818   1.627   9.606  0.4793 -0.4495  0.1905
   27CHL1   C18 1951   0.763   1.484   9.596  0.0363  0.0629 -0.9069
   27CHL1  H18A 1952   0.851   1.418   9.578  0.5896  0.3541  0.6546
   27CHL1  H18B 1953   0.717   1.449   9.691  0.2722  0.2508 -0.7231
   27CHL1  H18C 1954   0.691   1.485   9.511 -0.6833 -0.8228 -0.3131
   27CHL1   C12 1955   0.933   1.636   9.704  0.0940  0.4987 -0.2499
   27CHL1  H12A 1956   1.013   1.567   9.672  0.0683  0.5242 -0.3673
   27CHL1  H12B 1957   0.984   1.734   9.698 -2.4632  1.8179 -1.3677
   27CHL1   C11 1958   0.892   1.616   9.851 -0.1198 -0.0626  0.6800
   27CHL1  H11A 1959   0.859   1.510   9.847 -0.9503  0.2220 -0.1314
   27CHL1  H11B 1960   0.980   1.603   9.917 -0.5338 -0.2579  1.1985
   27CHL1    C9 1961   0.768   1.699   9.895 -0.6113  0.0463 -0.0880
   27CHL1    H9 1962   0.795   1.806   9.905  1.7256 -0.6157  1.2220
   27CHL1   C10 1963   0.716   1.663  10.036  0.5070  0.4613  0.0574
   27CHL1   C19 1964   0.702   1.513  10.048  0.5997 -0.1806 -0.3093
   27CHL1  H19A 1965   0.801   1.466  10.033  0.5560 -0.1154 -0.8154
   27CHL1  H19B 1966   0.654   1.484  10.144 -0.3998  0.7680 -0.5073
   27CHL1  H19C 1967   0.641   1.480   9.961 -2.3089  1.9098  0.8473
   27CHL1    C1 1968   0.813   1.722  10.140 -0.0898  0.1536 -0.5393
   27CHL1   H1A 1969   0.914   1.679  10.120  1.4713  3.7599 -0.7845
   27CHL1   H1B 1970   0.831   1.829  10.117  0.9860 -0.0715 -0.7927
   27CHL1    C2 1971   0.779   1.699  10.291  0.4054  0.0164 -0.2116
   27CHL1   H2A 1972   0.852   1.748  10.358 -0.7851  0.9879  0.4111
   27CHL1   H2B 1973   0.781   1.590  10.312  0.9925  0.0929  0.1333
   27CHL1   C20 1974   0.912   1.601   9.350 -0.5045  0.0119 -0.1201
   27CHL1   H20 1975   0.848   1.517   9.315  0.2048 -0.6041  0.0503
   27CHL1   C21 1976   1.049   1.548   9.411 -0.3755  0.0442  0.2764
   27CHL1  H21A 1977   1.113   1.637   9.430  1.4070 -0.6683 -2.1099
   27CHL1  H21B 1978   1.107   1.491   9.335  1.5006  1.0814  0.8962
   27CHL1  H21C 1979   1.028   1.483   9.499 -0.3873 -0.0818  0.1819
   27CHL1   C22 1980   0.921   1.676   9.212  0.1783  0.5671  0.4437
   27CHL1  H22A 1981   0.828   1.710   9.161 -0.2702 -0.2379  0.7102
   27CHL1  H22B 1982   0.988   1.764   9.226 -0.7558  1.1597  1.2458
   27CHL1   C23 1983   0.988   1.591   9.098 -0.5165 -0.0275  0.9130
   27CHL1  H23A 1984   1.097   1.601   9.119 -0.7780  0.6295  2.0243
   27CHL1  H23B 1985   0.959   1.485   9.114 -0.6866 -0.4045 -1.6534
   27CHL1   C24 1986   0.952   1.625   8.956  0.0388 -0.2995 -0.0595
   27CHL1  H24A 1987   0.968   1.734   8.947  2.5783 -0.7155 -1.2717
   27CHL1  H24B 1988   1.023   1.573   8.888 -0.0659  0.2947 -0.6262
   27CHL1   C25 1989   0.812   1.595   8.907  1.1781 -0.0195 -0.8726
   27CHL1   H25 1990   0.749   1.658   8.974  0.4464 -0.8675 -0.7565
   27CHL1   C26 1991   0.797   1.649   8.768  0.2032  0.4435  0.1963
   27CHL1  H26A 1992   0.701   1.620   8.718  0.7637  1.2176 -1.3848
   27CHL1  H26B 1993   0.803   1.760   8.772  0.1409  0.3770  2.2565
   27CHL1  H26C 1994   0.868   1.610   8.692 -1.9526 -4.1731  0.3823
   27CHL1   C27 1995   0.779   1.447   8.900  0.1264 -0.6113  0.3635
   27CHL1  H27A 1996   0.852   1.407   8.826  0.1634  1.5543 -0.8276
   27CHL1  H27B 1997   0.774   1.391   8.995 -1.0180  1.4806  1.5841
   27CHL1  H27C 1998   0.678   1.434   8.855  1.6596 -3.7029 -2.4383
   28CHL1    C3 1999   6.654   0.288  10.044  0.1971  0.4810 -0.7642
   28CHL1    H3 2000   6.545   0.270  10.032  0.3050 -2.3221  1.8279
   28CHL1    O3 2001   6.678   0.299  10.180  0.1346  0.1499  0.0604
   28CHL1   H3' 2002   6.762   0.342  10.194  0.7047  0.1813 -2.9966
   28CHL1    C4 2003   6.740   0.173   9.991  0.3185  0.9202 -0.8832
   28CHL1   H4A 2004   6.842   0.202  10.026  0.1362  2.9113 -1.9591
   28CHL1   H4B 2005   6.699   0.083  10.041 -0.3910  0.3974 -2.3873
   28CHL1    C5 2006   6.729   0.159   9.840 -0.0200  0.0705 -0.2318
   28CHL1    C6 2007   6.687   0.041   9.780 -0.0122 -0.1879  0.2959
   28CHL1    H6 2008   6.679  -0.053   9.837  1.6464 -0.0467  0.8156
   28CHL1    C7 2009   6.668   0.028   9.632 -0.6021  0.3232  0.6003
   28CHL1   H7A 2010   6.701  -0.076   9.609 -0.7952  0.4397 -0.2163
   28CHL1   H7B 2011   6.558   0.032   9.618 -0.5391  0.6878  0.1889
   28CHL1    C8 2012   6.750   0.131   9.550 -0.6677 -0.5303 -0.1612
   28CHL1    H8 2013   6.858   0.109   9.564 -0.5600 -1.2601 -2.0458
   28CHL1   C14 2014   6.700   0.128   9.405 -0.2663 -0.9022  0.3819
   28CHL1   H14 2015   6.590   0.140   9.419  0.0094 -0.0314  1.9017
   28CHL1   C15 2016   6.715  -0.015   9.340 -0.0589 -0.3416 -0.2819
   28CHL1  H15A 2017   6.806  -0.077   9.359  0.2116 -1.0007 -3.3976
   28CHL1  H15B 2018   6.629  -0.075   9.378  1.7763 -2.2126  1.0601
   28CHL1   C16 2019   6.698   0.020   9.190 -0.2842  0.2658 -0.5223
   28CHL1  H16A 2020   6.784  -0.028   9.139  1.0291  0.6642  1.2438
   28CHL1  H16B 2021   6.604  -0.030   9.158 -0.6224 -0.5420  1.5875
   28CHL1   C17 2022   6.705   0.176   9.173  0.8544  0.4101 -0.5957
   28CHL1   H17 2023   6.597   0.203   9.173  0.0433 -2.6614  0.9498
   28CHL1   C13 2024   6.764   0.227   9.316  0.7522  0.2075  0.2967
   28CHL1   C18 2025   6.915   0.200   9.311 -0.2161  0.0435  0.3977
   28CHL1  H18A 2026   6.927   0.095   9.274  3.8302  0.2656  0.9122
   28CHL1  H18B 2027   6.978   0.261   9.244 -0.5210 -1.0814 -0.9545
   28CHL1  H18C 2028   6.967   0.204   9.409  0.0779 -2.9670  0.4138
   28CHL1   C12 2029   6.729   0.368   9.361  0.1563 -0.5099 -0.1579
   28CHL1  H12A 2030   6.767   0.447   9.293  0.3369 -0.9006 -0.5153
   28CHL1  H12B 2031   6.619   0.371   9.347  0.0883 -1.9847 -0.0637
   28CHL1   C11 2032   6.757   0.387   9.507 -0.2721  0.4823 -0.1228
   28CHL1  H11A 2033   6.868   0.392   9.513 -0.3885  2.8184  0.5243
   28CHL1  H11B 2034   6.704   0.479   9.540 -1.7825 -1.6237  3.5934
   28CHL1    C9 2035   6.720   0.273   9.599  0.8643 -0.7542  0.1494
   28CHL1    H9 2036   6.609   0.282   9.596  0.8153 -0.8592  1.2522
   28CHL1   C10 2037   6.760   0.287   9.753 -0.4011  0.1469  0.1090
   28CHL1   C19 2038   6.917   0.301   9.761  0.5457  0.5920 -0.7498
   28CHL1  H19A 2039   6.937   0.388   9.696 -0.3459 -0.2363 -2.1503
   28CHL1  H19B 2040   6.952   0.327   9.863 -0.9220 -0.5039  0.0646
   28CHL1  H19C 2041   6.969   0.208   9.728 -0.0871 -0.1222  0.2283
   28CHL1    C1 2042   6.686   0.411   9.807  0.7717  0.2417 -0.1648
   28CHL1   H1A 2043   6.738   0.502   9.768 -1.5174  0.8580 -1.8634
   28CHL1   H1B 2044   6.582   0.421   9.769  0.0616  0.3875  1.7555
   28CHL1    C2 2045   6.684   0.416   9.967  0.5659  0.3607  0.2943
   28CHL1   H2A 2046   6.621   0.498  10.006  0.0355 -0.2063  0.6376
   28CHL1   H2B 2047   6.790   0.445   9.977  0.4000  0.4818  1.7976
   28CHL1   C20 2048   6.775   0.217   9.045  0.7701  0.1367 -0.6805
   28CHL1   H20 2049   6.860   0.145   9.050 -2.0849 -3.4076 -1.0227
   28CHL1   C21 2050   6.810   0.370   9.039 -0.0404  0.0532 -0.3340
   28CHL1  H21A 2051   6.876   0.398   8.953  1.2034 -2.8484 -0.3792
   28CHL1  H21B 2052   6.863   0.398   9.132 -1.8881 -0.2098  0.8237
   28CHL1  H21C 2053   6.718   0.431   9.032 -0.0085  0.1897  0.4136
   28CHL1   C22 2054   6.692   0.186   8.921  0.0258  0.5221 -0.2344
   28CHL1  H22A 2055   6.651   0.083   8.927 -0.4719  0.6287 -1.6529
   28CHL1  H22B 2056   6.609   0.259   8.919  1.2855  1.9552 -0.5485
   28CHL1   C23 2057   6.775   0.195   8.788 -0.4504  0.5264  0.5453
   28CHL1  H23A 2058   6.835   0.289   8.788  2.0612 -0.9623 -3.3830
   28CHL1  H23B 2059   6.854   0.117   8.782  1.4843  2.4656  0.0225
   28CHL1   C24 2060   6.681   0.182   8.669 -0.4618  0.6141  0.0149
   28CHL1  H24A 2061   6.606   0.103   8.692 -0.9248  0.4798 -1.8489
   28CHL1  H24B 2062   6.630   0.278   8.648  0.3107  0.5885 -2.2181
   28CHL1   C25 2063   6.748   0.133   8.532  0.4310 -0.0273  0.5329
   28CHL1   H25 2064   6.801   0.036   8.543  2.2809  0.7692 -1.1380
   28CHL1   C26 2065   6.630   0.120   8.432  0.0358  0.2495  0.2908
   28CHL1  H26A 2066   6.576   0.217   8.424 -0.5797 -0.3587 -3.5852
   28CHL1  H26B 2067   6.678   0.098   8.334  2.9169  0.9264  1.4844
   28CHL1  H26C 2068   6.557   0.043   8.466 -0.4273  0.7508  0.4345
   28CHL1   C27 2069   6.854   0.238   8.494 -0.0631 -1.0819  0.1154
   28CHL1  H27A 2070   6.814   0.336   8.530 -0.0420 -1.8857  2.3863
   28CHL1  H27B 2071   6.942   0.207   8.555  0.5437 -0.4881 -0.4426
   28CHL1  H27C 2072   6.882   0.242   8.387  2.0865 -2.0705  0.6145
   29CHL1    C3 2073   1.178   5.703   6.633  0.3077  0.5744 -0.8218
   29CHL1    H3 2074   1.230   5.796   6.665 -0.1083  1.5171 -2.8152
   29CHL1    O3 2075   1.167   5.697   6.494 -0.2377  0.5028  0.1096
   29CHL1   H3' 2076   1.254   5.671   6.462 -0.3588  0.7601 -0.4425
   29CHL1    C4 2077   1.258   5.580   6.691  0.8217  0.7529  0.5189
   29CHL1   H4A 2078   1.208   5.486   6.662  0.1943  0.9495  0.9468
   29CHL1   H4B 2079   1.357   5.566   6.643 -0.5786 -3.0520 -1.4570
   29CHL1    C5 2080   1.258   5.594   6.847 -0.4895  0.0342  0.3744
   29CHL1    C6 2081   1.372   5.614   6.904  0.6051 -0.1551 -0.0384
   29CHL1    H6 2082   1.464   5.605   6.844 -0.3362 -2.7727 -1.1598
   29CHL1    C7 2083   1.385   5.640   7.058  0.0062  0.8688 -0.4021
   29CHL1   H7A 2084   1.482   5.603   7.099 -0.3879 -1.1572 -1.2145
   29CHL1   H7B 2085   1.395   5.748   7.080  2.5323  0.0134  3.0715
   29CHL1    C8 2086   1.258   5.596   7.134  0.4246  0.0829 -0.1817
   29CHL1    H8 2087   1.265   5.485   7.136  0.8152  0.1061  3.6500
   29CHL1   C14 2088   1.266   5.653   7.279  0.3295  0.0917  0.5204
   29CHL1   H14 2089   1.280   5.761   7.259 -0.4752  0.4576  1.8562
   29CHL1   C15 2090   1.392   5.631   7.370  0.3995  1.1836 -0.1193
   29CHL1  H15A 2091   1.423   5.524   7.365 -0.7627  0.7205  1.8355
   29CHL1  H15B 2092   1.470   5.703   7.338  0.6733  0.8016 -0.3164
   29CHL1   C16 2093   1.332   5.655   7.513  0.1990 -0.3443  0.0133
   29CHL1  H16A 2094   1.334   5.558   7.567  0.1133 -1.5554 -2.0867
   29CHL1  H16B 2095   1.396   5.724   7.572  1.2588 -1.5090  0.2693
   29CHL1   C17 2096   1.182   5.699   7.498 -0.2711 -0.7248  0.7152
   29CHL1   H17 2097   1.183   5.806   7.469 -2.9450 -1.4686 -2.5756
   29CHL1   C13 2098   1.134   5.632   7.370 -0.4988  0.0043  0.1787
   29CHL1   C18 2099   1.113   5.485   7.408  1.2692 -0.0217  0.0293
   29CHL1  H18A 2100   1.021   5.478   7.469 -0.3970  0.5603 -2.3771
   29CHL1  H18B 2101   1.082   5.432   7.316  1.7057 -0.8739  0.3689
   29CHL1  H18C 2102   1.206   5.439   7.449  0.0598 -0.1285  2.7767
   29CHL1   C12 2103   1.015   5.694   7.300 -0.2884  1.3924 -0.6874
   29CHL1  H12A 2104   0.919   5.667   7.349  0.3056  1.6624  0.6501
   29CHL1  H12B 2105   1.035   5.803   7.303 -0.6472  1.5211 -2.5195
   29CHL1   C11 2106   1.011   5.631   7.161 -0.0329  0.5210  0.0610
   29CHL1  H11A 2107   0.983   5.524   7.175 -0.5256  0.4895 -1.1652
   29CHL1  H11B 2108   0.926   5.667   7.099  0.4098  1.4359 -0.0235
   29CHL1    C9 2109   1.135   5.650   7.068  0.0215 -0.1313 -0.7835
   29CHL1    H9 2110   1.156   5.759   7.067 -0.0213 -0.1166 -0.2750
   29CHL1   C10 2111   1.118   5.606   6.923  0.4465  0.0221 -0.2042
   29CHL1   C19 2112   1.032   5.476   6.913  0.1279  0.4519  0.0076
   29CHL1  H19A 2113   0.924   5.498   6.925  0.5279  3.0818 -0.9229
   29CHL1  H19B 2114   1.032   5.446   6.806  0.2905 -1.2684  0.4683
   29CHL1  H19C 2115   1.064   5.387   6.971 -0.7009 -0.8021 -1.4245
   29CHL1    C1 2116   1.038   5.713   6.845  0.2042 -0.2221 -0.0061
   29CHL1   H1A 2117   0.935   5.714   6.889 -0.4360  1.6013 -1.4897
   29CHL1   H1B 2118   1.078   5.809   6.884 -0.9644  0.1370  0.3498
   29CHL1    C2 2119   1.034   5.703   6.693 -0.9588 -0.4021 -0.2280
   29CHL1   H2A 2120   0.976   5.787   6.648  0.7470  0.6639 -0.4518
   29CHL1   H2B 2121   0.981   5.610   6.662  1.2979 -2.7418  2.6160
   29CHL1   C20 2122   1.097   5.681   7.620 -0.0470 -0.0475 -0.4796
   29CHL1   H20 2123   1.090   5.575   7.651 -1.5989  0.5160  1.2498
   29CHL1   C21 2124   0.956   5.737   7.609 -0.4062 -0.7251 -0.2005
   29CHL1  H21A 2125   0.959   5.843   7.573 -2.4083 -1.1536 -1.7628
   29CHL1  H21B 2126   0.907   5.734   7.709  2.0101 -1.3156  0.9984
   29CHL1  H21C 2127   0.895   5.672   7.542 -0.1740 -0.4160 -0.7165
   29CHL1   C22 2128   1.162   5.756   7.741  0.2937  0.3148 -0.0986
   29CHL1  H22A 2129   1.273   5.758   7.733  0.3488  2.2393  0.7152
   29CHL1  H22B 2130   1.130   5.863   7.743 -0.9650 -0.0725  1.0385
   29CHL1   C23 2131   1.125   5.699   7.880 -0.2039  0.3451 -0.1830
   29CHL1  H23A 2132   1.143   5.769   7.964  1.5160 -1.2321  0.8167
   29CHL1  H23B 2133   1.021   5.662   7.878  0.9604 -3.1009 -1.2583
   29CHL1   C24 2134   1.205   5.567   7.910 -0.5477  1.0926 -0.6499
   29CHL1  H24A 2135   1.165   5.488   7.843  0.4507 -0.6578  0.7633
   29CHL1  H24B 2136   1.314   5.586   7.904 -0.5813  2.0492  1.4598
   29CHL1   C25 2137   1.173   5.503   8.049  0.9666 -0.0692  0.3374
   29CHL1   H25 2138   1.063   5.487   8.044  1.1680 -0.8934 -4.1112
   29CHL1   C26 2139   1.242   5.357   8.051 -0.0988  0.5764 -0.0091
   29CHL1  H26A 2140   1.196   5.296   7.970 -0.9240  0.2934  0.6633
   29CHL1  H26B 2141   1.353   5.351   8.044 -0.0936 -0.5951  0.9090
   29CHL1  H26C 2142   1.200   5.307   8.141  0.0064  0.0216 -0.2675
   29CHL1   C27 2143   1.217   5.586   8.168 -0.8333  0.4644  0.1126
   29CHL1  H27A 2144   1.182   5.544   8.265 -0.5196 -0.1193 -0.0254
   29CHL1  H27B 2145   1.328   5.585   8.172 -0.7753 -1.5793 -1.0783
   29CHL1  H27C 2146   1.173   5.689   8.168  0.2790  0.9748 -1.8273
   30CHL1    C3 2147   6.289   4.336   7.263  0.0707 -0.3173 -0.0259
   30CHL1    H3 2148   6.397   4.345   7.287  0.1883 -0.0406 -0.6473
   30CHL1    O3 2149   6.266   4.253   7.152 -0.4161  0.4178  0.2577
   30CHL1   H3' 2150   6.291   4.300   7.073 -4.4184  0.5274 -1.0478
   30CHL1    C4 2151   6.222   4.265   7.381 -0.2608 -0.3920  0.7695
   30CHL1   H4A 2152   6.117   4.254   7.348  0.4251 -1.9616 -0.9804
   30CHL1   H4B 2153   6.271   4.166   7.394  1.7349  0.3288 -0.9531
   30CHL1    C5 2154   6.211   4.351   7.505 -0.4590  0.1940 -0.0872
   30CHL1    C6 2155   6.264   4.305   7.626 -0.2643  0.5382 -0.5387
   30CHL1    H6 2156   6.304   4.203   7.630  4.1782  2.1600 -0.8655
   30CHL1    C7 2157   6.275   4.374   7.757 -0.2669  0.7306 -0.7070
   30CHL1   H7A 2158   6.235   4.304   7.832  1.3594 -1.5070 -1.8627
   30CHL1   H7B 2159   6.380   4.407   7.775 -0.8426  3.6478 -2.3116
   30CHL1    C8 2160   6.182   4.500   7.753 -0.0182  0.1284 -0.2402
   30CHL1    H8 2161   6.078   4.466   7.769 -0.2722  0.8198 -0.4384
   30CHL1   C14 2162   6.218   4.588   7.871  0.5604 -0.1224  0.3644
   30CHL1   H14 2163   6.323   4.619   7.851  0.3194  1.6557  1.7655
   30CHL1   C15 2164   6.227   4.518   8.013  0.1746  0.3464  0.2521
   30CHL1  H15A 2165   6.140   4.450   8.021 -0.5960  0.7861 -3.3218
   30CHL1  H15B 2166   6.319   4.455   8.015  0.1625  0.3282  0.2295
   30CHL1   C16 2167   6.219   4.637   8.113  0.2491 -0.8937  0.1102
   30CHL1  H16A 2168   6.124   4.623   8.171 -0.7089  2.5246 -0.5322
   30CHL1  H16B 2169   6.305   4.631   8.183  0.5307 -4.0988 -0.4555
   30CHL1   C17 2170   6.212   4.770   8.017 -0.6872  0.3953 -0.3147
   30CHL1   H17 2171   6.317   4.802   8.004  0.2051 -1.2255  2.3725
   30CHL1   C13 2172   6.141   4.713   7.884 -0.2830 -0.3104  0.9564
   30CHL1   C18 2173   5.996   4.672   7.917  0.0132 -0.2489 -0.9206
   30CHL1  H18A 2174   5.951   4.612   7.834 -2.1915  0.7800 -0.5132
   30CHL1  H18B 2175   5.984   4.619   8.014  0.4609  0.1221 -0.6644
   30CHL1  H18C 2176   5.935   4.765   7.920 -0.8833 -0.8475 -0.2347
   30CHL1   C12 2177   6.157   4.792   7.752 -0.9962 -0.0783 -0.6642
   30CHL1  H12A 2178   6.098   4.886   7.759 -1.6281 -0.5755  1.0227
   30CHL1  H12B 2179   6.265   4.818   7.753 -0.6947 -1.3236  0.8133
   30CHL1   C11 2180   6.120   4.717   7.627 -0.5041 -0.0105 -0.0468
   30CHL1  H11A 2181   6.009   4.726   7.617 -0.5811  1.0362  1.5746
   30CHL1  H11B 2182   6.158   4.775   7.540  0.8333  1.4579  1.4795
   30CHL1    C9 2183   6.188   4.578   7.614 -0.0105 -0.1894  0.1394
   30CHL1    H9 2184   6.297   4.601   7.606 -0.1252  0.2739 -0.1585
   30CHL1   C10 2185   6.152   4.493   7.488  0.1989 -0.5352 -0.3742
   30CHL1   C19 2186   6.004   4.496   7.456 -0.6229  0.4032  0.3489
   30CHL1  H19A 2187   5.976   4.600   7.425  1.4171  0.1870 -2.3603
   30CHL1  H19B 2188   5.974   4.428   7.373  1.6230 -0.6715  0.3892
   30CHL1  H19C 2189   5.948   4.470   7.548  0.1163 -3.8425 -0.3306
   30CHL1    C1 2190   6.226   4.558   7.366 -0.0035  0.1536  0.0540
   30CHL1   H1A 2191   6.179   4.654   7.336 -0.6792  0.0260  0.6794
   30CHL1   H1B 2192   6.329   4.592   7.388 -0.6095  0.9037  1.8726
   30CHL1    C2 2193   6.223   4.471   7.244 -0.1856 -0.0933  0.0150
   30CHL1   H2A 2194   6.292   4.515   7.170 -0.8784 -2.4556 -2.1146
   30CHL1   H2B 2195   6.120   4.459   7.204 -0.2963  0.8667  0.0128
   30CHL1   C20 2196   6.130   4.879   8.099 -0.2549 -0.0887  0.0618
   30CHL1   H20 2197   6.029   4.840   8.123 -0.1294 -0.9187 -0.7187
   30CHL1   C21 2198   6.117   5.003   8.011  0.3051 -0.8139  0.7461
   30CHL1  H21A 2199   6.042   4.979   7.933  1.5041 -0.3402 -0.5768
   30CHL1  H21B 2200   6.213   5.020   7.957 -0.0600 -1.5486 -0.1349
   30CHL1  H21C 2201   6.093   5.096   8.067 -1.1951 -0.7930  0.0919
   30CHL1   C22 2202   6.189   4.904   8.246  0.4388 -0.9427  0.2172
   30CHL1  H22A 2203   6.127   4.984   8.291  3.6197  0.2556  2.6506
   30CHL1  H22B 2204   6.160   4.810   8.296 -2.4705 -0.8471 -1.1656
   30CHL1   C23 2205   6.337   4.928   8.247  0.5750 -1.1603  0.5223
   30CHL1  H23A 2206   6.403   4.844   8.215 -1.3626 -2.6029  0.2156
   30CHL1  H23B 2207   6.358   5.008   8.174 -1.1103  1.9730  3.3401
   30CHL1   C24 2208   6.383   4.976   8.386 -0.3171 -0.2057  1.4455
   30CHL1  H24A 2209   6.365   5.084   8.407 -0.0415  0.3450 -0.9755
   30CHL1  H24B 2210   6.339   4.918   8.470  1.1064 -0.9542  1.6882
   30CHL1   C25 2211   6.541   4.957   8.414 -0.2897  0.2717 -0.2732
   30CHL1   H25 2212   6.567   4.996   8.514 -2.4825 -0.7650  0.7428
   30CHL1   C26 2213   6.577   4.805   8.414 -0.4976 -0.1035  0.5000
   30CHL1  H26A 2214   6.564   4.760   8.313  1.2016  0.7944 -0.1357
   30CHL1  H26B 2215   6.685   4.798   8.439 -0.7006 -1.2624  1.0408
   30CHL1  H26C 2216   6.507   4.762   8.488 -0.3995  1.6829  1.6606
   30CHL1   C27 2217   6.633   5.026   8.314 -0.2686 -0.0531  0.6257
   30CHL1  H27A 2218   6.613   5.135   8.322  1.6850  0.2512  1.6040
   30CHL1  H27B 2219   6.736   5.026   8.356  0.0907 -0.2558 -0.2362
   30CHL1  H27C 2220   6.622   4.990   8.209 -1.9755 -1.7232  1.3483
   31CHL1    C3 2221   5.681   5.586   6.923 -0.1940 -0.6661 -0.2278
   31CHL1    H3 2222   5.694   5.483   6.960 -0.8369 -1.5326 -2.3495
   31CHL1    O3 2223   5.686   5.592   6.784  0.0307 -0.5370  0.5753
   31CHL1   H3' 2224   5.644   5.674   6.759  1.2455  0.6238  2.2896
   31CHL1    C4 2225   5.541   5.635   6.969  0.7031  0.5639  0.5203
   31CHL1   H4A 2226   5.508   5.721   6.907 -1.8641 -1.8602 -1.6047
   31CHL1   H4B 2227   5.469   5.557   6.936 -0.0072  0.3291  2.5490
   31CHL1    C5 2228   5.536   5.647   7.118 -0.1275  0.1333  0.0451
   31CHL1    C6 2229   5.439   5.570   7.182  0.2243 -0.1156 -0.3602
   31CHL1    H6 2230   5.370   5.507   7.124 -0.4526  0.0704  0.2342
   31CHL1    C7 2231   5.420   5.595   7.333 -0.3978 -0.3546 -0.0732
   31CHL1   H7A 2232   5.312   5.605   7.360 -0.1901  1.0339  0.2882
   31CHL1   H7B 2233   5.447   5.501   7.385 -0.2301  0.0938  0.6556
   31CHL1    C8 2234   5.501   5.708   7.395  0.5294 -0.2803 -0.1485
   31CHL1    H8 2235   5.448   5.804   7.378  0.1415 -0.2309  1.2881
   31CHL1   C14 2236   5.501   5.694   7.553  0.5443  0.3720  0.2949
   31CHL1   H14 2237   5.559   5.600   7.566  0.5541  0.5971  1.9151
   31CHL1   C15 2238   5.375   5.690   7.633  0.2337 -0.2605  0.2567
   31CHL1  H15A 2239   5.310   5.774   7.601  1.5585  1.1776  1.2512
   31CHL1  H15B 2240   5.322   5.592   7.643 -1.9533  0.9283  0.6458
   31CHL1   C16 2241   5.413   5.729   7.773 -0.5023 -0.0810 -0.1747
   31CHL1  H16A 2242   5.360   5.823   7.801 -1.1841 -0.8448  1.1052
   31CHL1  H16B 2243   5.402   5.645   7.845 -2.5155  0.7217  0.4807
   31CHL1   C17 2244   5.572   5.764   7.772  0.1358  0.0562 -0.0467
   31CHL1   H17 2245   5.621   5.666   7.794  1.0009  0.8266  1.5104
   31CHL1   C13 2246   5.595   5.801   7.623  0.2189 -0.4889 -0.3046
   31CHL1   C18 2247   5.548   5.949   7.596 -0.0214  0.3741 -0.7785
   31CHL1  H18A 2248   5.450   5.963   7.648 -0.0117 -0.8004 -0.4466
   31CHL1  H18B 2249   5.621   6.024   7.634  1.8020 -1.6587 -0.2062
   31CHL1  H18C 2250   5.532   5.965   7.487  2.5263 -0.1941 -1.2566
   31CHL1   C12 2251   5.739   5.770   7.569  0.1122  0.0136 -0.9202
   31CHL1  H12A 2252   5.815   5.828   7.625 -1.0933  3.3561 -2.5910
   31CHL1  H12B 2253   5.755   5.662   7.590  1.2300  0.2490 -0.5644
   31CHL1   C11 2254   5.748   5.798   7.422  0.4699 -0.0579  0.7696
   31CHL1  H11A 2255   5.726   5.905   7.401  0.9421  0.0553  0.8551
   31CHL1  H11B 2256   5.852   5.785   7.385  0.6318 -2.5772  2.0068
   31CHL1    C9 2257   5.644   5.709   7.338 -0.5188 -0.2819  0.5008
   31CHL1    H9 2258   5.685   5.607   7.356 -1.0956 -0.6358 -0.1887
   31CHL1   C10 2259   5.645   5.734   7.187  0.0434 -0.2587  0.6137
   31CHL1   C19 2260   5.635   5.885   7.147  0.4326  0.2066  0.6002
   31CHL1  H19A 2261   5.626   5.898   7.037  1.0850  0.4707  0.5758
   31CHL1  H19B 2262   5.542   5.932   7.185  2.6181  3.3790  2.2768
   31CHL1  H19C 2263   5.724   5.945   7.174  0.9258 -0.1954 -0.0987
   31CHL1    C1 2264   5.773   5.664   7.131 -0.0520 -0.6328 -0.0739
   31CHL1   H1A 2265   5.856   5.730   7.164 -2.2004  1.3625  1.5565
   31CHL1   H1B 2266   5.784   5.559   7.164 -2.7832 -1.3365 -1.2443
   31CHL1    C2 2267   5.786   5.679   6.980  0.4756 -0.1091  0.0489
   31CHL1   H2A 2268   5.881   5.636   6.943 -1.0664 -1.5682 -2.3143
   31CHL1   H2B 2269   5.771   5.784   6.945  0.2226  0.0029  0.4787
   31CHL1   C20 2270   5.630   5.861   7.873  0.0850 -0.1987 -1.0764
   31CHL1   H20 2271   5.711   5.924   7.832  1.5031  0.0699  2.0760
   31CHL1   C21 2272   5.705   5.784   7.986  0.5501 -0.4460 -0.1459
   31CHL1  H21A 2273   5.637   5.723   8.049  0.9034  0.9313  1.5854
   31CHL1  H21B 2274   5.752   5.854   8.058 -0.8360 -0.1301  0.4703
   31CHL1  H21C 2275   5.780   5.715   7.941 -0.1553 -0.7120 -0.9337
   31CHL1   C22 2276   5.523   5.967   7.938 -0.7317  0.4265 -0.4405
   31CHL1  H22A 2277   5.463   6.003   7.852  0.0694  0.0789 -1.1448
   31CHL1  H22B 2278   5.456   5.910   8.007  0.8411 -0.6293  0.2363
   31CHL1   C23 2279   5.595   6.084   8.010  0.1227 -0.4136  0.3244
   31CHL1  H23A 2280   5.667   6.047   8.086  0.8805 -2.0530 -1.1814
   31CHL1  H23B 2281   5.655   6.142   7.937 -0.1918  1.1214  1.2697
   31CHL1   C24 2282   5.494   6.176   8.075  0.4899 -0.0073  0.1980
   31CHL1  H24A 2283   5.456   6.253   8.004  0.2533 -0.3016  0.0053
   31CHL1  H24B 2284   5.404   6.120   8.110  0.1981  0.7199  0.6229
   31CHL1   C25 2285   5.545   6.231   8.207 -0.4739 -0.3443  0.2135
   31CHL1   H25 2286   5.591   6.153   8.272 -1.0375 -0.3585  0.6006
   31CHL1   C26 2287   5.669   6.331   8.187 -0.7891  0.0095  0.1597
   31CHL1  H26A 2288   5.738   6.299   8.106 -1.8881 -2.3080  0.1022
   31CHL1  H26B 2289   5.634   6.431   8.151  1.0413  0.4812 -0.3393
   31CHL1  H26C 2290   5.728   6.349   8.279  0.5451  0.1578 -0.7059
   31CHL1   C27 2291   5.432   6.313   8.275  0.3818 -0.7547 -0.0201
   31CHL1  H27A 2292   5.411   6.405   8.215  1.4001 -0.3128  0.2863
   31CHL1  H27B 2293   5.463   6.345   8.377 -0.4960 -1.0103  0.3356
   31CHL1  H27C 2294   5.338   6.254   8.281 -0.2750  0.0175 -2.0992
   32CHL1    C3 2295   0.104   4.295   7.047 -0.2634 -0.0620 -0.2289
   32CHL1    H3 2296   0.167   4.372   7.096 -3.4961  1.6874  1.3397
   32CHL1    O3 2297   0.107   4.315   6.902  0.1734  0.1154 -0.1155
   32CHL1   H3' 2298   0.191   4.279   6.873 -0.3897  0.0024 -1.6685
   32CHL1    C4 2299   0.148   4.154   7.079 -0.7557  0.5646 -0.2646
   32CHL1   H4A 2300   0.112   4.073   7.013 -1.6670  0.9829 -0.2991
   32CHL1   H4B 2301   0.256   4.158   7.054 -0.9445  2.2913 -0.8733
   32CHL1    C5 2302   0.117   4.107   7.219 -0.2157 -0.4437  0.3865
   32CHL1    C6 2303   0.217   4.074   7.302 -0.4435 -0.0222 -0.2374
   32CHL1    H6 2304   0.320   4.088   7.266 -0.4929  0.8999 -0.0264
   32CHL1    C7 2305   0.191   4.004   7.438 -0.0610 -0.1952  0.1619
   32CHL1   H7A 2306   0.261   3.920   7.457 -0.0828 -0.3315 -0.3363
   32CHL1   H7B 2307   0.219   4.071   7.522  0.0172 -0.7194  0.5548
   32CHL1    C8 2308   0.040   3.961   7.455 -0.4971  0.2567  0.2582
   32CHL1    H8 2309   0.014   3.875   7.389  2.1316  2.4748 -3.8651
   32CHL1   C14 2310   0.015   3.934   7.596  0.6038 -1.2204 -0.2951
   32CHL1   H14 2311   0.036   4.032   7.643 -1.7342 -0.2184 -1.2533
   32CHL1   C15 2312   0.093   3.822   7.670 -0.7387 -0.2098  0.0168
   32CHL1  H15A 2313   0.119   3.735   7.606  1.5602  0.9383 -0.6411
   32CHL1  H15B 2314   0.190   3.867   7.699 -0.5947 -1.6801  1.9128
   32CHL1   C16 2315   0.014   3.785   7.794 -0.3882 -0.5013 -0.3511
   32CHL1  H16A 2316   0.002   3.675   7.781 -2.0347 -0.4731  0.7734
   32CHL1  H16B 2317   0.073   3.799   7.887  0.1594  1.1113 -0.9306
   32CHL1   C17 2318  -0.112   3.875   7.778 -0.4214 -0.6450  0.2152
   32CHL1   H17 2319  -0.084   3.973   7.824 -0.3348 -0.3195 -0.5157
   32CHL1   C13 2320  -0.131   3.905   7.633  0.0994  0.2741 -0.2711
   32CHL1   C18 2321  -0.181   3.774   7.562 -0.6080 -0.1091  0.0429
   32CHL1  H18A 2322  -0.104   3.694   7.559  0.0583  0.5384 -0.1939
   32CHL1  H18B 2323  -0.278   3.744   7.608 -1.4876  1.3682 -0.7930
   32CHL1  H18C 2324  -0.204   3.799   7.456  0.3296 -0.6383 -0.2937
   32CHL1   C12 2325  -0.216   4.038   7.600 -0.8451  0.5163 -0.4847
   32CHL1  H12A 2326  -0.323   4.016   7.623 -0.7404  0.7770  0.2876
   32CHL1  H12B 2327  -0.168   4.113   7.666  1.1810  0.5853 -1.9879
   32CHL1   C11 2328  -0.192   4.082   7.458 -0.0255 -0.1156  0.5028
   32CHL1  H11A 2329  -0.261   4.017   7.399 -2.6273  0.5371  2.7180
   32CHL1  H11B 2330  -0.236   4.184   7.450 -2.5746 -1.2537 -0.6692
   32CHL1    C9 2331  -0.044   4.087   7.415  0.0552  0.1695  0.3261
   32CHL1    H9 2332   0.009   4.172   7.464  1.8846 -0.5786 -0.3091
   32CHL1   C10 2333  -0.035   4.114   7.262 -0.1160 -0.0172  0.1836
   32CHL1   C19 2334  -0.115   4.004   7.186  0.6026 -0.4098 -0.6243
   32CHL1  H19A 2335  -0.220   4.039   7.185  0.9523  0.7743  1.6744
   32CHL1  H19B 2336  -0.085   4.000   7.079  1.3640  0.5924 -0.4551
   32CHL1  H19C 2337  -0.110   3.900   7.225 -3.3146  0.0149  1.2458
   32CHL1    C1 2338  -0.083   4.260   7.233  0.1543 -0.2149 -0.2012
   32CHL1   H1A 2339  -0.189   4.271   7.263  0.6132  0.6388  1.1253
   32CHL1   H1B 2340  -0.034   4.323   7.310  0.2419 -0.9023  0.3080
   32CHL1    C2 2341  -0.043   4.314   7.096  0.2377 -0.6217 -0.1931
   32CHL1   H2A 2342  -0.068   4.422   7.090  2.0143 -0.1650  0.1073
   32CHL1   H2B 2343  -0.112   4.260   7.028 -1.0416  0.7144  0.0217
   32CHL1   C20 2344  -0.232   3.839   7.862 -0.0711 -0.0381 -0.1364
   32CHL1   H20 2345  -0.309   3.794   7.796  0.5757  0.9774 -1.6289
   32CHL1   C21 2346  -0.300   3.974   7.904  0.7849  0.5770 -0.0308
   32CHL1  H21A 2347  -0.216   4.027   7.954  0.2785  0.3977  1.0234
   32CHL1  H21B 2348  -0.383   3.959   7.976  2.0608  0.2671  1.4283
   32CHL1  H21C 2349  -0.332   4.036   7.818  0.2435 -0.2433 -0.4325
   32CHL1   C22 2350  -0.215   3.731   7.972 -0.0392  0.4524 -0.0949
   32CHL1  H22A 2351  -0.166   3.642   7.927 -0.0150  0.6137 -0.3855
   32CHL1  H22B 2352  -0.153   3.774   8.054  1.2039  1.1725 -1.4053
   32CHL1   C23 2353  -0.341   3.689   8.047 -0.1434 -0.2752 -0.2024
   32CHL1  H23A 2354  -0.356   3.767   8.125 -0.6893 -0.1266 -0.4570
   32CHL1  H23B 2355  -0.424   3.682   7.975 -0.2724  0.9270 -0.1657
   32CHL1   C24 2356  -0.326   3.559   8.122 -0.1389  1.0201  0.0589
   32CHL1  H24A 2357  -0.316   3.479   8.046  0.9989 -0.0920  1.3605
   32CHL1  H24B 2358  -0.230   3.562   8.176 -1.2864 -2.3199  2.4224
   32CHL1   C25 2359  -0.449   3.499   8.196 -0.2179 -0.3492 -0.2023
   32CHL1   H25 2360  -0.529   3.485   8.120  0.0245 -2.2838 -0.1362
   32CHL1   C26 2361  -0.408   3.366   8.265 -0.1484 -0.0781  0.5133
   32CHL1  H26A 2362  -0.371   3.380   8.369 -1.9311  1.3115  0.9737
   32CHL1  H26B 2363  -0.503   3.311   8.279 -0.0346  0.2777  2.7772
   32CHL1  H26C 2364  -0.329   3.311   8.209  0.5316  0.1917  1.1952
   32CHL1   C27 2365  -0.505   3.602   8.299 -0.5289  0.5192  0.8962
   32CHL1  H27A 2366  -0.445   3.601   8.393 -3.0027 -0.2456  2.5176
   32CHL1  H27B 2367  -0.525   3.704   8.259  2.2438  0.8571  0.3116
   32CHL1  H27C 2368  -0.607   3.576   8.335 -0.2752 -0.6205  0.8077
   33CHL1    C3 2369   0.950   3.719   6.869  0.1015  0.0551 -0.7044
   33CHL1    H3 2370   0.885   3.630   6.849 -0.8730  0.4415  0.7026
   33CHL1    O3 2371   1.018   3.764   6.759 -0.3800 -0.1430  0.0685
   33CHL1   H3' 2372   1.052   3.678   6.736  1.6366 -0.0118  2.3050
   33CHL1    C4 2373   0.854   3.831   6.913 -0.7305  0.0955 -0.5121
   33CHL1   H4A 2374   0.908   3.927   6.899 -0.6070  0.4475  2.1348
   33CHL1   H4B 2375   0.775   3.830   6.834 -2.1668  2.8475  0.8270
   33CHL1    C5 2376   0.808   3.811   7.060 -0.4647  0.3091  0.0861
   33CHL1    C6 2377   0.680   3.822   7.089  0.4921  0.0882  0.1027
   33CHL1    H6 2378   0.609   3.848   7.010  2.0115  1.4393 -0.8447
   33CHL1    C7 2379   0.625   3.802   7.229  0.2501  0.3147  0.6098
   33CHL1   H7A 2380   0.544   3.876   7.246  0.0297  0.0581  0.6861
   33CHL1   H7B 2381   0.588   3.697   7.231 -2.2001  1.1552  1.3684
   33CHL1    C8 2382   0.730   3.820   7.345  0.1793  0.0950 -0.0909
   33CHL1    H8 2383   0.750   3.929   7.341 -2.2349  0.5475 -0.8586
   33CHL1   C14 2384   0.680   3.770   7.480 -0.0233 -0.2674 -0.5206
   33CHL1   H14 2385   0.658   3.662   7.473  2.8724 -0.9948  0.9727
   33CHL1   C15 2386   0.548   3.833   7.516  0.1721 -0.0733 -0.0475
   33CHL1  H15A 2387   0.550   3.939   7.483  1.5243  0.0439  0.3696
   33CHL1  H15B 2388   0.469   3.775   7.464  0.7297  0.0889 -1.0859
   33CHL1   C16 2389   0.536   3.802   7.670 -0.0909 -0.6289 -0.3748
   33CHL1  H16A 2390   0.530   3.900   7.723 -0.1286 -0.8592  0.0478
   33CHL1  H16B 2391   0.465   3.722   7.698 -1.0302  0.2003 -0.3766
   33CHL1   C17 2392   0.685   3.762   7.716  0.1921  0.5716 -0.6758
   33CHL1   H17 2393   0.682   3.651   7.725 -0.5292  0.4474 -2.3185
   33CHL1   C13 2394   0.775   3.795   7.592  0.4191  0.9470 -0.4738
   33CHL1   C18 2395   0.817   3.943   7.611  0.1510 -0.0035  0.5712
   33CHL1  H18A 2396   0.729   3.999   7.650  0.2698  1.8740 -1.7768
   33CHL1  H18B 2397   0.895   3.947   7.690  1.9336 -2.2693 -1.0364
   33CHL1  H18C 2398   0.856   3.996   7.522 -0.7569 -1.9649 -1.0339
   33CHL1   C12 2399   0.899   3.711   7.568 -0.1684  0.4114 -0.2501
   33CHL1  H12A 2400   0.974   3.728   7.648  1.9181  0.2492 -2.1139
   33CHL1  H12B 2401   0.879   3.602   7.567  2.3131 -0.0636 -0.8835
   33CHL1   C11 2402   0.954   3.734   7.425  0.3886  0.0020 -0.3353
   33CHL1  H11A 2403   1.003   3.833   7.434  1.7350 -0.5514 -1.4195
   33CHL1  H11B 2404   1.034   3.657   7.413 -0.9990 -2.1103  3.1506
   33CHL1    C9 2405   0.851   3.739   7.309  0.3234  0.3634  0.3549
   33CHL1    H9 2406   0.809   3.637   7.296 -0.0986  0.8574 -2.3090
   33CHL1   C10 2407   0.915   3.772   7.170  0.6673 -0.9179 -0.1459
   33CHL1   C19 2408   1.003   3.901   7.195 -0.5478 -0.5651  0.4049
   33CHL1  H19A 2409   0.953   3.988   7.243  0.3016 -0.7558  1.6592
   33CHL1  H19B 2410   1.094   3.887   7.257 -1.0987 -1.3637  1.0451
   33CHL1  H19C 2411   1.033   3.943   7.096  0.3565 -1.9282  0.0949
   33CHL1    C1 2412   1.009   3.661   7.114  0.9405 -0.2812 -0.3226
   33CHL1   H1A 2413   1.091   3.649   7.188  0.4461  3.7244  0.9830
   33CHL1   H1B 2414   0.953   3.565   7.117 -3.7920  2.3598 -0.4121
   33CHL1    C2 2415   1.059   3.687   6.970 -0.3168 -0.1312 -0.2394
   33CHL1   H2A 2416   1.125   3.604   6.936  1.4135  1.6766 -1.4192
   33CHL1   H2B 2417   1.122   3.779   6.976 -1.5798  0.6583  1.2670
   33CHL1   C20 2418   0.725   3.808   7.861 -0.0776  0.8553  0.0870
   33CHL1   H20 2419   0.721   3.919   7.870  2.7294  0.9651  0.3363
   33CHL1   C21 2420   0.866   3.760   7.904 -0.3154  0.4467  0.1398
   33CHL1  H21A 2421   0.889   3.774   8.011 -0.5403 -1.1511  0.4114
   33CHL1  H21B 2422   0.944   3.808   7.842  2.4397 -1.5134  1.9702
   33CHL1  H21C 2423   0.876   3.651   7.882  1.4849  0.8112 -0.9297
   33CHL1   C22 2424   0.629   3.763   7.971  0.0314 -0.6726 -0.0191
   33CHL1  H22A 2425   0.525   3.761   7.933  0.1043  2.7816 -0.5478
   33CHL1  H22B 2426   0.666   3.659   7.986 -1.0191 -1.0010  0.3157
   33CHL1   C23 2427   0.632   3.859   8.090 -0.2009 -0.5633  0.0132
   33CHL1  H23A 2428   0.733   3.893   8.121 -0.2089 -1.4220  1.0261
   33CHL1  H23B 2429   0.571   3.950   8.071  1.1130  0.0163 -1.5662
   33CHL1   C24 2430   0.568   3.794   8.216  0.0435 -0.2146  0.1108
   33CHL1  H24A 2431   0.464   3.765   8.191 -0.5776  1.5837  0.6055
   33CHL1  H24B 2432   0.629   3.702   8.229 -0.0779 -0.4527 -0.9710
   33CHL1   C25 2433   0.572   3.859   8.357 -0.7523 -0.0120 -0.9703
   33CHL1   H25 2434   0.542   3.965   8.342 -0.2678  0.0167 -1.7826
   33CHL1   C26 2435   0.475   3.793   8.451  0.3371  0.3799  0.3184
   33CHL1  H26A 2436   0.489   3.846   8.547 -0.3573  1.0141  0.0737
   33CHL1  H26B 2437   0.369   3.814   8.423  0.3242 -0.6981 -0.4826
   33CHL1  H26C 2438   0.491   3.683   8.448 -0.4965  0.2710 -0.8292
   33CHL1   C27 2439   0.721   3.871   8.409 -0.5127  0.8373  0.1356
   33CHL1  H27A 2440   0.715   3.910   8.512 -2.6691 -0.6861  0.6308
   33CHL1  H27B 2441   0.757   3.766   8.419  0.6821  1.2432  0.1948
   33CHL1  H27C 2442   0.796   3.926   8.348  0.3453 -0.2369  0.2041
   34CHL1    C3 2443   2.423   3.098   7.035 -0.4956 -0.1500 -0.1520
   34CHL1    H3 2444   2.523   3.050   7.039 -0.5858 -0.4239 -1.1050
   34CHL1    O3 2445   2.394   3.113   6.897 -0.2954  0.3773 -0.2784
   34CHL1   H3' 2446   2.435   3.045   6.844 -0.1691  0.0067  0.2882
   34CHL1    C4 2447   2.318   3.001   7.089 -0.2189  0.5485  0.5756
   34CHL1   H4A 2448   2.222   3.051   7.063  0.5537  1.4457 -0.5842
   34CHL1   H4B 2449   2.319   2.918   7.016  0.9890  1.7132 -0.7558
   34CHL1    C5 2450   2.325   2.970   7.233 -0.4003  0.6812  0.6839
   34CHL1    C6 2451   2.322   2.845   7.271  0.5451 -0.0595  0.1027
   34CHL1    H6 2452   2.328   2.765   7.196 -1.0624 -1.4278  1.3760
   34CHL1    C7 2453   2.328   2.813   7.422 -0.7808  0.5528  0.5357
   34CHL1   H7A 2454   2.268   2.725   7.454  0.3848 -0.1532  0.7945
   34CHL1   H7B 2455   2.434   2.786   7.441 -1.0688 -1.4367 -0.6011
   34CHL1    C8 2456   2.298   2.932   7.521  0.5448 -0.0316 -0.0414
   34CHL1    H8 2457   2.190   2.959   7.517  0.9450  1.6637  0.2473
   34CHL1   C14 2458   2.331   2.903   7.661 -0.2365 -0.5116  0.1108
   34CHL1   H14 2459   2.436   2.866   7.664 -0.3568 -0.9468 -0.9708
   34CHL1   C15 2460   2.250   2.791   7.732  0.6126  0.7197  0.0466
   34CHL1  H15A 2461   2.147   2.786   7.690 -0.3358  0.4812  2.3202
   34CHL1  H15B 2462   2.289   2.689   7.709 -2.4890 -0.4174 -0.4338
   34CHL1   C16 2463   2.267   2.818   7.880 -0.6056 -0.4340 -0.1922
   34CHL1  H16A 2464   2.173   2.832   7.937 -2.7724 -1.5807 -3.3427
   34CHL1  H16B 2465   2.317   2.736   7.937  1.7790  1.2636  0.2652
   34CHL1   C17 2466   2.349   2.946   7.892 -0.4024  0.7185 -0.0587
   34CHL1   H17 2467   2.457   2.920   7.892 -0.5939 -0.1016 -0.0157
   34CHL1   C13 2468   2.322   3.018   7.764  0.3373 -0.9801  0.2878
   34CHL1   C18 2469   2.178   3.084   7.777 -0.5418 -0.3315 -0.4424
   34CHL1  H18A 2470   2.193   3.189   7.811 -0.0943 -0.9021  1.1851
   34CHL1  H18B 2471   2.137   3.082   7.674  0.8834 -0.1874 -1.0182
   34CHL1  H18C 2472   2.110   3.038   7.853  1.6750  0.9267  2.3781
   34CHL1   C12 2473   2.426   3.121   7.712 -0.3617  0.1857  0.2312
   34CHL1  H12A 2474   2.411   3.204   7.784  0.0221 -0.4607  1.0787
   34CHL1  H12B 2475   2.529   3.084   7.733 -0.3769  0.6929  1.2267
   34CHL1   C11 2476   2.391   3.171   7.572 -0.2084 -0.5842 -0.2885
   34CHL1  H11A 2477   2.296   3.228   7.569 -1.0176 -1.9723 -1.7861
   34CHL1  H11B 2478   2.465   3.241   7.527  0.5495 -0.5990  0.9078
   34CHL1    C9 2479   2.384   3.058   7.472  0.3976 -0.2037  0.4117
   34CHL1    H9 2480   2.489   3.022   7.466 -0.4436 -3.3021  2.9117
   34CHL1   C10 2481   2.341   3.092   7.327 -0.2357  0.0308  1.0978
   34CHL1   C19 2482   2.201   3.158   7.328  0.6761 -0.2468  0.6500
   34CHL1  H19A 2483   2.198   3.251   7.389  1.7246  0.3554 -0.2192
   34CHL1  H19B 2484   2.175   3.193   7.226  1.1765  0.1929  0.6729
   34CHL1  H19C 2485   2.121   3.090   7.364 -0.0518  1.7795  3.0782
   34CHL1    C1 2486   2.453   3.186   7.264  0.4469  0.0700 -0.4263
   34CHL1   H1A 2487   2.469   3.283   7.315  1.0692  0.1825 -0.8320
   34CHL1   H1B 2488   2.550   3.134   7.282  0.1737 -0.8897 -1.6203
   34CHL1    C2 2489   2.439   3.217   7.114  0.7668  0.2707  0.2842
   34CHL1   H2A 2490   2.528   3.277   7.085 -0.1626  1.0444 -1.0454
   34CHL1   H2B 2491   2.355   3.289   7.102  0.2216 -0.2247  1.1230
   34CHL1   C20 2492   2.318   3.028   8.027  0.4668 -0.2649  0.3557
   34CHL1   H20 2493   2.227   3.091   8.015  0.2826 -0.2050  1.9947
   34CHL1   C21 2494   2.432   3.131   8.047  0.1448 -0.2059  0.1255
   34CHL1  H21A 2495   2.422   3.167   8.152 -0.9871  3.1603 -1.0593
   34CHL1  H21B 2496   2.435   3.223   7.984  1.6019 -0.4525 -0.1856
   34CHL1  H21C 2497   2.531   3.081   8.049  1.1889  1.8595  1.7435
   34CHL1   C22 2498   2.300   2.946   8.163  0.4880  0.5076  0.4924
   34CHL1  H22A 2499   2.243   2.853   8.147  0.2365  0.6125  0.7818
   34CHL1  H22B 2500   2.401   2.924   8.206  0.4349 -2.9294 -1.0065
   34CHL1   C23 2501   2.209   3.013   8.264  0.0315 -0.6348  0.0699
   34CHL1  H23A 2502   2.245   3.114   8.292  0.6115 -1.3362  1.9526
   34CHL1  H23B 2503   2.103   3.011   8.233  0.1607  1.5347 -0.5864
   34CHL1   C24 2504   2.209   2.941   8.404  0.4951 -0.7582  0.0497
   34CHL1  H24A 2505   2.185   2.834   8.384 -0.6601  0.1226 -3.4704
   34CHL1  H24B 2506   2.310   2.946   8.450 -0.1812  0.9974  1.3956
   34CHL1   C25 2507   2.085   2.986   8.492 -0.5557 -0.3104 -0.2919
   34CHL1   H25 2508   1.987   2.990   8.439 -0.6323  3.6967 -0.0084
   34CHL1   C26 2509   2.075   2.898   8.617 -0.2892 -0.0641  0.4083
   34CHL1  H26A 2510   2.058   2.792   8.587 -0.2961  0.7000 -2.4343
   34CHL1  H26B 2511   2.173   2.906   8.670 -0.0133  0.7906 -0.2330
   34CHL1  H26C 2512   1.995   2.925   8.689 -0.5013  0.8215 -0.1509
   34CHL1   C27 2513   2.097   3.128   8.546 -0.2056  0.2207  0.1186
   34CHL1  H27A 2514   2.062   3.197   8.467  0.0434  0.3206  0.0942
   34CHL1  H27B 2515   2.035   3.151   8.635 -1.3703  1.7790 -1.0816
   34CHL1  H27C 2516   2.203   3.157   8.562 -0.3924  2.0377 -1.7707
   35CHL1    C3 2517   4.851   4.019   7.189  0.4990 -0.3231  0.0931
   35CHL1    H3 2518   4.809   4.117   7.161  0.9681 -0.2276 -0.2822
   35CHL1    O3 2519   4.824   3.935   7.076  0.7014 -0.1944 -0.1960
   35CHL1   H3' 2520   4.912   3.910   7.050  1.2294  2.1341 -0.7080
   35CHL1    C4 2521   4.991   4.035   7.229 -0.2706 -0.2698 -0.7801
   35CHL1   H4A 2522   5.046   3.939   7.244  1.0977  0.5759 -0.3118
   35CHL1   H4B 2523   5.045   4.079   7.143 -1.4812 -0.0624 -1.4391
   35CHL1    C5 2524   5.015   4.118   7.354  0.3524  0.6933 -0.5188
   35CHL1    C6 2525   5.094   4.225   7.348  0.1598  0.2347  0.0600
   35CHL1    H6 2526   5.137   4.253   7.251 -0.4316  0.8749 -0.0248
   35CHL1    C7 2527   5.131   4.304   7.468  0.3570 -0.2771 -0.3930
   35CHL1   H7A 2528   5.241   4.309   7.471  0.3275  2.6526 -2.8060
   35CHL1   H7B 2529   5.095   4.409   7.468 -3.3565 -1.4735  0.4178
   35CHL1    C8 2530   5.091   4.230   7.610 -0.1260 -0.8233  0.7820
   35CHL1    H8 2531   5.162   4.144   7.619 -0.7097 -1.9674 -3.9869
   35CHL1   C14 2532   5.099   4.330   7.727  0.1060 -0.4719  0.3953
   35CHL1   H14 2533   5.032   4.413   7.695 -0.4597 -0.8655  0.5534
   35CHL1   C15 2534   5.234   4.403   7.744 -0.9640 -0.3015 -0.0533
   35CHL1  H15A 2535   5.317   4.342   7.701  2.4565  0.9699  4.4316
   35CHL1  H15B 2536   5.235   4.501   7.692  0.1215 -2.1257 -3.6741
   35CHL1   C16 2537   5.255   4.421   7.896  0.8500 -0.2527 -0.2273
   35CHL1  H16A 2538   5.340   4.355   7.922 -0.0102 -0.5619  1.9096
   35CHL1  H16B 2539   5.283   4.524   7.929 -0.0727 -0.4200  1.1432
   35CHL1   C17 2540   5.117   4.378   7.958 -0.0440 -0.0913  0.5930
   35CHL1   H17 2541   5.048   4.464   7.941 -0.3138 -0.5790 -0.8316
   35CHL1   C13 2542   5.075   4.264   7.862  0.6915  0.3412  0.5262
   35CHL1   C18 2543   5.164   4.154   7.894  0.0308 -0.1152 -0.5836
   35CHL1  H18A 2544   5.273   4.175   7.901  0.3458 -1.6319 -0.6292
   35CHL1  H18B 2545   5.133   4.099   7.986 -1.6526  0.0944 -1.0069
   35CHL1  H18C 2546   5.163   4.075   7.815 -0.7286 -0.1562 -0.5343
   35CHL1   C12 2547   4.932   4.214   7.847  0.5692  0.5964  0.3460
   35CHL1  H12A 2548   4.890   4.163   7.936  0.2160 -1.6591 -1.0564
   35CHL1  H12B 2549   4.870   4.306   7.837  0.3751  0.4325  0.0532
   35CHL1   C11 2550   4.907   4.108   7.736 -0.4011 -0.0143 -0.6655
   35CHL1  H11A 2551   4.962   4.016   7.764 -1.4999 -0.4922 -0.0033
   35CHL1  H11B 2552   4.803   4.073   7.719  0.1411 -0.7954 -2.4958
   35CHL1    C9 2553   4.957   4.162   7.597  0.6248  0.0448  0.1614
   35CHL1    H9 2554   4.887   4.247   7.581 -0.7429 -0.8646  1.2010
   35CHL1   C10 2555   4.941   4.060   7.481  0.0747 -0.9135  0.5133
   35CHL1   C19 2556   4.998   3.927   7.523 -0.2733  0.1320  0.3187
   35CHL1  H19A 2557   4.919   3.875   7.581 -1.0518 -3.4614 -3.7607
   35CHL1  H19B 2558   5.020   3.862   7.436  0.4859  0.2229  0.4420
   35CHL1  H19C 2559   5.091   3.950   7.579  1.2211  1.5283 -2.6283
   35CHL1    C1 2560   4.798   4.051   7.425  0.2321  0.1368  0.3068
   35CHL1   H1A 2561   4.718   4.028   7.499  0.2130  1.6568  0.7948
   35CHL1   H1B 2562   4.760   4.152   7.398 -0.8667 -0.4814 -0.4916
   35CHL1    C2 2563   4.768   3.966   7.305  1.1978  0.4297 -0.5111
   35CHL1   H2A 2564   4.658   3.960   7.291  0.8850 -0.9164  2.1825
   35CHL1   H2B 2565   4.815   3.866   7.313  0.3085  0.0061 -0.4708
   35CHL1   C20 2566   5.120   4.345   8.117  0.4397  0.0146 -0.1021
   35CHL1   H20 2567   5.166   4.244   8.127  0.4369 -0.0956 -1.1125
   35CHL1   C21 2568   4.968   4.341   8.167  0.6896  0.3191 -0.8798
   35CHL1  H21A 2569   4.914   4.433   8.137 -2.4395 -0.4086  2.2271
   35CHL1  H21B 2570   4.965   4.331   8.277  0.0731 -0.4177 -0.9636
   35CHL1  H21C 2571   4.921   4.251   8.121  0.8452  0.3824 -1.1677
   35CHL1   C22 2572   5.209   4.442   8.193  0.2975  0.9670 -0.0199
   35CHL1  H22A 2573   5.310   4.428   8.149  1.0981 -0.2256  2.1423
   35CHL1  H22B 2574   5.187   4.549   8.170 -0.7901  0.8864  0.5926
   35CHL1   C23 2575   5.209   4.413   8.343 -0.1737 -0.7278 -0.0997
   35CHL1  H23A 2576   5.114   4.435   8.398 -0.4792 -1.1056 -0.4690
   35CHL1  H23B 2577   5.231   4.305   8.352 -0.7619 -0.8453 -0.0484
   35CHL1   C24 2578   5.322   4.497   8.414 -0.0183  0.0124 -0.5770
   35CHL1  H24A 2579   5.422   4.490   8.366  0.9533  2.5464  0.9166
   35CHL1  H24B 2580   5.297   4.603   8.390 -0.0372 -0.0556 -0.8579
   35CHL1   C25 2581   5.334   4.464   8.565  0.2425  0.8212 -0.5806
   35CHL1   H25 2582   5.250   4.516   8.617  0.0191 -1.9680  1.9615
   35CHL1   C26 2583   5.343   4.315   8.605  0.1530  0.2520  0.0249
   35CHL1  H26A 2584   5.252   4.253   8.589  0.2244  0.1636 -0.0348
   35CHL1  H26B 2585   5.434   4.268   8.563 -0.0448  0.3748 -0.5491
   35CHL1  H26C 2586   5.366   4.317   8.714  2.1299  2.8191 -0.3911
   35CHL1   C27 2587   5.456   4.535   8.627 -0.0864 -0.0728 -0.0347
   35CHL1  H27A 2588   5.437   4.564   8.732 -1.6587 -0.5052 -0.1789
   35CHL1  H27B 2589   5.473   4.627   8.567  0.9864 -1.9465 -2.7214
   35CHL1  H27C 2590   5.547   4.471   8.628  1.6496  2.3305 -0.4627
   36CHL1    C3 2591   5.954   3.267   7.031  0.2318  0.6641 -0.2253
   36CHL1    H3 2592   5.855   3.215   7.026  0.9774 -0.8234  0.1591
   36CHL1    O3 2593   5.990   3.295   6.899 -0.2033  0.3756  0.0543
   36CHL1   H3' 2594   6.083   3.318   6.909 -0.4827  2.3245 -1.6310
   36CHL1    C4 2595   5.966   3.397   7.120 -0.2776  0.8978  0.6152
   36CHL1   H4A 2596   6.071   3.431   7.109  0.6211 -1.4757  1.4544
   36CHL1   H4B 2597   5.898   3.469   7.068  1.0619  1.9700  0.3269
   36CHL1    C5 2598   5.932   3.368   7.265  0.3708  0.3602  0.5847
   36CHL1    C6 2599   5.831   3.439   7.327  0.0965  0.6281  0.3796
   36CHL1    H6 2600   5.772   3.509   7.266 -0.8087 -0.7956 -0.4120
   36CHL1    C7 2601   5.804   3.431   7.474 -0.7443 -0.0620 -0.0276
   36CHL1   H7A 2602   5.820   3.530   7.524  1.8432 -0.0625 -0.7986
   36CHL1   H7B 2603   5.702   3.398   7.503 -0.5813 -0.4439  0.1252
   36CHL1    C8 2604   5.908   3.335   7.543 -0.3601  0.7066 -0.4970
   36CHL1    H8 2605   5.989   3.406   7.568  1.1321 -1.7999  2.0298
   36CHL1   C14 2606   5.850   3.280   7.675 -0.3885 -0.2146 -0.4154
   36CHL1   H14 2607   5.773   3.205   7.647 -2.8973  2.4749 -1.0118
   36CHL1   C15 2608   5.778   3.382   7.766 -0.1890 -0.8200 -0.0145
   36CHL1  H15A 2609   5.836   3.477   7.767  0.8297 -1.3532 -2.7337
   36CHL1  H15B 2610   5.678   3.408   7.726  0.2982  1.5632  0.2087
   36CHL1   C16 2611   5.773   3.311   7.903  0.0111 -0.8829  0.4117
   36CHL1  H16A 2612   5.828   3.375   7.976 -0.5274 -0.7120  0.6644
   36CHL1  H16B 2613   5.672   3.299   7.947 -0.5147 -3.7148 -1.4008
   36CHL1   C17 2614   5.855   3.179   7.882 -0.7819 -0.2690  0.1180
   36CHL1   H17 2615   5.785   3.095   7.867 -1.5988 -0.0101  2.3189
   36CHL1   C13 2616   5.940   3.200   7.756  0.4186  0.1826 -0.3957
   36CHL1   C18 2617   6.067   3.278   7.798  0.8151 -0.1011  0.0935
   36CHL1  H18A 2618   6.139   3.214   7.854 -1.3308 -0.5242  2.4610
   36CHL1  H18B 2619   6.127   3.310   7.710  1.7792 -0.9215  0.4351
   36CHL1  H18C 2620   6.043   3.366   7.861  0.6740  0.8468 -1.2485
   36CHL1   C12 2621   5.970   3.068   7.677  0.6871  0.1560  0.6933
   36CHL1  H12A 2622   6.045   3.006   7.730  0.4393 -0.9073 -0.1776
   36CHL1  H12B 2623   5.874   3.019   7.651  0.4224  0.5297  0.9667
   36CHL1   C11 2624   6.034   3.105   7.540  0.9929  0.0670 -0.3343
   36CHL1  H11A 2625   6.133   3.151   7.560  1.0542  0.7395 -2.0646
   36CHL1  H11B 2626   6.038   3.019   7.469 -0.6006  0.6131 -1.0962
   36CHL1    C9 2627   5.943   3.217   7.463  0.5694 -0.2263 -0.7611
   36CHL1    H9 2628   5.845   3.168   7.443 -0.3224  0.4398  1.8154
   36CHL1   C10 2629   6.016   3.257   7.329  0.3910  0.1828  0.0118
   36CHL1   C19 2630   6.162   3.306   7.354 -0.5131  0.0325 -0.2213
   36CHL1  H19A 2631   6.196   3.365   7.266 -0.5546 -0.6845 -0.7261
   36CHL1  H19B 2632   6.172   3.378   7.438  1.5763 -0.9666  0.3996
   36CHL1  H19C 2633   6.238   3.228   7.373  1.6900  2.2839  0.4771
   36CHL1    C1 2634   6.008   3.131   7.234  0.6804 -0.2292  0.0410
   36CHL1   H1A 2635   6.086   3.057   7.263  0.2401  0.5549  3.3970
   36CHL1   H1B 2636   5.913   3.074   7.247 -1.0354  2.6195  0.3264
   36CHL1    C2 2637   6.044   3.157   7.086  0.5957 -0.0831 -0.2050
   36CHL1   H2A 2638   6.012   3.061   7.040 -2.3061  0.6524  0.1888
   36CHL1   H2B 2639   6.155   3.166   7.079  0.9732 -2.6492  1.4697
   36CHL1   C20 2640   5.917   3.135   8.022  0.8781  0.4288 -0.0788
   36CHL1   H20 2641   5.992   3.211   8.053 -0.1718  1.5641 -0.2963
   36CHL1   C21 2642   5.995   2.999   8.006 -0.2187 -0.7823 -0.1259
   36CHL1  H21A 2643   6.046   2.970   8.100  0.2315  0.2379 -0.0475
   36CHL1  H21B 2644   6.066   2.990   7.921  0.8830  2.3893  0.3821
   36CHL1  H21C 2645   5.917   2.922   7.989  0.1831 -1.1778 -0.1689
   36CHL1   C22 2646   5.814   3.118   8.137 -0.2901  0.1570 -0.2693
   36CHL1  H22A 2647   5.758   3.214   8.146 -0.6468 -0.0372 -0.3895
   36CHL1  H22B 2648   5.739   3.041   8.109  0.3091 -1.0838  1.4177
   36CHL1   C23 2649   5.869   3.070   8.279 -0.5980 -0.0154  0.3287
   36CHL1  H23A 2650   5.792   3.082   8.359 -0.8374 -0.7306  0.2030
   36CHL1  H23B 2651   5.904   2.965   8.278  0.8244  0.4445  0.7719
   36CHL1   C24 2652   5.990   3.150   8.327  0.5429  0.4627  0.7562
   36CHL1  H24A 2653   6.088   3.112   8.290  0.4951 -0.5160  1.6192
   36CHL1  H24B 2654   5.970   3.250   8.283 -0.8480  0.2477  0.8920
   36CHL1   C25 2655   5.982   3.169   8.480 -0.2076  0.0132  0.4694
   36CHL1   H25 2656   5.883   3.154   8.528 -0.2363 -0.7432  0.1724
   36CHL1   C26 2657   6.071   3.061   8.540 -0.5576 -0.1130  0.2985
   36CHL1  H26A 2658   6.060   2.974   8.473  1.3113 -0.8804  0.9701
   36CHL1  H26B 2659   6.177   3.094   8.536 -1.0275  1.3556 -0.4919
   36CHL1  H26C 2660   6.040   3.038   8.644  1.4961 -0.8432  0.7801
   36CHL1   C27 2661   6.036   3.310   8.517 -0.5313  0.1351  0.4397
   36CHL1  H27A 2662   6.061   3.309   8.625  0.0317  0.1481  0.3150
   36CHL1  H27B 2663   6.126   3.328   8.454 -0.9549  0.4533 -0.0725
   36CHL1  H27C 2664   5.958   3.387   8.501  0.3457  0.3744 -3.2131
   37CHL1    C3 2665   2.453   5.478   6.941  0.4003 -0.3046  0.4860
   37CHL1    H3 2666   2.451   5.366   6.941  1.5892 -0.3306 -0.0229
   37CHL1    O3 2667   2.474   5.511   6.800 -0.6351  0.1743 -0.0237
   37CHL1   H3' 2668   2.410   5.454   6.757 -0.3627 -0.3300  0.2286
   37CHL1    C4 2669   2.312   5.531   6.986 -0.2756 -0.0329  0.6091
   37CHL1   H4A 2670   2.311   5.638   6.955  2.5523 -0.1475 -0.0232
   37CHL1   H4B 2671   2.226   5.482   6.936 -0.2435  1.6629 -1.1488
   37CHL1    C5 2672   2.289   5.515   7.136 -0.7348 -0.6527 -1.1203
   37CHL1    C6 2673   2.176   5.460   7.183 -0.1096  0.0727  0.3774
   37CHL1    H6 2674   2.098   5.428   7.111  0.3335  0.0195 -0.0783
   37CHL1    C7 2675   2.147   5.440   7.328 -0.1700 -0.4882 -0.0187
   37CHL1   H7A 2676   2.041   5.468   7.345  0.0339  0.4968 -0.3637
   37CHL1   H7B 2677   2.145   5.333   7.358 -1.7032  0.1480  2.2910
   37CHL1    C8 2678   2.239   5.530   7.416 -0.2937  0.2110 -0.1249
   37CHL1    H8 2679   2.201   5.634   7.404  1.0872  0.7672  0.2446
   37CHL1   C14 2680   2.240   5.475   7.561 -0.1672 -0.7433  0.0409
   37CHL1   H14 2681   2.282   5.373   7.547  1.4420 -0.0401 -0.3510
   37CHL1   C15 2682   2.100   5.446   7.629  0.7083 -0.5615  0.2642
   37CHL1  H15A 2683   2.017   5.515   7.604  1.5080 -0.3799 -2.1008
   37CHL1  H15B 2684   2.072   5.345   7.591 -0.6766  1.0260 -3.1564
   37CHL1   C16 2685   2.132   5.449   7.783  0.1746  0.0776  0.5187
   37CHL1  H16A 2686   2.082   5.534   7.833 -0.8696  0.3348 -0.9298
   37CHL1  H16B 2687   2.109   5.350   7.829  1.8103 -0.4585  0.2212
   37CHL1   C17 2688   2.290   5.473   7.798  0.0958  0.6762 -0.4092
   37CHL1   H17 2689   2.340   5.374   7.793  2.5272  1.9042 -1.3334
   37CHL1   C13 2690   2.326   5.546   7.666 -0.2134  0.1722  0.2129
   37CHL1   C18 2691   2.268   5.690   7.675  0.1178  0.3688  0.4118
   37CHL1  H18A 2692   2.332   5.749   7.744 -1.6721  0.3883  2.0882
   37CHL1  H18B 2693   2.271   5.741   7.576 -0.0031 -0.8835 -0.2444
   37CHL1  H18C 2694   2.161   5.693   7.703  0.5233  3.9711  1.8233
   37CHL1   C12 2695   2.470   5.526   7.620  0.1407 -0.2193  0.0149
   37CHL1  H12A 2696   2.544   5.576   7.686  1.1239 -1.3242 -0.2198
   37CHL1  H12B 2697   2.492   5.417   7.609 -0.0621 -0.2545 -0.0362
   37CHL1   C11 2698   2.481   5.589   7.475 -0.4062  0.3654  0.1060
   37CHL1  H11A 2699   2.440   5.692   7.481 -1.7367 -0.1445 -0.0071
   37CHL1  H11B 2700   2.587   5.580   7.443  0.0487 -1.3517  1.9254
   37CHL1    C9 2701   2.383   5.519   7.378 -0.3193 -0.5581  0.1548
   37CHL1    H9 2702   2.423   5.415   7.374  0.4854 -0.2648  0.3694
   37CHL1   C10 2703   2.407   5.557   7.227  0.4030  0.1082 -0.2225
   37CHL1   C19 2704   2.406   5.716   7.213  0.4693  0.3169 -0.5377
   37CHL1  H19A 2705   2.418   5.756   7.110  0.1410  2.1455  0.1237
   37CHL1  H19B 2706   2.314   5.764   7.252  0.4950 -0.3089  0.3023
   37CHL1  H19C 2707   2.496   5.756   7.265  0.4960 -1.1776  0.6120
   37CHL1    C1 2708   2.541   5.498   7.176  0.4736  0.5099 -0.2190
   37CHL1   H1A 2709   2.617   5.545   7.241 -0.5177  0.7565  0.7736
   37CHL1   H1B 2710   2.548   5.387   7.185 -0.0767  0.4473 -0.5300
   37CHL1    C2 2711   2.564   5.533   7.026 -0.3307  0.0677 -0.1340
   37CHL1   H2A 2712   2.663   5.488   7.003  0.7909  1.4942  1.6234
   37CHL1   H2B 2713   2.579   5.642   7.009  0.0286  0.1189  0.4716
   37CHL1   C20 2714   2.323   5.535   7.933  0.2433  0.1272  0.0350
   37CHL1   H20 2715   2.273   5.632   7.950 -0.8146 -0.7160  1.9516
   37CHL1   C21 2716   2.470   5.562   7.935 -0.6997 -0.3244 -0.5393
   37CHL1  H21A 2717   2.535   5.475   7.917  1.1188  0.6306  1.2125
   37CHL1  H21B 2718   2.494   5.587   8.041  0.7747 -1.9000 -0.4865
   37CHL1  H21C 2719   2.516   5.647   7.880  0.7389 -0.1210  0.9506
   37CHL1   C22 2720   2.268   5.452   8.058  0.2000 -0.1427  0.4077
   37CHL1  H22A 2721   2.186   5.387   8.021  1.8238 -2.8004  1.3451
   37CHL1  H22B 2722   2.353   5.385   8.084  0.3194 -0.1433  0.0116
   37CHL1   C23 2723   2.232   5.539   8.176 -0.1756 -0.0819  0.2677
   37CHL1  H23A 2724   2.322   5.587   8.219  0.9140  0.6148 -2.6821
   37CHL1  H23B 2725   2.162   5.615   8.133  0.0592 -0.0599 -0.0850
   37CHL1   C24 2726   2.168   5.466   8.288 -0.3392  0.1384  0.9828
   37CHL1  H24A 2727   2.069   5.425   8.256 -0.0951 -0.9716  1.5929
   37CHL1  H24B 2728   2.217   5.373   8.324 -0.6778 -1.0859 -1.6297
   37CHL1   C25 2729   2.118   5.550   8.402 -0.3810  0.5492 -0.1539
   37CHL1   H25 2730   2.071   5.639   8.355  2.3241  1.7325 -0.7650
   37CHL1   C26 2731   2.011   5.474   8.493  0.5940 -0.3252  0.4698
   37CHL1  H26A 2732   1.915   5.487   8.439  0.7498 -4.5606 -1.0702
   37CHL1  H26B 2733   2.038   5.368   8.513 -0.9849 -0.6438  1.0207
   37CHL1  H26C 2734   2.006   5.528   8.589 -1.3620  4.0325 -1.9431
   37CHL1   C27 2735   2.233   5.608   8.486  0.1105 -0.0832  0.4052
   37CHL1  H27A 2736   2.195   5.649   8.582  0.0482 -0.3257  0.4843
   37CHL1  H27B 2737   2.303   5.528   8.518  0.7292  0.4453  0.3691
   37CHL1  H27C 2738   2.285   5.686   8.427  0.3321  0.2775  1.0801
   38CHL1    C3 2739   5.354   6.170   6.762  0.0916  0.0271  0.7710
   38CHL1    H3 2740   5.378   6.279   6.763  1.0598 -0.1841  1.5034
   38CHL1    O3 2741   5.381   6.107   6.638 -0.0041 -0.4576 -0.2002
   38CHL1   H3' 2742   5.318   6.034   6.633  1.6855 -1.8998 -1.3415
   38CHL1    C4 2743   5.437   6.094   6.876  0.0084 -1.0122 -0.5050
   38CHL1   H4A 2744   5.421   5.985   6.863 -2.3378 -0.9185  1.2403
   38CHL1   H4B 2745   5.540   6.123   6.844  0.5733 -1.8998  0.5189
   38CHL1    C5 2746   5.392   6.150   7.009  0.1116 -0.0160 -0.3626
   38CHL1    C6 2747   5.479   6.216   7.083  0.0890 -0.2198  0.6511
   38CHL1    H6 2748   5.583   6.234   7.054 -0.7443 -0.5224 -2.6795
   38CHL1    C7 2749   5.439   6.269   7.219  0.1178 -0.0856  0.2862
   38CHL1   H7A 2750   5.525   6.263   7.289 -0.1484  1.8187  0.8207
   38CHL1   H7B 2751   5.390   6.369   7.215  0.9618  0.3576  0.7966
   38CHL1    C8 2752   5.322   6.194   7.284  0.6903 -1.0311  0.8103
   38CHL1    H8 2753   5.360   6.093   7.310 -2.1258 -2.2352  0.4481
   38CHL1   C14 2754   5.283   6.257   7.420  0.5038 -0.4447 -1.1966
   38CHL1   H14 2755   5.239   6.356   7.392  0.8421 -0.2497 -1.0418
   38CHL1   C15 2756   5.392   6.269   7.525  0.4605 -0.0654 -0.1315
   38CHL1  H15A 2757   5.466   6.187   7.512  1.7180  0.8403  1.2599
   38CHL1  H15B 2758   5.450   6.357   7.490 -1.7729  1.9413  1.0701
   38CHL1   C16 2759   5.317   6.282   7.661 -0.5765  0.2534  0.0917
   38CHL1  H16A 2760   5.346   6.195   7.723  0.0648 -1.5531 -2.6467
   38CHL1  H16B 2761   5.357   6.374   7.710 -1.4841  1.4729 -1.4030
   38CHL1   C17 2762   5.163   6.264   7.625  0.6948 -1.3822  0.3289
   38CHL1   H17 2763   5.116   6.360   7.595 -2.2872 -3.6840 -2.8694
   38CHL1   C13 2764   5.165   6.191   7.480  0.0058  0.3357  0.0549
   38CHL1   C18 2765   5.184   6.039   7.517 -0.8721  0.0805  0.0365
   38CHL1  H18A 2766   5.208   5.979   7.427  1.5119  2.9771 -1.3366
   38CHL1  H18B 2767   5.265   6.029   7.593 -1.5282 -0.5037  0.6732
   38CHL1  H18C 2768   5.091   6.007   7.569 -0.4082 -0.0171  0.8157
   38CHL1   C12 2769   5.043   6.199   7.391  0.6259 -0.1093 -0.3192
   38CHL1  H12A 2770   4.963   6.147   7.448  0.4331  1.3970  0.8273
   38CHL1  H12B 2771   4.997   6.300   7.385 -1.1711 -0.6826  2.6304
   38CHL1   C11 2772   5.068   6.146   7.248  0.0732  0.0884  0.9525
   38CHL1  H11A 2773   5.065   6.036   7.264 -0.7614  0.3676  2.8883
   38CHL1  H11B 2774   4.987   6.187   7.183 -0.1000  0.9464  1.7048
   38CHL1    C9 2775   5.204   6.193   7.182 -0.2394  0.5296 -0.4313
   38CHL1    H9 2776   5.186   6.300   7.160 -1.5164  0.1861 -1.1156
   38CHL1   C10 2777   5.240   6.127   7.045 -0.7782  0.5607 -0.6909
   38CHL1   C19 2778   5.209   5.974   7.050  0.2123 -0.4681 -0.7979
   38CHL1  H19A 2779   5.245   5.930   6.955  0.0604  0.6896 -1.3973
   38CHL1  H19B 2780   5.262   5.933   7.139 -1.6833  2.0500  1.5767
   38CHL1  H19C 2781   5.101   5.954   7.067  0.2067 -0.9438 -1.3681
   38CHL1    C1 2782   5.156   6.197   6.935  0.3605 -0.0655  0.0736
   38CHL1   H1A 2783   5.048   6.171   6.941  0.2245  0.1870 -1.2424
   38CHL1   H1B 2784   5.168   6.306   6.949 -1.3042  0.2935 -1.1431
   38CHL1    C2 2785   5.201   6.158   6.790 -0.1596 -0.4356  1.1898
   38CHL1   H2A 2786   5.136   6.217   6.722  0.8163  0.2127  0.8151
   38CHL1   H2B 2787   5.177   6.050   6.781 -0.5726 -0.2064 -0.6940
   38CHL1   C20 2788   5.084   6.206   7.751  1.0296 -0.0847 -0.0376
   38CHL1   H20 2789   5.118   6.101   7.769 -0.2968  0.0643  3.6204
   38CHL1   C21 2790   4.937   6.184   7.725  0.2044  0.3672 -0.7316
   38CHL1  H21A 2791   4.924   6.101   7.651 -1.1839 -0.5229  0.4848
   38CHL1  H21B 2792   4.894   6.281   7.692  0.9937  0.3497 -1.8617
   38CHL1  H21C 2793   4.890   6.143   7.817  1.2274  1.2202  0.1822
   38CHL1   C22 2794   5.105   6.297   7.877  0.3762 -0.4951  0.1007
   38CHL1  H22A 2795   5.201   6.269   7.926  1.9960  1.7302 -1.7570
   38CHL1  H22B 2796   5.119   6.402   7.846 -1.3385 -0.0571  0.7621
   38CHL1   C23 2797   5.000   6.291   7.991 -0.3054 -0.1390 -0.4906
   38CHL1  H23A 2798   4.911   6.354   7.970  0.5136  1.1262 -0.1684
   38CHL1  H23B 2799   4.988   6.183   8.017 -1.4947  0.7562  2.8683
   38CHL1   C24 2800   5.058   6.356   8.115  0.0969  0.4045  0.4007
   38CHL1  H24A 2801   5.155   6.311   8.144  0.1584  0.3757  0.1518
   38CHL1  H24B 2802   5.085   6.463   8.102  0.1901  0.2732 -0.5420
   38CHL1   C25 2803   4.976   6.344   8.251  0.2280  0.4605  0.5100
   38CHL1   H25 2804   4.878   6.395   8.238  0.0659  0.5320  1.9876
   38CHL1   C26 2805   4.945   6.200   8.290 -0.9560  0.4926  0.2837
   38CHL1  H26A 2806   5.047   6.159   8.301 -0.8302  1.2340  2.1684
   38CHL1  H26B 2807   4.903   6.183   8.392  0.9309  0.0217  1.0076
   38CHL1  H26C 2808   4.888   6.144   8.212  0.1913  2.1234 -1.7654
   38CHL1   C27 2809   5.062   6.409   8.365  0.4967  0.0574  0.0709
   38CHL1  H27A 2810   5.009   6.391   8.461  1.3525 -0.9884  0.3581
   38CHL1  H27B 2811   5.156   6.351   8.374  0.0894 -0.6983 -0.4962
   38CHL1  H27C 2812   5.072   6.520   8.366  0.5362  0.0513  0.2407
   39CHL1    C3 2813   5.291   5.220   6.816  0.5288  0.6993  0.2383
   39CHL1    H3 2814   5.360   5.307   6.816 -0.8231  1.7909 -1.9862
   39CHL1    O3 2815   5.283   5.185   6.675 -0.2329  0.1111  0.0961
   39CHL1   H3' 2816   5.253   5.263   6.628 -0.9912  0.2775  0.8510
   39CHL1    C4 2817   5.350   5.092   6.895 -0.2426  0.4660  0.4070
   39CHL1   H4A 2818   5.292   5.004   6.860  0.4194  0.5451 -0.9279
   39CHL1   H4B 2819   5.456   5.094   6.861 -0.2992  2.4401  0.2966
   39CHL1    C5 2820   5.341   5.110   7.045  0.5112  0.1399 -0.6904
   39CHL1    C6 2821   5.454   5.101   7.119 -0.6820 -0.1889  0.5412
   39CHL1    H6 2822   5.547   5.069   7.070 -2.4304 -2.5777 -1.3006
   39CHL1    C7 2823   5.469   5.124   7.263  1.1728 -0.0524  0.9751
   39CHL1   H7A 2824   5.539   5.055   7.314  1.3485 -1.3552 -0.9605
   39CHL1   H7B 2825   5.518   5.224   7.271 -0.8876  0.9821  1.0707
   39CHL1    C8 2826   5.323   5.139   7.330 -0.5139 -0.3377 -0.0245
   39CHL1    H8 2827   5.297   5.031   7.330 -0.0492 -0.4506 -0.4233
   39CHL1   C14 2828   5.349   5.203   7.467 -0.1101  0.3197  0.4624
   39CHL1   H14 2829   5.395   5.302   7.451 -1.2577  0.7241 -0.3619
   39CHL1   C15 2830   5.448   5.136   7.560 -0.2750 -0.2312 -0.2962
   39CHL1  H15A 2831   5.428   5.027   7.566  1.2597 -0.5482 -0.6024
   39CHL1  H15B 2832   5.552   5.165   7.533 -0.7860 -0.1185 -2.2139
   39CHL1   C16 2833   5.421   5.198   7.703  0.6436 -0.0009 -0.2758
   39CHL1  H16A 2834   5.438   5.117   7.778 -0.7845  0.3349  0.4166
   39CHL1  H16B 2835   5.509   5.263   7.723 -0.4858  1.2374  0.7415
   39CHL1   C17 2836   5.284   5.270   7.686  0.3330 -0.5425 -0.1882
   39CHL1   H17 2837   5.302   5.379   7.674  0.5196 -0.5743 -0.2142
   39CHL1   C13 2838   5.228   5.221   7.553  0.5501  0.6594 -0.5145
   39CHL1   C18 2839   5.142   5.094   7.587  0.2555  0.0104  0.7658
   39CHL1  H18A 2840   5.218   5.025   7.630  1.0872 -0.2965 -1.1373
   39CHL1  H18B 2841   5.044   5.108   7.637 -0.0844 -2.2842  0.7851
   39CHL1  H18C 2842   5.111   5.046   7.492  0.2976 -0.4435  0.9827
   39CHL1   C12 2843   5.151   5.327   7.466  0.1291  0.9018 -1.0687
   39CHL1  H12A 2844   5.055   5.356   7.513  0.0744  2.5778 -2.1957
   39CHL1  H12B 2845   5.217   5.416   7.459  0.0261  1.0495 -0.2145
   39CHL1   C11 2846   5.107   5.261   7.335 -0.3576  0.3755 -0.5414
   39CHL1  H11A 2847   5.051   5.166   7.342 -1.7074  1.1907 -0.2263
   39CHL1  H11B 2848   5.047   5.332   7.274 -0.7093  2.3218  1.9863
   39CHL1    C9 2849   5.233   5.223   7.245 -0.4250  0.0032 -0.2725
   39CHL1    H9 2850   5.281   5.322   7.231 -1.9567  0.7290 -0.5411
   39CHL1   C10 2851   5.203   5.164   7.103 -0.3940  0.2702 -0.2139
   39CHL1   C19 2852   5.104   5.043   7.091 -0.1194 -0.1631  0.4330
   39CHL1  H19A 2853   5.094   5.015   6.984  1.4573  0.8217  0.0059
   39CHL1  H19B 2854   5.153   4.961   7.146  0.3723 -0.5488 -0.5725
   39CHL1  H19C 2855   5.004   5.067   7.134 -1.4262 -2.5308 -1.1920
   39CHL1    C1 2856   5.147   5.281   7.012  0.0168 -0.2699  0.0893
   39CHL1   H1A 2857   5.049   5.308   7.055 -0.7216 -1.5534 -0.7392
   39CHL1   H1B 2858   5.219   5.364   7.029 -0.5399  0.1205  0.5568
   39CHL1    C2 2859   5.149   5.263   6.861  0.4934 -0.5384  0.0784
   39CHL1   H2A 2860   5.129   5.363   6.817 -2.3211 -0.7214  0.8138
   39CHL1   H2B 2861   5.062   5.196   6.843  0.9092 -1.1537  0.3509
   39CHL1   C20 2862   5.202   5.261   7.818  0.0331  0.0356 -0.2345
   39CHL1   H20 2863   5.165   5.157   7.832 -0.8366  0.4131  0.2895
   39CHL1   C21 2864   5.084   5.357   7.805  0.7617  0.3956 -0.0734
   39CHL1  H21A 2865   5.022   5.347   7.714  2.1850 -0.8896 -0.9312
   39CHL1  H21B 2866   5.113   5.461   7.828  0.9216 -0.1842  2.5662
   39CHL1  H21C 2867   5.016   5.329   7.888 -0.0584 -0.8658 -1.1543
   39CHL1   C22 2868   5.279   5.293   7.954 -0.5217  0.1936  0.2565
   39CHL1  H22A 2869   5.367   5.225   7.956 -0.5047  0.2317  0.8983
   39CHL1  H22B 2870   5.312   5.398   7.949 -2.2236  0.6449 -2.5521
   39CHL1   C23 2871   5.203   5.268   8.087  0.1041  0.3373 -0.2812
   39CHL1  H23A 2872   5.107   5.322   8.098 -1.1961 -1.7270 -1.2391
   39CHL1  H23B 2873   5.187   5.160   8.069  0.5234  0.7512 -3.3641
   39CHL1   C24 2874   5.290   5.306   8.206  0.7195  0.8250 -0.2472
   39CHL1  H24A 2875   5.372   5.231   8.198  0.2519  0.2741  0.0739
   39CHL1  H24B 2876   5.337   5.407   8.210 -0.0798  1.4364 -4.2327
   39CHL1   C25 2877   5.222   5.287   8.345  0.2230  0.3028  0.3676
   39CHL1   H25 2878   5.181   5.184   8.354 -0.0070  0.3623  0.0055
   39CHL1   C26 2879   5.326   5.307   8.457 -0.2314  0.0178  0.4368
   39CHL1  H26A 2880   5.415   5.244   8.434 -0.4777  0.1575 -0.9385
   39CHL1  H26B 2881   5.343   5.416   8.464 -0.0425  0.0869 -0.9477
   39CHL1  H26C 2882   5.280   5.273   8.552 -0.1476  0.5280  0.6615
   39CHL1   C27 2883   5.107   5.393   8.351  0.5043  0.0241 -0.1261
   39CHL1  H27A 2884   5.047   5.369   8.441 -2.8075  1.9481 -1.7394
   39CHL1  H27B 2885   5.155   5.491   8.372 -0.0123  0.1394  0.5588
   39CHL1  H27C 2886   5.045   5.383   8.259  2.0844 -0.7276 -1.1329
   40CHL1    C3 2887   1.233   4.153   6.889 -0.4024  0.0240  0.4690
   40CHL1    H3 2888   1.145   4.085   6.898 -3.6467  3.9051 -0.2922
   40CHL1    O3 2889   1.253   4.166   6.748  0.4401 -0.3915  0.3081
   40CHL1   H3' 2890   1.305   4.247   6.741  2.3289 -1.4470  1.8130
   40CHL1    C4 2891   1.201   4.296   6.941  0.1504 -0.3240 -0.2516
   40CHL1   H4A 2892   1.285   4.360   6.906  0.0466  0.1948  0.4213
   40CHL1   H4B 2893   1.101   4.323   6.901  0.2373 -1.2032 -1.0795
   40CHL1    C5 2894   1.193   4.292   7.098 -0.3340 -0.3375  0.1335
   40CHL1    C6 2895   1.092   4.327   7.170  0.7564 -0.2783 -0.3053
   40CHL1    H6 2896   1.012   4.376   7.114  1.3952  0.5580 -0.4948
   40CHL1    C7 2897   1.074   4.334   7.310 -0.5767 -0.3243  0.0479
   40CHL1   H7A 2898   1.025   4.430   7.339 -0.1317 -0.2904  0.6861
   40CHL1   H7B 2899   1.006   4.251   7.339 -0.5491  0.9078  3.9530
   40CHL1    C8 2900   1.205   4.322   7.388  0.0193  0.6595 -0.8482
   40CHL1    H8 2901   1.262   4.417   7.381  1.6197 -0.0145  1.9803
   40CHL1   C14 2902   1.183   4.284   7.531 -0.8580 -0.9705  0.5853
   40CHL1   H14 2903   1.121   4.192   7.525  0.5059 -1.7396 -2.5176
   40CHL1   C15 2904   1.110   4.391   7.614  0.6160 -0.1089  0.5076
   40CHL1  H15A 2905   1.147   4.492   7.585 -0.6266  0.0747 -0.4530
   40CHL1  H15B 2906   1.001   4.389   7.595  1.1052 -1.4264 -2.5056
   40CHL1   C16 2907   1.141   4.346   7.760 -0.6221  0.3961 -0.2366
   40CHL1  H16A 2908   1.185   4.437   7.806 -2.7391  2.3348 -1.8840
   40CHL1  H16B 2909   1.048   4.321   7.816 -1.0820  0.4214 -0.9860
   40CHL1   C17 2910   1.241   4.226   7.760 -0.4643  0.3554  0.0810
   40CHL1   H17 2911   1.179   4.134   7.750 -0.5541  0.4978 -0.7506
   40CHL1   C13 2912   1.309   4.253   7.616 -1.2597 -0.2749 -0.0443
   40CHL1   C18 2913   1.404   4.371   7.630  0.4753 -0.4027 -0.4033
   40CHL1  H18A 2914   1.410   4.441   7.543  3.1919  3.0604  2.4514
   40CHL1  H18B 2915   1.367   4.443   7.706  0.9144  0.0892 -0.6476
   40CHL1  H18C 2916   1.507   4.336   7.651  1.4576  0.8928 -2.7709
   40CHL1   C12 2917   1.381   4.133   7.555  0.1806  0.2076  0.1344
   40CHL1  H12A 2918   1.475   4.108   7.609  1.6685  2.4893 -1.3100
   40CHL1  H12B 2919   1.312   4.050   7.577 -0.2981  0.6102  0.1546
   40CHL1   C11 2920   1.408   4.157   7.404  0.1717  1.0319 -0.5712
   40CHL1  H11A 2921   1.476   4.246   7.403 -0.8953  1.8557 -1.8374
   40CHL1  H11B 2922   1.466   4.070   7.366 -0.1579  0.7240 -0.3693
   40CHL1    C9 2923   1.287   4.203   7.323  0.0317 -0.8909  0.0503
   40CHL1    H9 2924   1.220   4.116   7.337 -0.4932 -0.8146 -1.9061
   40CHL1   C10 2925   1.316   4.228   7.169  0.5391  0.4624 -0.1100
   40CHL1   C19 2926   1.446   4.317   7.145  0.5002  0.3371 -0.4138
   40CHL1  H19A 2927   1.435   4.412   7.202 -0.5014 -0.7621  1.2560
   40CHL1  H19B 2928   1.534   4.262   7.184 -0.7488 -1.8797 -0.6024
   40CHL1  H19C 2929   1.467   4.336   7.038  0.5771 -0.3637 -0.5251
   40CHL1    C1 2930   1.341   4.081   7.099  0.0414 -0.9928 -0.5031
   40CHL1   H1A 2931   1.428   4.034   7.150 -1.2809 -1.0027  1.7969
   40CHL1   H1B 2932   1.260   4.015   7.135 -1.2393  1.1625  0.6875
   40CHL1    C2 2933   1.360   4.084   6.938  0.2160 -0.4503 -0.1517
   40CHL1   H2A 2934   1.365   3.990   6.880 -2.8683 -0.0846 -1.1288
   40CHL1   H2B 2935   1.455   4.138   6.920 -0.5963  1.2117  0.4174
   40CHL1   C20 2936   1.331   4.207   7.891  0.1217  0.0665  0.3626
   40CHL1   H20 2937   1.391   4.298   7.915  0.7889 -0.9026  2.4594
   40CHL1   C21 2938   1.435   4.095   7.868  0.2333 -0.4419  0.0730
   40CHL1  H21A 2939   1.517   4.139   7.808 -1.0220  0.3658 -1.0793
   40CHL1  H21B 2940   1.393   4.003   7.823  1.8629 -2.2316  2.1277
   40CHL1  H21C 2941   1.482   4.065   7.964  1.5322  0.7614 -0.1664
   40CHL1   C22 2942   1.254   4.186   8.018  0.7504 -0.3710 -0.0393
   40CHL1  H22A 2943   1.327   4.173   8.101 -0.4305  1.0164  1.2399
   40CHL1  H22B 2944   1.194   4.273   8.050 -0.1875 -0.2368 -2.0884
   40CHL1   C23 2945   1.159   4.065   8.017  0.3561  0.3126  0.7036
   40CHL1  H23A 2946   1.088   4.076   7.932  1.5648  1.7318 -0.1429
   40CHL1  H23B 2947   1.220   3.973   8.004  3.4513  2.2176  1.2629
   40CHL1   C24 2948   1.078   4.054   8.149 -0.5596  0.0980 -0.6163
   40CHL1  H24A 2949   1.046   4.152   8.191 -1.1542  0.5193 -2.0317
   40CHL1  H24B 2950   0.993   3.984   8.132 -1.1507  1.2203 -2.5026
   40CHL1   C25 2951   1.173   3.978   8.250 -0.8093  0.7518  0.3201
   40CHL1   H25 2952   1.275   4.021   8.234 -1.2125  2.3433  1.7939
   40CHL1   C26 2953   1.144   4.009   8.401 -0.5395 -0.5487 -0.0777
   40CHL1  H26A 2954   1.221   3.980   8.476 -0.0006  1.2429  0.0734
   40CHL1  H26B 2955   1.124   4.117   8.418 -0.2532 -0.3409 -1.0550
   40CHL1  H26C 2956   1.050   3.960   8.436 -0.0969  0.5237  2.8160
   40CHL1   C27 2957   1.175   3.826   8.226 -0.2458 -0.0933  0.6946
   40CHL1  H27A 2958   1.079   3.781   8.257  0.5051 -0.7966  2.0027
   40CHL1  H27B 2959   1.201   3.786   8.125 -0.9378 -2.6258  1.4980
   40CHL1  H27C 2960   1.252   3.779   8.291  0.3791  1.5543  1.1789
   41CHL1    C3 2961   2.263   4.965   6.971 -0.0152 -0.1266 -0.6323
   41CHL1    H3 2962   2.171   4.903   6.956 -0.7597  1.6628 -3.8280
   41CHL1    O3 2963   2.321   4.994   6.842  0.3864  0.5340 -0.5248
   41CHL1   H3' 2964   2.381   4.920   6.829 -0.4192 -0.3763  0.7938
   41CHL1    C4 2965   2.231   5.092   7.044 -0.3371  0.8329  0.6827
   41CHL1   H4A 2966   2.319   5.161   7.048  0.9034 -0.7260  0.5930
   41CHL1   H4B 2967   2.153   5.140   6.981 -0.1077 -1.0903 -1.1155
   41CHL1    C5 2968   2.177   5.060   7.179  0.1770 -0.0518  0.1831
   41CHL1    C6 2969   2.045   5.081   7.211 -0.6629 -0.7016  0.4883
   41CHL1    H6 2970   1.986   5.129   7.132 -0.1799  2.4933  2.0056
   41CHL1    C7 2971   1.996   5.050   7.351  0.5908 -0.1231  0.0876
   41CHL1   H7A 2972   1.926   5.130   7.384  2.4679  1.9198 -0.7014
   41CHL1   H7B 2973   1.950   4.950   7.351 -1.0356  0.6061 -0.6293
   41CHL1    C8 2974   2.104   5.035   7.464 -0.1791 -0.5530  0.2393
   41CHL1    H8 2975   2.139   5.137   7.493 -0.5908 -0.6534  1.0741
   41CHL1   C14 2976   2.032   4.964   7.582 -0.0982 -0.1682  0.0919
   41CHL1   H14 2977   1.996   4.865   7.546 -0.2703  0.8626 -2.6691
   41CHL1   C15 2978   1.922   5.042   7.646 -0.4929  0.0069  0.0061
   41CHL1  H15A 2979   1.958   5.146   7.662 -2.9556  1.2419 -2.1769
   41CHL1  H15B 2980   1.832   5.050   7.581 -0.2184 -2.0797 -0.6708
   41CHL1   C16 2981   1.894   4.965   7.778 -0.0339  0.6255 -0.6074
   41CHL1  H16A 2982   1.870   5.032   7.864  2.3306 -0.0777  0.6477
   41CHL1  H16B 2983   1.805   4.899   7.774  0.0998  0.5362 -2.7399
   41CHL1   C17 2984   2.028   4.885   7.795 -0.9758  0.1680  0.0106
   41CHL1   H17 2985   1.996   4.795   7.737  1.3472 -0.0583 -0.9375
   41CHL1   C13 2986   2.127   4.931   7.693  0.3389 -0.0466 -1.3912
   41CHL1   C18 2987   2.189   5.060   7.749  0.4536  0.3243 -0.1877
   41CHL1  H18A 2988   2.114   5.128   7.795  0.1255  0.5226 -1.0164
   41CHL1  H18B 2989   2.257   5.038   7.835  0.2215 -0.3385 -0.1650
   41CHL1  H18C 2990   2.243   5.119   7.672  0.4625  1.4067  0.6350
   41CHL1   C12 2991   2.234   4.834   7.643  0.2523  0.0028  0.0860
   41CHL1  H12A 2992   2.311   4.808   7.720 -0.1700  0.5852  0.7037
   41CHL1  H12B 2993   2.181   4.744   7.605  1.3745 -0.8100  0.4080
   41CHL1   C11 2994   2.308   4.893   7.527  0.1043  0.7914  0.4525
   41CHL1  H11A 2995   2.366   4.979   7.568  0.1891  0.4841  0.9847
   41CHL1  H11B 2996   2.381   4.821   7.485 -0.8198 -0.4603  0.9381
   41CHL1    C9 2997   2.214   4.938   7.413  0.0016 -0.4739  0.3905
   41CHL1    H9 2998   2.157   4.850   7.379 -1.7381  1.0522 -0.7555
   41CHL1   C10 2999   2.278   4.990   7.275 -0.6882 -0.1257  0.3283
   41CHL1   C19 3000   2.388   5.092   7.312 -0.6077 -0.5415  0.6583
   41CHL1  H19A 3001   2.451   5.118   7.224 -0.1758 -0.9273  0.8554
   41CHL1  H19B 3002   2.338   5.181   7.356  2.0441  1.0017  0.6687
   41CHL1  H19C 3003   2.450   5.051   7.394  0.6921 -1.7308 -0.8908
   41CHL1    C1 3004   2.336   4.873   7.203  0.3953 -0.0930 -0.1556
   41CHL1   H1A 3005   2.428   4.830   7.250 -0.2860 -0.6954  0.6484
   41CHL1   H1B 3006   2.261   4.792   7.215  0.6038 -0.3729 -0.7497
   41CHL1    C2 3007   2.372   4.889   7.053  0.3090  0.6119 -0.6064
   41CHL1   H2A 3008   2.382   4.789   7.005  1.2382  0.7222 -0.6550
   41CHL1   H2B 3009   2.465   4.948   7.040 -0.3326  1.7467  0.0039
   41CHL1   C20 3010   2.071   4.852   7.939 -0.0252  0.3907 -0.0307
   41CHL1   H20 3011   2.180   4.832   7.926  0.6872  3.1183  1.5195
   41CHL1   C21 3012   1.978   4.731   7.979  0.1344 -0.7612  0.4099
   41CHL1  H21A 3013   2.007   4.679   8.072 -2.2981 -0.1312  1.5377
   41CHL1  H21B 3014   1.990   4.655   7.899  1.2089 -0.7363  0.5405
   41CHL1  H21C 3015   1.870   4.754   7.984 -0.0534 -1.7738  1.1450
   41CHL1   C22 3016   2.070   4.962   8.051  0.4592 -0.7215  0.6603
   41CHL1  H22A 3017   2.107   5.057   8.008  1.8562 -1.0527  1.1275
   41CHL1  H22B 3018   1.961   4.963   8.073 -0.2892 -2.0888 -2.7167
   41CHL1   C23 3019   2.129   4.921   8.186  0.3370 -0.0723 -0.2600
   41CHL1  H23A 3020   2.066   4.843   8.234 -1.3931 -0.1057 -2.5122
   41CHL1  H23B 3021   2.233   4.881   8.178  0.6924  0.5427  1.1308
   41CHL1   C24 3022   2.124   5.039   8.288 -0.0009 -0.1763  0.5714
   41CHL1  H24A 3023   2.146   5.135   8.236 -2.6626 -0.9811 -2.2210
   41CHL1  H24B 3024   2.016   5.041   8.316 -0.1748 -1.3078 -0.0229
   41CHL1   C25 3025   2.213   5.022   8.414 -0.3725  0.2487  0.0113
   41CHL1   H25 3026   2.207   4.916   8.446 -0.6730  0.0272 -0.7772
   41CHL1   C26 3027   2.369   5.064   8.396 -0.7008 -0.1524 -0.1100
   41CHL1  H26A 3028   2.425   5.002   8.322 -0.8545 -0.4005 -0.0150
   41CHL1  H26B 3029   2.376   5.168   8.357  0.3179 -0.5149 -0.9151
   41CHL1  H26C 3030   2.431   5.051   8.487 -0.0685  1.5809 -0.2713
   41CHL1   C27 3031   2.166   5.108   8.532  0.4219 -0.1479  0.0806
   41CHL1  H27A 3032   2.191   5.212   8.503  1.5858 -1.0381 -2.2995
   41CHL1  H27B 3033   2.058   5.087   8.549  0.8121 -1.2019  1.3293
   41CHL1  H27C 3034   2.219   5.077   8.624  0.0920  0.2978  0.4219
   42CHL1    C3 3035   4.150   1.601   6.936 -0.1999  0.2401  0.3468
   42CHL1    H3 3036   4.198   1.668   7.009 -0.4757 -0.6819  1.3950
   42CHL1    O3 3037   4.238   1.563   6.835  0.0300 -0.7849  0.5017
   42CHL1   H3' 3038   4.189   1.494   6.791  1.0059 -0.7791 -0.6381
   42CHL1    C4 3039   4.116   1.476   7.022 -0.5239 -0.1045  0.8733
   42CHL1   H4A 3040   4.070   1.408   6.947  2.1053 -0.7148 -0.2221
   42CHL1   H4B 3041   4.206   1.418   7.050 -0.8398 -0.6070  0.8650
   42CHL1    C5 3042   4.014   1.507   7.127 -0.6041  0.9439 -0.1593
   42CHL1    C6 3043   4.052   1.481   7.256  0.2805 -0.3336  0.5680
   42CHL1    H6 3044   4.152   1.441   7.279  1.5575  2.6032  0.2692
   42CHL1    C7 3045   3.965   1.507   7.372  0.6360 -0.2782 -0.9431
   42CHL1   H7A 3046   3.974   1.434   7.456  2.4093 -0.1799 -1.0267
   42CHL1   H7B 3047   3.986   1.610   7.408 -2.9915 -0.6407  2.5880
   42CHL1    C8 3048   3.812   1.511   7.330  0.0735 -0.2927  0.0783
   42CHL1    H8 3049   3.784   1.406   7.307 -2.9579  0.2747  0.8421
   42CHL1   C14 3050   3.729   1.559   7.437 -0.7730 -0.3282 -1.2938
   42CHL1   H14 3051   3.756   1.665   7.455 -1.0842 -0.3292 -0.8172
   42CHL1   C15 3052   3.738   1.479   7.565  0.1616  0.4751 -0.4700
   42CHL1  H15A 3053   3.725   1.369   7.557  0.6143  0.3556  0.4062
   42CHL1  H15B 3054   3.830   1.498   7.624 -1.8541  0.3576  2.8596
   42CHL1   C16 3055   3.630   1.545   7.648  0.0374  0.0773 -0.0533
   42CHL1  H16A 3056   3.590   1.467   7.716 -1.7714  0.1540 -1.0112
   42CHL1  H16B 3057   3.681   1.627   7.704 -0.3604  1.4122 -1.6119
   42CHL1   C17 3058   3.526   1.600   7.545  0.5241  0.1481 -0.3223
   42CHL1   H17 3059   3.545   1.709   7.548 -1.4273  0.5035 -0.2846
   42CHL1   C13 3060   3.574   1.557   7.407 -0.1431  0.0513 -1.0006
   42CHL1   C18 3061   3.525   1.416   7.367  0.0800 -0.0679 -0.0674
   42CHL1  H18A 3062   3.586   1.373   7.285  1.2923  0.1047  0.7161
   42CHL1  H18B 3063   3.528   1.345   7.453 -1.0149  0.0407  0.0672
   42CHL1  H18C 3064   3.426   1.427   7.319  0.3260 -0.6625 -0.7238
   42CHL1   C12 3065   3.557   1.658   7.287  0.0014  0.5902  0.2400
   42CHL1  H12A 3066   3.450   1.670   7.259 -0.3780 -4.2735 -0.7492
   42CHL1  H12B 3067   3.577   1.756   7.335 -1.9293  2.3338 -2.3352
   42CHL1   C11 3068   3.639   1.618   7.163  0.1034 -0.1630 -0.1022
   42CHL1  H11A 3069   3.597   1.524   7.123 -1.7333  1.0603 -1.0967
   42CHL1  H11B 3070   3.631   1.703   7.092 -2.0990 -1.9182 -2.0305
   42CHL1    C9 3071   3.788   1.603   7.208 -0.7592  0.6870  0.2453
   42CHL1    H9 3072   3.837   1.697   7.241  3.1815 -1.2026  0.0386
   42CHL1   C10 3073   3.879   1.564   7.086  0.4174  0.0701  0.0721
   42CHL1   C19 3074   3.803   1.455   7.008  0.1817 -0.6004 -0.0604
   42CHL1  H19A 3075   3.869   1.392   6.944 -1.0590 -2.2177  0.2181
   42CHL1  H19B 3076   3.743   1.398   7.081 -1.6898  1.3263 -0.0645
   42CHL1  H19C 3077   3.734   1.509   6.941 -1.0188 -2.2941 -0.2319
   42CHL1    C1 3078   3.915   1.685   6.998  0.3317  0.5514 -0.4774
   42CHL1   H1A 3079   3.823   1.737   6.964  1.3572  1.7302 -1.4919
   42CHL1   H1B 3080   3.964   1.763   7.060 -0.7186  0.7013  0.1777
   42CHL1    C2 3081   4.015   1.652   6.885 -0.2749 -0.8137 -0.3590
   42CHL1   H2A 3082   4.045   1.741   6.825 -2.3704  1.3141  1.6476
   42CHL1   H2B 3083   3.968   1.571   6.826 -1.7926 -1.9567  2.3426
   42CHL1   C20 3084   3.375   1.577   7.586 -0.1322  0.1560  0.4949
   42CHL1   H20 3085   3.335   1.474   7.571 -0.5876  0.5346 -0.9796
   42CHL1   C21 3086   3.284   1.672   7.504  0.6750 -0.5555 -0.2634
   42CHL1  H21A 3087   3.184   1.662   7.550  0.3488 -0.1569 -0.8808
   42CHL1  H21B 3088   3.268   1.642   7.398 -0.9422 -0.1307 -0.1501
   42CHL1  H21C 3089   3.315   1.779   7.504  0.8069 -0.5853 -1.2210
   42CHL1   C22 3090   3.352   1.590   7.739  0.7574  0.1324  0.2421
   42CHL1  H22A 3091   3.409   1.507   7.785 -1.6885 -2.0468 -0.6046
   42CHL1  H22B 3092   3.403   1.677   7.787  0.7101 -0.2455  0.9879
   42CHL1   C23 3093   3.208   1.583   7.791  0.0445 -0.2971  0.0409
   42CHL1  H23A 3094   3.149   1.677   7.777  0.2922 -0.0238  0.7832
   42CHL1  H23B 3095   3.157   1.510   7.725 -1.7539  1.8864 -1.0770
   42CHL1   C24 3096   3.186   1.536   7.934 -0.0110 -0.1338 -0.7440
   42CHL1  H24A 3097   3.075   1.541   7.937 -0.1099 -0.6398 -2.5717
   42CHL1  H24B 3098   3.233   1.436   7.941  1.2486  0.5659  1.2827
   42CHL1   C25 3099   3.256   1.620   8.042  0.8693  0.0800  0.0295
   42CHL1   H25 3100   3.365   1.610   8.026  0.9743 -1.5766  1.7549
   42CHL1   C26 3101   3.216   1.773   8.040  0.3864  1.1478 -0.4946
   42CHL1  H26A 3102   3.250   1.815   8.137  0.5603  0.4862 -0.2745
   42CHL1  H26B 3103   3.278   1.831   7.968  1.0170  1.4651  0.2981
   42CHL1  H26C 3104   3.106   1.788   8.030  0.3844  1.4841 -0.0109
   42CHL1   C27 3105   3.220   1.566   8.186  0.1952  0.2000 -0.2759
   42CHL1  H27A 3106   3.125   1.604   8.229 -0.1229  1.3705 -1.9663
   42CHL1  H27B 3107   3.298   1.599   8.257 -1.4045  2.1151  0.6482
   42CHL1  H27C 3108   3.239   1.457   8.184  0.9822  0.3421 -0.6549
   43CHL1    C3 3109   3.127   5.628   6.860 -0.4910  0.2216  0.1932
   43CHL1    H3 3110   3.119   5.739   6.868  4.5988  0.7067 -0.2293
   43CHL1    O3 3111   3.145   5.595   6.721 -0.8376 -0.0081  1.3409
   43CHL1   H3' 3112   3.195   5.513   6.715 -1.2943 -0.2849  1.2279
   43CHL1    C4 3113   3.249   5.587   6.943 -0.5185 -0.1122 -0.9682
   43CHL1   H4A 3114   3.279   5.481   6.929 -1.9862 -0.6211 -0.2510
   43CHL1   H4B 3115   3.330   5.650   6.899 -0.4144 -0.4195 -1.2138
   43CHL1    C5 3116   3.221   5.601   7.094  0.7541  0.4899  0.4619
   43CHL1    C6 3117   3.308   5.672   7.164 -0.0537  0.4023  0.4393
   43CHL1    H6 3118   3.402   5.702   7.116  0.3267 -0.8606  0.3978
   43CHL1    C7 3119   3.297   5.685   7.312  0.7886 -0.0206 -0.5695
   43CHL1   H7A 3120   3.400   5.680   7.352  0.2553  0.9008  0.9878
   43CHL1   H7B 3121   3.248   5.784   7.320 -0.7882 -0.6717 -1.7876
   43CHL1    C8 3122   3.199   5.584   7.374 -0.0542  1.2785 -0.4880
   43CHL1    H8 3123   3.247   5.484   7.377 -0.2126  1.1284 -2.0842
   43CHL1   C14 3124   3.177   5.630   7.521 -0.1941  0.2073 -0.5721
   43CHL1   H14 3125   3.135   5.733   7.524  1.0993  0.6955  2.5551
   43CHL1   C15 3126   3.305   5.627   7.620 -0.3797  0.1471  0.3091
   43CHL1  H15A 3127   3.369   5.543   7.585 -1.7915 -0.9516  0.3673
   43CHL1  H15B 3128   3.355   5.726   7.610  1.2113 -0.5281  1.3647
   43CHL1   C16 3129   3.240   5.628   7.755 -0.1671  0.3293  0.1665
   43CHL1  H16A 3130   3.270   5.535   7.808 -1.8823 -0.0253  0.5404
   43CHL1  H16B 3131   3.268   5.719   7.813 -0.9147  0.5452  0.1887
   43CHL1   C17 3132   3.086   5.613   7.742  0.6787 -0.3196  0.1436
   43CHL1   H17 3133   3.046   5.716   7.740 -0.1724 -0.6628 -2.3522
   43CHL1   C13 3134   3.068   5.556   7.599  0.1127  0.5407  0.0373
   43CHL1   C18 3135   3.100   5.409   7.600 -0.1290  0.2774 -0.1421
   43CHL1  H18A 3136   3.114   5.360   7.502 -0.2103 -1.4015  0.6707
   43CHL1  H18B 3137   3.195   5.383   7.652 -0.6645 -1.0564  0.1908
   43CHL1  H18C 3138   3.031   5.351   7.665  0.6030 -0.3255  0.1057
   43CHL1   C12 3139   2.932   5.580   7.517  0.1197 -0.2682 -0.6641
   43CHL1  H12A 3140   2.848   5.521   7.560  0.7286 -1.6346 -1.3185
   43CHL1  H12B 3141   2.922   5.689   7.530  0.9492  0.0671 -2.6100
   43CHL1   C11 3142   2.943   5.531   7.368 -0.8597 -0.5890  0.3155
   43CHL1  H11A 3143   2.944   5.420   7.363  1.3865 -0.5757 -0.2691
   43CHL1  H11B 3144   2.850   5.561   7.316 -1.0265  1.6618  1.7937
   43CHL1    C9 3145   3.063   5.591   7.297 -0.4968 -0.7955 -0.1071
   43CHL1    H9 3146   3.039   5.699   7.288 -0.2534 -0.5551  1.9582
   43CHL1   C10 3147   3.083   5.543   7.143 -0.7044 -0.3281  0.4158
   43CHL1   C19 3148   3.090   5.390   7.125 -0.4477 -0.0769 -0.4026
   43CHL1  H19A 3149   3.135   5.370   7.026  0.6204  0.4492 -0.0395
   43CHL1  H19B 3150   3.141   5.348   7.215 -0.7451  1.9197  0.7328
   43CHL1  H19C 3151   2.991   5.341   7.128 -0.9009  0.8520  0.1204
   43CHL1    C1 3152   2.968   5.590   7.056 -0.0360  0.5074  0.1805
   43CHL1   H1A 3153   2.880   5.534   7.095  1.4149 -1.5374  0.5636
   43CHL1   H1B 3154   2.954   5.699   7.076  0.2214 -0.0813  3.8962
   43CHL1    C2 3155   2.998   5.571   6.906 -0.5947  0.1640  0.4199
   43CHL1   H2A 3156   2.907   5.607   6.854 -0.3378 -0.5782 -0.5614
   43CHL1   H2B 3157   3.004   5.462   6.883  0.3639  0.5523 -1.2663
   43CHL1   C20 3158   3.026   5.542   7.873  0.2233 -0.3287 -0.3578
   43CHL1   H20 3159   3.064   5.438   7.880  0.4635 -0.2006  0.2488
   43CHL1   C21 3160   2.874   5.533   7.855 -0.4858  0.5006  0.5719
   43CHL1  H21A 3161   2.826   5.631   7.831 -1.2118  0.3328  1.3260
   43CHL1  H21B 3162   2.833   5.491   7.949  0.5492  0.1735  0.8781
   43CHL1  H21C 3163   2.841   5.462   7.777 -0.9371  2.1211 -0.7525
   43CHL1   C22 3164   3.082   5.611   8.006 -1.1523 -0.3263  0.4533
   43CHL1  H22A 3165   3.193   5.603   8.015 -1.2641 -2.0874  0.5500
   43CHL1  H22B 3166   3.072   5.720   7.991 -3.4252 -0.5698  0.0715
   43CHL1   C23 3167   3.025   5.554   8.136  0.3569  1.1608  0.0637
   43CHL1  H23A 3168   2.922   5.592   8.150  0.1716  1.3335 -1.7158
   43CHL1  H23B 3169   3.032   5.443   8.132  1.5667  1.2890 -5.0555
   43CHL1   C24 3170   3.097   5.586   8.270 -0.4451 -0.5787  0.4216
   43CHL1  H24A 3171   3.205   5.559   8.272 -0.5741 -1.0144  1.7287
   43CHL1  H24B 3172   3.102   5.697   8.266  1.0439 -0.6806 -1.5761
   43CHL1   C25 3173   3.034   5.537   8.395  0.2643  0.1545 -0.2806
   43CHL1   H25 3174   2.935   5.587   8.401  0.5379  0.4838  1.9845
   43CHL1   C26 3175   3.010   5.390   8.386  0.2400  0.1898 -0.4793
   43CHL1  H26A 3176   2.957   5.354   8.478  0.3382  0.5000 -0.3003
   43CHL1  H26B 3177   2.956   5.361   8.293 -0.9287 -0.5507  0.4053
   43CHL1  H26C 3178   3.107   5.336   8.382 -0.3656 -0.8167 -1.7544
   43CHL1   C27 3179   3.114   5.585   8.523 -0.0099 -0.2191 -0.4871
   43CHL1  H27A 3180   3.215   5.539   8.530  1.1718  2.3100 -0.4436
   43CHL1  H27B 3181   3.120   5.696   8.524 -0.2471 -0.2112  0.3488
   43CHL1  H27C 3182   3.057   5.557   8.614  0.4646 -0.1890 -0.1780
   44CHL1    C3 3183   3.028   4.080   6.958  0.5365  0.2060  0.2800
   44CHL1    H3 3184   3.138   4.065   6.959  0.4316 -0.6331  0.2650
   44CHL1    O3 3185   2.978   4.091   6.823 -0.1091  0.5436 -0.0653
   44CHL1   H3' 3186   2.883   4.076   6.827 -0.0634 -0.5183 -2.3953
   44CHL1    C4 3187   2.976   3.957   7.028 -0.0396 -0.2999  0.9893
   44CHL1   H4A 3188   2.865   3.958   7.017  0.0855 -0.6164 -0.5122
   44CHL1   H4B 3189   3.012   3.863   6.981 -1.3720 -0.8417  1.0295
   44CHL1    C5 3190   2.995   3.951   7.173 -0.0299 -0.2038 -1.0479
   44CHL1    C6 3191   3.065   3.850   7.224  0.0949  0.1831 -0.7420
   44CHL1    H6 3192   3.106   3.772   7.159 -0.2086 -0.7210  0.1371
   44CHL1    C7 3193   3.087   3.839   7.376 -0.7444 -0.1958  0.4679
   44CHL1   H7A 3194   3.078   3.731   7.400  2.5877 -0.1007  2.3967
   44CHL1   H7B 3195   3.192   3.852   7.407  0.2630 -2.3552 -1.7705
   44CHL1    C8 3196   3.000   3.942   7.459 -0.3427  0.1515 -0.2897
   44CHL1    H8 3197   2.897   3.899   7.454 -0.6203  1.0246 -2.9591
   44CHL1   C14 3198   3.046   3.954   7.605  0.4480  0.6171 -0.5865
   44CHL1   H14 3199   3.138   4.014   7.590  1.9541 -1.5648 -0.3444
   44CHL1   C15 3200   3.090   3.824   7.671  0.1657  0.0685  0.4805
   44CHL1  H15A 3201   3.008   3.750   7.666 -0.9681  0.9809  4.0939
   44CHL1  H15B 3202   3.184   3.773   7.642  2.0019  3.1835  0.6602
   44CHL1   C16 3203   3.098   3.862   7.821 -0.1030 -0.1805 -0.3677
   44CHL1  H16A 3204   3.043   3.777   7.868 -0.3631 -0.8496 -1.8154
   44CHL1  H16B 3205   3.200   3.877   7.861 -0.3140 -0.5652  0.3226
   44CHL1   C17 3206   3.026   3.999   7.838 -0.6368 -0.5596  0.7431
   44CHL1   H17 3207   3.101   4.081   7.839  1.1146 -2.1193  1.5918
   44CHL1   C13 3208   2.966   4.033   7.700 -0.0767 -0.1098 -0.3794
   44CHL1   C18 3209   2.818   3.978   7.692 -0.5097  0.2599 -0.0634
   44CHL1  H18A 3210   2.808   3.871   7.722 -0.4657 -0.3153 -2.0317
   44CHL1  H18B 3211   2.760   4.043   7.762  0.3445  2.0937 -1.0255
   44CHL1  H18C 3212   2.765   3.995   7.596 -0.2924 -0.1989 -0.2646
   44CHL1   C12 3213   2.976   4.182   7.646 -0.1397  0.4971  0.7043
   44CHL1  H12A 3214   2.913   4.257   7.698  0.5735  0.5387  1.5231
   44CHL1  H12B 3215   3.079   4.222   7.658  0.4103 -0.9031  0.7689
   44CHL1   C11 3216   2.942   4.191   7.492  0.0776  0.0904  0.2920
   44CHL1  H11A 3217   2.832   4.181   7.492  0.3076 -2.6755 -0.1547
   44CHL1  H11B 3218   2.968   4.295   7.460  0.0185 -0.1770 -0.6275
   44CHL1    C9 3219   3.004   4.082   7.399 -0.0734  0.7263 -0.5665
   44CHL1    H9 3220   3.113   4.102   7.389  0.1441 -0.9856 -1.9910
   44CHL1   C10 3221   2.951   4.080   7.249  0.2089 -0.3598 -0.3963
   44CHL1   C19 3222   2.796   4.101   7.242  0.3810 -0.1038  0.4933
   44CHL1  H19A 3223   2.754   4.088   7.140 -0.6992  0.3552  0.8677
   44CHL1  H19B 3224   2.743   4.028   7.307  1.6535 -1.2306  0.2657
   44CHL1  H19C 3225   2.759   4.203   7.267 -1.4371 -0.6928  0.3374
   44CHL1    C1 3226   3.011   4.206   7.179  0.3434 -0.4624 -0.7080
   44CHL1   H1A 3227   2.984   4.292   7.243  0.1471 -2.7502  2.4306
   44CHL1   H1B 3228   3.121   4.190   7.192  0.1619 -1.8860 -0.8170
   44CHL1    C2 3229   2.992   4.211   7.026 -0.1941 -0.1269 -0.0579
   44CHL1   H2A 3230   3.045   4.298   6.982  1.8956 -1.0260  0.6454
   44CHL1   H2B 3231   2.883   4.228   7.012 -0.0058  0.2814 -1.0574
   44CHL1   C20 3232   2.938   4.014   7.959 -0.2698  0.0086 -0.5706
   44CHL1   H20 3233   2.843   3.959   7.939  0.0538 -0.7914  0.0393
   44CHL1   C21 3234   2.890   4.157   7.983  0.1816 -0.0636  0.2643
   44CHL1  H21A 3235   2.815   4.158   8.065 -1.1089 -3.4089 -0.8040
   44CHL1  H21B 3236   2.841   4.198   7.892 -0.9351 -2.2190 -0.1249
   44CHL1  H21C 3237   2.976   4.217   8.020 -1.0825 -0.0226  3.2763
   44CHL1   C22 3238   2.992   3.951   8.087 -0.6408  0.1357 -0.2029
   44CHL1  H22A 3239   2.929   3.978   8.175 -0.3204 -0.3517  0.1806
   44CHL1  H22B 3240   3.013   3.842   8.088  3.4734  0.7611  4.7251
   44CHL1   C23 3241   3.127   4.011   8.123  0.2551 -0.0641  0.0284
   44CHL1  H23A 3242   3.205   4.004   8.044 -0.7371 -0.6845 -0.9178
   44CHL1  H23B 3243   3.120   4.118   8.151  1.2360  0.1959 -0.7041
   44CHL1   C24 3244   3.191   3.930   8.238  0.0464  0.4210  0.8281
   44CHL1  H24A 3245   3.132   3.929   8.332  0.4432  0.8268  1.0840
   44CHL1  H24B 3246   3.209   3.821   8.220  0.6385  0.7236 -0.5160
   44CHL1   C25 3247   3.327   3.981   8.286  0.0971  0.1625  0.2736
   44CHL1   H25 3248   3.310   4.090   8.294  1.6387  0.5202 -1.1711
   44CHL1   C26 3249   3.376   3.920   8.418  0.3628 -0.7778 -0.0246
   44CHL1  H26A 3250   3.290   3.906   8.486 -1.4391  1.8949 -1.6717
   44CHL1  H26B 3251   3.427   3.822   8.407  0.1217 -0.8413 -0.6024
   44CHL1  H26C 3252   3.444   3.989   8.474 -1.5683 -0.4034  1.9256
   44CHL1   C27 3253   3.443   3.965   8.190 -0.5258 -0.4116  0.1126
   44CHL1  H27A 3254   3.408   4.022   8.101  0.1535  1.7702  1.2002
   44CHL1  H27B 3255   3.538   4.008   8.228 -0.3335 -0.8355  0.1095
   44CHL1  H27C 3256   3.466   3.862   8.158 -0.4717 -1.1801  2.5516
   45CHL1    C3 3257   4.520   2.844   6.583  0.0378  0.0755 -0.1311
   45CHL1    H3 3258   4.431   2.885   6.636  0.7639 -0.1279  1.2813
   45CHL1    O3 3259   4.501   2.870   6.443  0.3439  0.4642  0.2237
   45CHL1   H3' 3260   4.590   2.851   6.413 -0.2952  1.1018 -2.1713
   45CHL1    C4 3261   4.651   2.907   6.630  0.1583 -0.3230  0.1769
   45CHL1   H4A 3262   4.737   2.877   6.565  0.4510  0.8067  0.0381
   45CHL1   H4B 3263   4.633   3.014   6.609 -2.0498 -0.1776  2.6204
   45CHL1    C5 3264   4.682   2.870   6.771  1.2650 -0.8602 -0.2648
   45CHL1    C6 3265   4.703   2.959   6.874  0.6302 -0.3311  0.4270
   45CHL1    H6 3266   4.696   3.068   6.857 -2.1555 -0.3834  0.9485
   45CHL1    C7 3267   4.727   2.911   7.019  0.1163 -0.0495  0.1659
   45CHL1   H7A 3268   4.815   2.969   7.054  0.7553  0.2430 -1.8407
   45CHL1   H7B 3269   4.643   2.937   7.087  0.4295 -0.3245  0.6555
   45CHL1    C8 3270   4.758   2.760   7.040 -0.6331 -0.2604  1.0387
   45CHL1    H8 3271   4.858   2.739   6.998 -1.2374 -1.0805 -0.0371
   45CHL1   C14 3272   4.738   2.724   7.179  0.4155  0.2574 -0.2980
   45CHL1   H14 3273   4.630   2.735   7.203  0.4001  1.8887 -1.0541
   45CHL1   C15 3274   4.795   2.816   7.283 -0.2494 -0.2006 -0.1575
   45CHL1  H15A 3275   4.901   2.829   7.255 -0.6196 -1.7048 -2.4229
   45CHL1  H15B 3276   4.748   2.916   7.279 -1.5188 -0.8105 -0.8570
   45CHL1   C16 3277   4.770   2.739   7.411  0.2475  0.1828 -0.0972
   45CHL1  H16A 3278   4.840   2.750   7.497  0.1894  0.1829 -0.0493
   45CHL1  H16B 3279   4.669   2.779   7.435  0.9189  2.2165 -0.5784
   45CHL1   C17 3280   4.764   2.586   7.370 -0.6381 -0.2451 -0.1783
   45CHL1   H17 3281   4.656   2.563   7.377 -1.5215  3.3679 -1.0060
   45CHL1   C13 3282   4.787   2.578   7.215 -0.3629 -0.4548  0.0640
   45CHL1   C18 3283   4.934   2.553   7.196 -0.1561 -0.8389 -0.2137
   45CHL1  H18A 3284   4.964   2.448   7.217 -2.8123 -1.9835 -1.8859
   45CHL1  H18B 3285   4.991   2.574   7.103  2.3059 -0.1966  1.3933
   45CHL1  H18C 3286   4.988   2.624   7.263 -2.5681  1.5517 -0.7172
   45CHL1   C12 3287   4.692   2.487   7.126 -0.9919 -0.2849  0.3042
   45CHL1  H12A 3288   4.719   2.380   7.141  0.7014 -0.1396 -1.5100
   45CHL1  H12B 3289   4.591   2.493   7.173 -1.4862 -0.5285 -0.7193
   45CHL1   C11 3290   4.688   2.524   6.977 -0.2426 -0.1449  0.7208
   45CHL1  H11A 3291   4.794   2.502   6.953  0.5721  0.4140  3.6463
   45CHL1  H11B 3292   4.621   2.446   6.934 -0.4938 -0.3518  1.4705
   45CHL1    C9 3293   4.661   2.675   6.951  0.4708  1.0186  0.2835
   45CHL1    H9 3294   4.560   2.702   6.991 -0.0114  1.6635 -1.3201
   45CHL1   C10 3295   4.669   2.714   6.795  0.6185  0.0072 -0.1784
   45CHL1   C19 3296   4.795   2.649   6.733  0.2060 -0.1614 -0.4690
   45CHL1  H19A 3297   4.889   2.676   6.787  0.0666  1.6009 -1.0813
   45CHL1  H19B 3298   4.785   2.539   6.728 -0.7089 -0.0906 -0.3385
   45CHL1  H19C 3299   4.802   2.684   6.628 -2.2897  0.0376 -0.5996
   45CHL1    C1 3300   4.535   2.660   6.736  0.3291  0.1022  0.0179
   45CHL1   H1A 3301   4.540   2.550   6.727 -0.3875  0.1533 -1.1735
   45CHL1   H1B 3302   4.445   2.677   6.799  0.0433 -2.4817  0.3336
   45CHL1    C2 3303   4.515   2.694   6.597  0.5772 -0.6632  0.2484
   45CHL1   H2A 3304   4.419   2.646   6.569  0.2354  0.4398 -0.5233
   45CHL1   H2B 3305   4.600   2.647   6.542 -0.5966 -1.2202 -1.1136
   45CHL1   C20 3306   4.830   2.481   7.459 -0.0262 -0.1755  0.2928
   45CHL1   H20 3307   4.939   2.502   7.454  0.1264 -1.2913 -1.4185
   45CHL1   C21 3308   4.812   2.336   7.407  0.6451  0.2161 -0.2592
   45CHL1  H21A 3309   4.709   2.300   7.387  0.9979 -0.4188 -0.9456
   45CHL1  H21B 3310   4.849   2.264   7.484  2.9129  0.1249 -1.3952
   45CHL1  H21C 3311   4.868   2.323   7.312  1.4043 -2.4811  0.4925
   45CHL1   C22 3312   4.789   2.490   7.605 -0.2522  1.0592  0.4166
   45CHL1  H22A 3313   4.851   2.418   7.662 -0.5596 -0.0932 -0.6718
   45CHL1  H22B 3314   4.827   2.585   7.646  2.0778 -0.5117  2.0171
   45CHL1   C23 3315   4.638   2.497   7.640 -0.0243  0.1562 -0.1286
   45CHL1  H23A 3316   4.591   2.596   7.622 -3.7548 -1.5499 -0.2824
   45CHL1  H23B 3317   4.595   2.414   7.580  0.6374  0.0268 -0.4227
   45CHL1   C24 3318   4.614   2.478   7.790  0.2538  0.0714  0.5273
   45CHL1  H24A 3319   4.688   2.409   7.834 -2.8392 -1.3049  3.7834
   45CHL1  H24B 3320   4.624   2.582   7.829  0.9655  1.6300 -3.4968
   45CHL1   C25 3321   4.469   2.436   7.828  0.0477 -0.0513 -1.2293
   45CHL1   H25 3322   4.406   2.520   7.791  0.8094  0.3179 -1.7100
   45CHL1   C26 3323   4.409   2.308   7.767 -0.1730 -0.0359 -0.3528
   45CHL1  H26A 3324   4.471   2.217   7.774 -1.5728 -1.0823 -1.2791
   45CHL1  H26B 3325   4.300   2.293   7.787 -0.1093 -0.6630 -0.4923
   45CHL1  H26C 3326   4.405   2.342   7.661  1.1765 -0.4740 -0.5418
   45CHL1   C27 3327   4.462   2.447   7.983 -0.0807  1.0175  0.2817
   45CHL1  H27A 3328   4.508   2.358   8.030  1.4357  1.4432 -0.3494
   45CHL1  H27B 3329   4.520   2.538   8.012  1.8096 -0.0666  0.0073
   45CHL1  H27C 3330   4.357   2.452   8.018 -0.3520 -1.8836 -0.0498
   46CHL1    C3 3331   3.924   3.597   7.050 -0.1076 -0.4505 -0.9740
   46CHL1    H3 3332   4.026   3.615   7.010  0.1248 -1.1689 -0.7028
   46CHL1    O3 3333   3.834   3.594   6.940 -0.7528 -0.6824 -0.4398
   46CHL1   H3' 3334   3.831   3.505   6.903  0.7725 -0.0963 -1.9882
   46CHL1    C4 3335   3.920   3.465   7.128  0.1123 -0.3594 -0.3347
   46CHL1   H4A 3336   3.816   3.433   7.150 -0.5717  2.1691  0.2835
   46CHL1   H4B 3337   3.959   3.394   7.052  1.9791 -1.5689  1.6788
   46CHL1    C5 3338   4.005   3.479   7.256 -0.3612 -0.7772 -0.3478
   46CHL1    C6 3339   4.097   3.391   7.282 -0.1346 -0.4545  0.1406
   46CHL1    H6 3340   4.112   3.302   7.219  0.6915 -0.1411 -0.1190
   46CHL1    C7 3341   4.173   3.385   7.413 -0.1287  0.1179 -0.7272
   46CHL1   H7A 3342   4.172   3.279   7.445  0.9588  0.8514  1.8861
   46CHL1   H7B 3343   4.278   3.422   7.403 -0.3783  1.2816  0.8222
   46CHL1    C8 3344   4.109   3.471   7.521  0.5913  0.4665  0.4361
   46CHL1    H8 3345   4.011   3.425   7.545 -0.6637  1.6296 -2.3091
   46CHL1   C14 3346   4.196   3.483   7.648 -0.6867 -0.0761 -0.5528
   46CHL1   H14 3347   4.295   3.515   7.610  1.5231 -2.5612  2.9147
   46CHL1   C15 3348   4.223   3.353   7.735  0.4551  0.8229 -0.5574
   46CHL1  H15A 3349   4.133   3.289   7.737  1.3244 -0.4956 -2.4543
   46CHL1  H15B 3350   4.305   3.300   7.681  0.7235 -0.1760  0.7874
   46CHL1   C16 3351   4.272   3.407   7.870  0.3131 -0.0578  0.2784
   46CHL1  H16A 3352   4.195   3.376   7.945 -0.7770 -0.5006 -0.9937
   46CHL1  H16B 3353   4.373   3.376   7.902 -0.2348 -1.3458  0.8135
   46CHL1   C17 3354   4.255   3.553   7.864  0.3485 -0.1436 -0.7637
   46CHL1   H17 3355   4.352   3.589   7.823  0.6005 -0.2641 -0.2898
   46CHL1   C13 3356   4.151   3.590   7.755  0.1447 -0.3413  0.0806
   46CHL1   C18 3357   4.012   3.547   7.811 -0.0429  0.1180  0.8038
   46CHL1  H18A 3358   4.007   3.441   7.844 -0.9850  0.5658  2.1380
   46CHL1  H18B 3359   3.996   3.607   7.903  2.7255 -0.6536  1.8546
   46CHL1  H18C 3360   3.928   3.563   7.741  2.1833  0.6998 -1.8466
   46CHL1   C12 3361   4.152   3.730   7.691  0.3122 -0.7497  0.0680
   46CHL1  H12A 3362   4.118   3.812   7.757  0.5072 -1.4915  1.0959
   46CHL1  H12B 3363   4.257   3.752   7.662 -0.0634 -2.0547 -2.4610
   46CHL1   C11 3364   4.056   3.728   7.570 -0.1258  0.5527  0.7979
   46CHL1  H11A 3365   3.955   3.733   7.615 -0.5175 -1.7695  0.1810
   46CHL1  H11B 3366   4.074   3.821   7.511 -0.0821 -0.6295 -1.0716
   46CHL1    C9 3367   4.081   3.608   7.464  0.1828 -0.2949 -0.3851
   46CHL1    H9 3368   4.174   3.643   7.414  0.1405  0.4923  0.0733
   46CHL1   C10 3369   3.971   3.598   7.352 -0.6367 -0.5525  0.5956
   46CHL1   C19 3370   3.839   3.572   7.420 -0.2713 -0.4277  0.1058
   46CHL1  H19A 3371   3.830   3.474   7.472 -1.6094 -0.0651  0.5947
   46CHL1  H19B 3372   3.813   3.654   7.492  0.8192  0.1031 -0.1022
   46CHL1  H19C 3373   3.767   3.569   7.335  1.0143  0.1746 -1.0188
   46CHL1    C1 3374   3.968   3.729   7.267  0.3016 -0.4785  0.2315
   46CHL1   H1A 3375   3.956   3.819   7.332 -1.3691 -1.8067  1.8188
   46CHL1   H1B 3376   4.074   3.730   7.235  0.6001  2.8860  1.0982
   46CHL1    C2 3377   3.875   3.719   7.145 -0.7926  0.2357  0.1086
   46CHL1   H2A 3378   3.880   3.812   7.084 -1.4268  0.8045  0.9190
   46CHL1   H2B 3379   3.766   3.709   7.168 -0.3564 -2.4573  1.2008
   46CHL1   C20 3380   4.243   3.634   8.000 -0.0723 -0.6146 -0.1607
   46CHL1   H20 3381   4.140   3.674   8.011  0.0146  0.3729 -2.4415
   46CHL1   C21 3382   4.336   3.758   7.983  0.2993  0.2094  0.3976
   46CHL1  H21A 3383   4.311   3.826   8.067 -2.0105  2.2433 -1.8357
   46CHL1  H21B 3384   4.314   3.804   7.884 -1.1421 -1.5931 -0.1506
   46CHL1  H21C 3385   4.441   3.729   7.962  0.3942  0.7946  0.0291
   46CHL1   C22 3386   4.282   3.557   8.137  0.0980  0.5055  0.3150
   46CHL1  H22A 3387   4.202   3.482   8.154  0.3763  0.0641 -0.2994
   46CHL1  H22B 3388   4.376   3.500   8.119  0.0046  0.9091 -1.5361
   46CHL1   C23 3389   4.283   3.649   8.254  0.2885  0.3386 -0.7256
   46CHL1  H23A 3390   4.378   3.705   8.241 -0.8579  2.3373 -0.6760
   46CHL1  H23B 3391   4.195   3.714   8.238 -1.0337 -1.0043  0.8058
   46CHL1   C24 3392   4.278   3.573   8.386 -0.1496  0.5814 -0.0737
   46CHL1  H24A 3393   4.225   3.477   8.369 -1.4811  1.2108  0.4623
   46CHL1  H24B 3394   4.380   3.545   8.420 -0.9422 -0.9353  1.0467
   46CHL1   C25 3395   4.200   3.649   8.496 -0.0645  0.4317 -0.7079
   46CHL1   H25 3396   4.098   3.673   8.459 -0.0484 -0.7435 -1.5460
   46CHL1   C26 3397   4.190   3.574   8.630  0.2214  0.6188 -0.3275
   46CHL1  H26A 3398   4.286   3.547   8.678  0.2655 -0.4333 -1.0134
   46CHL1  H26B 3399   4.133   3.636   8.703  0.7894 -1.5989  2.0608
   46CHL1  H26C 3400   4.135   3.481   8.608  4.0111 -2.0387  0.9129
   46CHL1   C27 3401   4.266   3.785   8.526  0.8810  0.1815  0.1186
   46CHL1  H27A 3402   4.233   3.843   8.615  1.4155 -1.1877  1.2234
   46CHL1  H27B 3403   4.375   3.768   8.531  1.0220  0.5100 -1.4221
   46CHL1  H27C 3404   4.256   3.855   8.440  0.8843 -0.1341 -0.1365
   47CHL1    C3 3405   3.305   3.517   6.589 -0.0641 -0.2442 -0.2874
   47CHL1    H3 3406   3.369   3.605   6.612 -1.3900  0.0571  2.5091
   47CHL1    O3 3407   3.275   3.493   6.455 -0.5560  0.3306 -0.2995
   47CHL1   H3' 3408   3.205   3.428   6.464  0.1930 -0.8447 -2.4118
   47CHL1    C4 3409   3.377   3.396   6.648 -0.4089  0.1255  0.2795
   47CHL1   H4A 3410   3.316   3.307   6.621  1.2727 -1.4206  1.3730
   47CHL1   H4B 3411   3.481   3.392   6.607  0.2202  0.4337  1.8297
   47CHL1    C5 3412   3.383   3.397   6.797  0.0447 -0.3421  0.3538
   47CHL1    C6 3413   3.507   3.385   6.858  0.1968  0.7659  0.0251
   47CHL1    H6 3414   3.595   3.356   6.799 -0.3020  0.1599 -0.4214
   47CHL1    C7 3415   3.530   3.382   7.009 -0.7872 -0.4455  0.2472
   47CHL1   H7A 3416   3.589   3.293   7.037  0.3642 -1.1759 -4.1018
   47CHL1   H7B 3417   3.569   3.483   7.035 -0.9718  0.1055 -1.5682
   47CHL1    C8 3418   3.393   3.361   7.091  0.2879  0.0457 -0.5894
   47CHL1    H8 3419   3.361   3.255   7.091 -0.8162  0.3513  1.5294
   47CHL1   C14 3420   3.418   3.406   7.227 -0.6722  0.3446 -0.1015
   47CHL1   H14 3421   3.436   3.515   7.225 -0.4490  0.3020 -1.4237
   47CHL1   C15 3422   3.531   3.341   7.302 -0.5512 -0.0265 -0.6182
   47CHL1  H15A 3423   3.536   3.231   7.287 -0.2776 -0.1852  0.5982
   47CHL1  H15B 3424   3.632   3.379   7.272  0.2198 -1.8323 -0.3443
   47CHL1   C16 3425   3.498   3.363   7.448 -0.3584 -0.1555  0.0055
   47CHL1  H16A 3426   3.493   3.265   7.500 -0.4707  0.0627  0.4147
   47CHL1  H16B 3427   3.578   3.425   7.494  1.1877 -1.9817 -0.1896
   47CHL1   C17 3428   3.355   3.432   7.457 -0.2799  0.2243  0.2950
   47CHL1   H17 3429   3.377   3.540   7.467  2.4138 -0.1725 -0.9651
   47CHL1   C13 3430   3.293   3.396   7.321  0.2494  0.5871  0.4747
   47CHL1   C18 3431   3.250   3.244   7.326  0.2489  0.5388 -0.4310
   47CHL1  H18A 3432   3.321   3.173   7.375 -2.1477 -2.9824 -1.8557
   47CHL1  H18B 3433   3.160   3.237   7.389 -0.0157 -0.6021 -0.9234
   47CHL1  H18C 3434   3.220   3.207   7.226  0.6510 -1.4105  0.1500
   47CHL1   C12 3435   3.180   3.483   7.254 -0.7146  0.2425  0.0142
   47CHL1  H12A 3436   3.087   3.474   7.314  0.4300  0.8292  1.9339
   47CHL1  H12B 3437   3.217   3.588   7.258  2.3553 -0.8355  1.7152
   47CHL1   C11 3438   3.153   3.441   7.116 -0.4388 -0.3425  0.1773
   47CHL1  H11A 3439   3.098   3.344   7.110 -1.6097  0.3189  0.2362
   47CHL1  H11B 3440   3.086   3.515   7.068  0.9786  0.9744  0.2169
   47CHL1    C9 3441   3.278   3.441   7.033  0.4864  0.2504  0.4798
   47CHL1    H9 3442   3.315   3.545   7.046  1.7581  0.1206 -1.8675
   47CHL1   C10 3443   3.256   3.432   6.876 -0.2798 -0.1631  0.9304
   47CHL1   C19 3444   3.167   3.309   6.860 -0.1216  0.1913 -0.2615
   47CHL1  H19A 3445   3.066   3.338   6.895  1.1166  2.6515  1.4932
   47CHL1  H19B 3446   3.155   3.268   6.758  1.2456 -0.9015  0.0092
   47CHL1  H19C 3447   3.211   3.223   6.915 -1.6139 -0.7094 -0.4657
   47CHL1    C1 3448   3.190   3.558   6.817 -0.1707  0.2276  0.3951
   47CHL1   H1A 3449   3.095   3.584   6.868 -1.6586 -3.3079 -0.4279
   47CHL1   H1B 3450   3.254   3.646   6.835 -0.9253  1.0410 -0.8685
   47CHL1    C2 3451   3.175   3.538   6.663  0.2442 -0.2935  0.4298
   47CHL1   H2A 3452   3.123   3.632   6.634 -1.3569 -0.9242  1.2160
   47CHL1   H2B 3453   3.102   3.459   6.636  0.8365 -0.1949 -1.5450
   47CHL1   C20 3454   3.283   3.401   7.589  0.1251  0.3904  0.5001
   47CHL1   H20 3455   3.282   3.290   7.596  2.5749  0.4265  1.6854
   47CHL1   C21 3456   3.144   3.466   7.595  0.9580 -0.4349  0.9113
   47CHL1  H21A 3457   3.085   3.446   7.687 -0.4415 -0.8732 -0.0672
   47CHL1  H21B 3458   3.077   3.441   7.510 -2.1197  3.7305  1.9243
   47CHL1  H21C 3459   3.156   3.575   7.579 -0.6761 -0.5286 -1.1142
   47CHL1   C22 3460   3.355   3.455   7.713  0.1577  0.0204  0.3846
   47CHL1  H22A 3461   3.459   3.418   7.713 -1.0518 -3.5931  0.0642
   47CHL1  H22B 3462   3.357   3.566   7.712  1.6753  0.0485  2.5330
   47CHL1   C23 3463   3.294   3.410   7.849 -0.7707 -0.0724 -0.2692
   47CHL1  H23A 3464   3.217   3.485   7.876 -1.3283 -0.6570 -0.2253
   47CHL1  H23B 3465   3.247   3.310   7.834  0.4739 -1.0240  1.8640
   47CHL1   C24 3466   3.410   3.411   7.952  0.0348 -0.1637 -1.0023
   47CHL1  H24A 3467   3.468   3.317   7.946 -1.0841 -0.8227 -1.8084
   47CHL1  H24B 3468   3.484   3.485   7.914 -0.3519  1.0741  0.6032
   47CHL1   C25 3469   3.369   3.442   8.098 -0.2001  0.2957 -0.4743
   47CHL1   H25 3470   3.290   3.368   8.124  1.1137 -1.1172 -0.4445
   47CHL1   C26 3471   3.476   3.425   8.205  0.1459  0.1426 -0.2242
   47CHL1  H26A 3472   3.443   3.456   8.306 -2.1994 -0.1156 -0.8928
   47CHL1  H26B 3473   3.511   3.320   8.212  1.2022  0.6793  3.9704
   47CHL1  H26C 3474   3.567   3.482   8.175  0.5646  0.5246  1.6985
   47CHL1   C27 3475   3.304   3.573   8.116  0.0139 -0.4530  0.1498
   47CHL1  H27A 3476   3.377   3.652   8.090 -1.0557  0.6859  0.5701
   47CHL1  H27B 3477   3.227   3.596   8.040  0.3165  1.2309  0.3327
   47CHL1  H27C 3478   3.263   3.583   8.219  0.1039 -2.2153  0.3861
   48CHL1    C3 3479   6.703   5.902   6.465 -0.0063  0.4739 -0.8740
   48CHL1    H3 3480   6.775   5.984   6.483  0.8118  0.3377 -3.3969
   48CHL1    O3 3481   6.679   5.881   6.323 -0.2308 -0.7053 -0.6731
   48CHL1   H3' 3482   6.608   5.943   6.302 -1.1037 -0.7122  2.0641
   48CHL1    C4 3483   6.771   5.782   6.522  0.0446 -0.2429 -0.2761
   48CHL1   H4A 3484   6.721   5.685   6.497  1.3805 -0.9325 -0.2873
   48CHL1   H4B 3485   6.866   5.769   6.466 -0.8012  0.3624 -1.9233
   48CHL1    C5 3486   6.795   5.788   6.675  0.1823 -0.3396 -0.5380
   48CHL1    C6 3487   6.917   5.781   6.737 -0.0646  0.5332 -0.4148
   48CHL1    H6 3488   7.016   5.775   6.689  0.4842  1.0926  0.6195
   48CHL1    C7 3489   6.935   5.790   6.889  0.0527  0.5548  0.5805
   48CHL1   H7A 3490   7.011   5.717   6.924 -2.1757 -2.8978 -1.3878
   48CHL1   H7B 3491   6.974   5.889   6.920 -0.5889  0.2589  2.4272
   48CHL1    C8 3492   6.800   5.770   6.965 -0.0955 -0.3125 -0.1972
   48CHL1    H8 3493   6.772   5.663   6.957  0.6532 -0.6759  1.6969
   48CHL1   C14 3494   6.823   5.823   7.105  0.0420  0.2609 -0.3185
   48CHL1   H14 3495   6.815   5.932   7.090 -3.3568  0.2402  0.6870
   48CHL1   C15 3496   6.946   5.777   7.180  0.2550 -0.1381  0.5424
   48CHL1  H15A 3497   6.972   5.671   7.164  3.2829  0.5898  0.4445
   48CHL1  H15B 3498   7.032   5.843   7.154  0.4641 -0.0382  1.4625
   48CHL1   C16 3499   6.906   5.796   7.326  0.0820 -0.6179  0.7697
   48CHL1  H16A 3500   6.922   5.701   7.381  2.6345 -2.0434 -2.3381
   48CHL1  H16B 3501   6.978   5.874   7.358 -0.3230  0.1434 -0.1524
   48CHL1   C17 3502   6.756   5.840   7.325  0.0728  0.1792  0.8202
   48CHL1   H17 3503   6.763   5.951   7.321  0.5057  0.0991 -0.8097
   48CHL1   C13 3504   6.700   5.793   7.195  0.1586  0.4641  0.2930
   48CHL1   C18 3505   6.669   5.640   7.200 -0.0988  0.1362  0.0767
   48CHL1  H18A 3506   6.757   5.577   7.223  0.0277  0.6771  1.1120
   48CHL1  H18B 3507   6.597   5.622   7.282  0.2695  0.1077  0.3947
   48CHL1  H18C 3508   6.624   5.604   7.105 -1.1979 -0.4375  0.8020
   48CHL1   C12 3509   6.579   5.869   7.138 -0.4748 -1.2015  0.0272
   48CHL1  H12A 3510   6.488   5.866   7.201  0.6633  1.9452  1.9717
   48CHL1  H12B 3511   6.611   5.975   7.131  1.9585 -1.8655  0.3236
   48CHL1   C11 3512   6.549   5.836   6.987 -0.5041  0.1952 -0.3861
   48CHL1  H11A 3513   6.510   5.732   6.984  3.2052 -1.2785 -0.0558
   48CHL1  H11B 3514   6.481   5.911   6.940  1.5233  0.7058 -2.5876
   48CHL1    C9 3515   6.684   5.845   6.902 -0.2009 -0.7642 -0.4817
   48CHL1    H9 3516   6.713   5.952   6.894 -0.4523 -0.6368  0.3474
   48CHL1   C10 3517   6.660   5.810   6.750 -0.5968  0.1204 -0.7272
   48CHL1   C19 3518   6.571   5.682   6.738  0.2400 -0.2141 -0.5698
   48CHL1  H19A 3519   6.620   5.603   6.799  2.0705  0.5162 -1.0597
   48CHL1  H19B 3520   6.469   5.714   6.768 -0.6168 -1.1232 -2.4459
   48CHL1  H19C 3521   6.566   5.643   6.634 -1.4314  1.2931 -1.0928
   48CHL1    C1 3522   6.589   5.927   6.680 -0.5851 -0.0541 -0.1162
   48CHL1   H1A 3523   6.488   5.931   6.727 -1.1485  2.1019 -1.3931
   48CHL1   H1B 3524   6.633   6.023   6.714  1.5676 -0.8712 -0.5571
   48CHL1    C2 3525   6.566   5.922   6.528 -0.2675  0.3272 -0.4398
   48CHL1   H2A 3526   6.523   6.020   6.500 -1.4129 -0.0757 -0.1291
   48CHL1   H2B 3527   6.510   5.830   6.500  0.5585 -0.6472  1.0525
   48CHL1   C20 3528   6.682   5.808   7.461 -0.4009 -0.1680 -0.3193
   48CHL1   H20 3529   6.685   5.697   7.468 -1.6749 -0.2348 -0.8335
   48CHL1   C21 3530   6.530   5.864   7.467 -0.0273 -0.2187 -0.8766
   48CHL1  H21A 3531   6.487   5.804   7.385 -3.0875  0.8292 -0.1079
   48CHL1  H21B 3532   6.529   5.968   7.429 -0.5448  0.1472  0.1244
   48CHL1  H21C 3533   6.473   5.843   7.560 -0.1058  1.0768 -0.6263
   48CHL1   C22 3534   6.763   5.849   7.586 -0.4985  0.3288  0.5850
   48CHL1  H22A 3535   6.854   5.786   7.576 -0.4826  0.5294 -0.5296
   48CHL1  H22B 3536   6.790   5.956   7.569 -0.5317  0.0886 -1.0738
   48CHL1   C23 3537   6.696   5.824   7.721  0.0351 -0.4824  0.5551
   48CHL1  H23A 3538   6.776   5.851   7.793  0.1525 -1.2112  0.7076
   48CHL1  H23B 3539   6.615   5.896   7.745  0.0045 -1.6946  4.3139
   48CHL1   C24 3540   6.657   5.678   7.744  0.3117 -0.0006  0.1916
   48CHL1  H24A 3541   6.556   5.657   7.703  0.3138 -2.9808  1.5319
   48CHL1  H24B 3542   6.720   5.597   7.700 -0.4563 -0.4343 -0.1163
   48CHL1   C25 3543   6.633   5.639   7.895  0.2821  0.7533  0.1542
   48CHL1   H25 3544   6.557   5.711   7.934  0.7000  1.1732  0.1938
   48CHL1   C26 3545   6.556   5.504   7.909  0.5843 -0.0152  0.3714
   48CHL1  H26A 3546   6.483   5.504   7.992  0.2066  0.6052  0.0388
   48CHL1  H26B 3547   6.508   5.479   7.812  1.6583  0.3657 -0.2690
   48CHL1  H26C 3548   6.629   5.421   7.926  1.8241  0.9548 -0.1033
   48CHL1   C27 3549   6.764   5.659   7.985 -0.6498  0.6560 -0.0729
   48CHL1  H27A 3550   6.801   5.764   7.987  1.7307 -0.1402 -0.6939
   48CHL1  H27B 3551   6.739   5.630   8.090 -0.7635 -0.6648 -0.4613
   48CHL1  H27C 3552   6.848   5.593   7.954  0.3861  2.2394 -0.7333
   49CHL1    C3 3553   6.125   0.410   6.804  1.0199 -0.1051  0.4651
   49CHL1    H3 3554   6.149   0.307   6.839 -0.1835 -0.0154  1.5738
   49CHL1    O3 3555   6.183   0.432   6.680  0.3490  0.2513 -0.1877
   49CHL1   H3' 3556   6.130   0.504   6.645 -1.2136 -1.5449 -1.6349
   49CHL1    C4 3557   5.966   0.411   6.791  0.5467 -0.8271  0.7217
   49CHL1   H4A 3558   5.943   0.487   6.713 -1.2619 -0.6187  1.4415
   49CHL1   H4B 3559   5.935   0.313   6.749 -1.6170  0.3605 -0.4977
   49CHL1    C5 3560   5.878   0.450   6.900 -0.2684 -0.3229 -0.1536
   49CHL1    C6 3561   5.777   0.377   6.931 -0.4189  0.1398 -0.4919
   49CHL1    H6 3562   5.750   0.290   6.870  0.6209 -0.8625  0.4606
   49CHL1    C7 3563   5.686   0.396   7.044  0.7845  0.5651 -0.2973
   49CHL1   H7A 3564   5.581   0.367   7.023  0.3852  1.8779 -0.1544
   49CHL1   H7B 3565   5.711   0.330   7.130  2.2011  0.8284 -0.4968
   49CHL1    C8 3566   5.695   0.541   7.105 -0.0490 -0.9656 -0.7866
   49CHL1    H8 3567   5.648   0.603   7.026  0.9798 -1.3193 -1.6834
   49CHL1   C14 3568   5.639   0.548   7.246  0.4266  0.2878 -0.3162
   49CHL1   H14 3569   5.690   0.469   7.305  0.2988  0.3775 -0.0868
   49CHL1   C15 3570   5.494   0.506   7.260  0.5740  0.3099  0.3592
   49CHL1  H15A 3571   5.447   0.561   7.176  1.6663 -0.9128 -1.0868
   49CHL1  H15B 3572   5.474   0.397   7.257 -2.0187  0.7232  1.3317
   49CHL1   C16 3573   5.446   0.568   7.395  0.0637  0.7596  0.1191
   49CHL1  H16A 3574   5.360   0.633   7.366  0.2050  0.7214 -0.3943
   49CHL1  H16B 3575   5.409   0.489   7.464  0.7071  0.3932  0.0476
   49CHL1   C17 3576   5.565   0.656   7.445  1.0401  0.4396 -0.9824
   49CHL1   H17 3577   5.628   0.586   7.505  2.6052  1.4826 -1.3791
   49CHL1   C13 3578   5.647   0.680   7.322  0.7214  0.2693 -0.5146
   49CHL1   C18 3579   5.581   0.796   7.242  0.0799 -1.0083 -0.6795
   49CHL1  H18A 3580   5.612   0.891   7.291  0.1697 -1.8480  0.9149
   49CHL1  H18B 3581   5.604   0.808   7.133 -2.9816  1.7422 -1.1053
   49CHL1  H18C 3582   5.471   0.798   7.254  0.2930 -1.9590  1.6259
   49CHL1   C12 3583   5.798   0.705   7.333 -0.3433  0.8501 -0.5284
   49CHL1  H12A 3584   5.815   0.806   7.376  1.7940  0.3663 -0.1817
   49CHL1  H12B 3585   5.844   0.628   7.398  1.8224 -0.3284 -3.3673
   49CHL1   C11 3586   5.868   0.707   7.194  0.5500 -0.0778  0.4249
   49CHL1  H11A 3587   5.830   0.798   7.143  1.2267  0.4411  0.8319
   49CHL1  H11B 3588   5.974   0.732   7.216  1.2041 -1.7362 -0.7971
   49CHL1    C9 3589   5.851   0.578   7.116  0.4505  0.3066  0.4048
   49CHL1    H9 3590   5.879   0.492   7.181 -2.9808 -0.2662  1.2259
   49CHL1   C10 3591   5.927   0.566   6.987  0.6252 -0.2845 -0.0789
   49CHL1   C19 3592   5.911   0.703   6.914 -0.4373 -0.1451 -0.2206
   49CHL1  H19A 3593   5.961   0.696   6.815 -2.4688  0.7026 -1.3210
   49CHL1  H19B 3594   5.804   0.720   6.889  0.0007 -1.3895 -3.1738
   49CHL1  H19C 3595   5.960   0.793   6.958  0.4531  0.5618 -2.6015
   49CHL1    C1 3596   6.071   0.528   7.017  0.0568  0.0333  0.9353
   49CHL1   H1A 3597   6.118   0.601   7.085 -0.0982  0.6718  0.3684
   49CHL1   H1B 3598   6.077   0.428   7.066  0.6643 -1.6839 -2.4368
   49CHL1    C2 3599   6.167   0.520   6.895 -0.1825 -0.1666  0.4144
   49CHL1   H2A 3600   6.268   0.498   6.935 -0.2451 -0.5028  0.3898
   49CHL1   H2B 3601   6.173   0.622   6.850  1.3111  0.2795  1.5795
   49CHL1   C20 3602   5.519   0.766   7.542  0.0711 -0.4346 -0.4155
   49CHL1   H20 3603   5.471   0.847   7.483  2.7866  1.2832 -0.3769
   49CHL1   C21 3604   5.642   0.821   7.613  0.2280  0.2720 -0.1353
   49CHL1  H21A 3605   5.722   0.855   7.543  0.1881  1.8202  0.5540
   49CHL1  H21B 3606   5.680   0.745   7.684  2.8832  1.1071 -0.5884
   49CHL1  H21C 3607   5.621   0.901   7.687  0.4925 -0.7402  1.0397
   49CHL1   C22 3608   5.424   0.702   7.644 -0.1119  0.7301 -0.3650
   49CHL1  H22A 3609   5.333   0.657   7.598  1.1772 -1.6734 -0.6260
   49CHL1  H22B 3610   5.477   0.615   7.689 -2.9519 -1.0665 -0.3317
   49CHL1   C23 3611   5.380   0.796   7.763 -0.0260 -0.0612 -0.1496
   49CHL1  H23A 3612   5.470   0.841   7.810  0.6204 -0.9512 -0.5293
   49CHL1  H23B 3613   5.321   0.880   7.720 -4.4865 -2.1839  1.5210
   49CHL1   C24 3614   5.313   0.719   7.876  0.6190 -0.0831  0.0627
   49CHL1  H24A 3615   5.243   0.649   7.825  0.1136 -0.5727  1.3964
   49CHL1  H24B 3616   5.399   0.662   7.918  1.4074 -0.5393 -2.1013
   49CHL1   C25 3617   5.261   0.807   7.994  0.2771  0.0951 -0.3412
   49CHL1   H25 3618   5.201   0.889   7.950  2.3286  1.0381 -1.4679
   49CHL1   C26 3619   5.174   0.722   8.085  0.1348 -0.1271  0.2429
   49CHL1  H26A 3620   5.091   0.677   8.027 -0.7639  2.6976 -0.7964
   49CHL1  H26B 3621   5.238   0.639   8.121 -0.4949 -0.8799 -0.3544
   49CHL1  H26C 3622   5.133   0.774   8.174 -1.6300  0.5165 -0.9200
   49CHL1   C27 3623   5.369   0.867   8.082  0.8356 -0.0184  0.3813
   49CHL1  H27A 3624   5.410   0.793   8.154  0.1579 -1.5693 -0.8155
   49CHL1  H27B 3625   5.451   0.914   8.024  0.5816  0.1740  0.1772
   49CHL1  H27C 3626   5.322   0.938   8.155 -0.6023  1.8941 -2.3141
   50CHL1    C3 3627   0.127   2.078   6.933  0.1728  0.3360  0.3132
   50CHL1    H3 3628   0.093   2.182   6.951  2.2420  1.5722 -2.4029
   50CHL1    O3 3629   0.171   2.066   6.800 -0.0817  0.5255  0.5377
   50CHL1   H3' 3630   0.167   1.975   6.772 -0.0378  0.5311  0.5148
   50CHL1    C4 3631   0.221   2.028   7.029 -0.1221  0.3942 -0.2393
   50CHL1   H4A 3632   0.245   1.922   7.005  1.1657  0.9311 -1.3890
   50CHL1   H4B 3633   0.317   2.081   7.014  0.4657 -1.2001 -2.3916
   50CHL1    C5 3634   0.176   2.037   7.173  0.2358 -0.0871  0.2476
   50CHL1    C6 3635   0.245   2.112   7.267 -0.3749 -0.3020 -0.2165
   50CHL1    H6 3636   0.330   2.176   7.239 -0.7988  0.3316 -0.0799
   50CHL1    C7 3637   0.210   2.120   7.411 -0.0810  0.3656 -0.3534
   50CHL1   H7A 3638   0.303   2.094   7.465 -0.1390  0.9761  0.0522
   50CHL1   H7B 3639   0.177   2.222   7.442 -2.6498 -0.4875 -0.1770
   50CHL1    C8 3640   0.107   1.999   7.455 -0.2669 -0.7992  0.5731
   50CHL1    H8 3641   0.179   1.915   7.452  0.6183 -0.0795  1.3969
   50CHL1   C14 3642   0.056   2.033   7.593 -0.0371  0.4310 -0.4259
   50CHL1   H14 3643  -0.011   2.121   7.576  1.1267  1.2562 -0.8535
   50CHL1   C15 3644   0.148   2.070   7.711 -0.1451  0.2862 -0.1478
   50CHL1  H15A 3645   0.243   2.012   7.706  0.4599  1.4095 -2.2610
   50CHL1  H15B 3646   0.175   2.178   7.709  1.0671 -0.0116  0.0709
   50CHL1   C16 3647   0.067   2.024   7.832 -0.0161 -0.2027  0.3935
   50CHL1  H16A 3648   0.121   1.935   7.870  0.1684 -0.9253 -1.5162
   50CHL1  H16B 3649   0.060   2.100   7.912  1.8679 -0.0491  0.4367
   50CHL1   C17 3650  -0.075   1.985   7.784 -0.2064 -0.3659 -0.9425
   50CHL1   H17 3651  -0.132   2.078   7.768 -0.5578 -0.2475  0.8755
   50CHL1   C13 3652  -0.050   1.930   7.640 -0.1651 -0.0738  0.2134
   50CHL1   C18 3653   0.008   1.787   7.645  0.1071  0.5228  0.0322
   50CHL1  H18A 3654   0.093   1.781   7.717  0.4378  3.1061 -0.1020
   50CHL1  H18B 3655  -0.073   1.714   7.668 -1.6952  2.4221 -0.0925
   50CHL1  H18C 3656   0.040   1.755   7.544 -2.6690 -0.6680 -0.5158
   50CHL1   C12 3657  -0.173   1.928   7.536 -0.4195  0.0245 -0.0318
   50CHL1  H12A 3658  -0.239   1.844   7.569  2.0520 -1.3910  1.4946
   50CHL1  H12B 3659  -0.224   2.027   7.538  0.1513  0.3521 -1.3154
   50CHL1   C11 3660  -0.124   1.899   7.399 -0.2655 -0.2924  0.9514
   50CHL1  H11A 3661  -0.117   1.789   7.384  0.4142 -0.2574  0.9893
   50CHL1  H11B 3662  -0.207   1.912   7.326 -0.6650 -0.1811  1.4209
   50CHL1    C9 3663  -0.009   1.988   7.346  0.0936  0.0133 -0.7043
   50CHL1    H9 3664  -0.057   2.088   7.335  2.9837  1.6105  0.6158
   50CHL1   C10 3665   0.041   1.960   7.205  0.2970  0.3009  0.8458
   50CHL1   C19 3666   0.068   1.809   7.192 -0.0268 -0.3617  0.3245
   50CHL1  H19A 3667   0.138   1.780   7.272 -1.2205 -1.3319  1.0335
   50CHL1  H19B 3668  -0.029   1.755   7.195  0.0107 -0.6118 -1.9838
   50CHL1  H19C 3669   0.112   1.793   7.091 -2.0707 -3.8280 -0.0948
   50CHL1    C1 3670  -0.057   2.025   7.097  0.1784 -0.4744  0.1337
   50CHL1   H1A 3671  -0.153   1.979   7.130  0.0828  0.0206  0.5631
   50CHL1   H1B 3672  -0.075   2.133   7.112 -0.7740 -0.3186 -1.9613
   50CHL1    C2 3673  -0.005   2.012   6.951 -0.4530 -0.3346  0.0494
   50CHL1   H2A 3674  -0.083   2.068   6.895 -0.3988 -0.9173 -0.6135
   50CHL1   H2B 3675  -0.011   1.906   6.917 -0.9649 -0.0628 -0.7220
   50CHL1   C20 3676  -0.147   1.894   7.886 -0.1660  0.4168  0.1388
   50CHL1   H20 3677  -0.103   1.792   7.883 -0.7596  0.1784 -0.6000
   50CHL1   C21 3678  -0.298   1.877   7.861  0.2147  0.6321 -0.4050
   50CHL1  H21A 3679  -0.346   1.800   7.924  1.8742  0.0036  0.1129
   50CHL1  H21B 3680  -0.324   1.864   7.753 -0.6346 -0.7154 -0.0455
   50CHL1  H21C 3681  -0.347   1.974   7.883 -0.2184  0.8405 -2.1608
   50CHL1   C22 3682  -0.129   1.956   8.033  0.0285  0.1884  0.1059
   50CHL1  H22A 3683  -0.020   1.958   8.057 -0.2557  1.7300  1.2810
   50CHL1  H22B 3684  -0.162   2.062   8.031 -0.3716  0.0931  1.1385
   50CHL1   C23 3685  -0.203   1.885   8.148 -0.3124  0.3012  0.6049
   50CHL1  H23A 3686  -0.311   1.877   8.121 -0.2606  1.3161  0.0798
   50CHL1  H23B 3687  -0.166   1.781   8.164  1.8366  0.8359 -0.6552
   50CHL1   C24 3688  -0.192   1.959   8.280 -0.3763 -0.5739  0.2601
   50CHL1  H24A 3689  -0.095   1.949   8.332 -0.5047 -1.2504  0.3685
   50CHL1  H24B 3690  -0.219   2.066   8.264  3.1683  0.1313 -1.4771
   50CHL1   C25 3691  -0.298   1.906   8.378  0.5456  0.1870 -0.2312
   50CHL1   H25 3692  -0.397   1.916   8.328  1.5495 -0.6122 -2.4572
   50CHL1   C26 3693  -0.274   1.751   8.412  0.2019 -0.1141  0.1565
   50CHL1  H26A 3694  -0.349   1.722   8.489  0.0992  1.4676  0.6848
   50CHL1  H26B 3695  -0.280   1.685   8.323 -1.9780  2.9329 -2.0872
   50CHL1  H26C 3696  -0.176   1.732   8.462  0.5506 -0.9668 -0.8379
   50CHL1   C27 3697  -0.295   1.977   8.513  0.3801 -0.4072 -0.5171
   50CHL1  H27A 3698  -0.188   1.995   8.537 -0.0394  0.3663  0.8812
   50CHL1  H27B 3699  -0.344   2.077   8.504  1.5687  0.3532  1.2514
   50CHL1  H27C 3700  -0.355   1.923   8.589 -0.8741  1.1125 -0.3976
   51CHL1    C3 3701   6.360   1.237   6.813 -1.1037  0.4889  0.0213
   51CHL1    H3 3702   6.467   1.255   6.835 -1.3018  0.0701  1.3472
   51CHL1    O3 3703   6.332   1.303   6.692 -0.0977 -0.6689  0.0500
   51CHL1   H3' 3704   6.369   1.245   6.625 -1.3642 -1.4262 -0.0144
   51CHL1    C4 3705   6.327   1.084   6.800 -0.5212  0.5492 -0.6522
   51CHL1   H4A 3706   6.228   1.067   6.753 -0.7271 -0.0592 -0.0085
   51CHL1   H4B 3707   6.396   1.046   6.721 -0.6481 -1.0111 -0.0225
   51CHL1    C5 3708   6.329   0.995   6.920 -0.8695  0.2205 -1.1647
   51CHL1    C6 3709   6.398   0.878   6.922  0.2965 -0.0759 -0.5960
   51CHL1    H6 3710   6.439   0.847   6.825  2.9216 -0.0911  0.4616
   51CHL1    C7 3711   6.406   0.794   7.043 -0.1873 -0.4197 -0.1212
   51CHL1   H7A 3712   6.353   0.698   7.022 -0.1139 -0.1984 -1.3253
   51CHL1   H7B 3713   6.508   0.757   7.065  0.1798  0.4793 -0.2870
   51CHL1    C8 3714   6.332   0.843   7.170 -0.3584 -0.5908 -0.9264
   51CHL1    H8 3715   6.228   0.806   7.162 -0.1983 -1.2255 -0.1610
   51CHL1   C14 3716   6.398   0.791   7.297  0.3117  0.8650  0.0399
   51CHL1   H14 3717   6.501   0.832   7.302  1.1729 -1.1001 -1.0674
   51CHL1   C15 3718   6.429   0.639   7.308 -0.6218 -0.3174 -0.5492
   51CHL1  H15A 3719   6.335   0.590   7.275 -0.1644  0.2254 -2.7292
   51CHL1  H15B 3720   6.522   0.604   7.258  1.6779  0.6457  2.9392
   51CHL1   C16 3721   6.442   0.617   7.463 -0.7229  0.3060  0.1906
   51CHL1  H16A 3722   6.373   0.539   7.501 -2.0137  1.1687 -0.3209
   51CHL1  H16B 3723   6.545   0.580   7.480 -0.4611  0.7401 -0.4130
   51CHL1   C17 3724   6.410   0.753   7.530 -0.1246  0.2872 -0.1589
   51CHL1   H17 3725   6.506   0.809   7.535  0.3354 -0.6318  2.5641
   51CHL1   C13 3726   6.327   0.826   7.427  0.1670  0.1504 -0.2802
   51CHL1   C18 3727   6.183   0.773   7.427  0.3212  0.0980  0.3679
   51CHL1  H18A 3728   6.126   0.793   7.520  1.5215  2.9021  0.5374
   51CHL1  H18B 3729   6.128   0.814   7.340  3.1646 -0.5300 -1.7739
   51CHL1  H18C 3730   6.187   0.664   7.405  0.8354  0.2401 -0.2524
   51CHL1   C12 3731   6.323   0.983   7.438  0.1258  0.0564 -0.1896
   51CHL1  H12A 3732   6.280   1.023   7.532  0.1463  0.5513 -0.3924
   51CHL1  H12B 3733   6.426   1.023   7.440 -0.6107  1.9469  0.6167
   51CHL1   C11 3734   6.267   1.047   7.309  0.5444  0.7453 -0.0966
   51CHL1  H11A 3735   6.160   1.016   7.308  0.3718  1.2874  0.9040
   51CHL1  H11B 3736   6.277   1.157   7.317  1.4769  0.9188 -3.1178
   51CHL1    C9 3737   6.335   0.994   7.178  0.1118 -0.2918  0.7912
   51CHL1    H9 3738   6.440   1.030   7.189 -0.6779  1.7427  1.8341
   51CHL1   C10 3739   6.271   1.057   7.045 -0.6700  0.3753  0.2721
   51CHL1   C19 3740   6.119   1.038   7.038  0.0506 -0.5187 -0.0410
   51CHL1  H19A 3741   6.073   1.098   7.120  1.9584  0.6498  0.2026
   51CHL1  H19B 3742   6.076   1.078   6.944  1.1849  2.5825  0.6881
   51CHL1  H19C 3743   6.089   0.931   7.040 -1.2657 -0.1519  0.4668
   51CHL1    C1 3744   6.310   1.212   7.047 -0.7401  1.2094 -0.0206
   51CHL1   H1A 3745   6.259   1.262   7.132 -1.9193 -1.4503  0.9138
   51CHL1   H1B 3746   6.419   1.225   7.067 -0.4601 -1.3461  0.3300
   51CHL1    C2 3747   6.278   1.296   6.928 -0.5640  0.6519  0.2407
   51CHL1   H2A 3748   6.312   1.399   6.952 -0.7528  0.6055  0.7091
   51CHL1   H2B 3749   6.168   1.307   6.911 -0.7748 -3.8067 -1.8161
   51CHL1   C20 3750   6.358   0.756   7.679  0.5607 -0.3045  0.3079
   51CHL1   H20 3751   6.274   0.828   7.687  0.0759 -0.9132  0.6607
   51CHL1   C21 3752   6.481   0.813   7.758  0.0327 -0.0821  0.2708
   51CHL1  H21A 3753   6.465   0.794   7.867  2.4323  1.1516  0.8760
   51CHL1  H21B 3754   6.489   0.922   7.738 -0.7158 -0.2269 -0.8445
   51CHL1  H21C 3755   6.573   0.761   7.721 -1.4790 -2.8024  0.1676
   51CHL1   C22 3756   6.311   0.620   7.739 -0.4687 -0.1616  0.2414
   51CHL1  H22A 3757   6.241   0.579   7.663  0.1640  1.6155 -1.3633
   51CHL1  H22B 3758   6.402   0.557   7.745 -0.9269 -1.0152 -1.3229
   51CHL1   C23 3759   6.235   0.635   7.874 -0.1515 -0.3038  0.1842
   51CHL1  H23A 3760   6.286   0.705   7.942  0.4931 -1.0845  0.5071
   51CHL1  H23B 3761   6.133   0.672   7.852 -0.3974 -0.5577  0.8995
   51CHL1   C24 3762   6.211   0.500   7.944  0.1507  0.0415 -0.3073
   51CHL1  H24A 3763   6.118   0.513   8.004 -0.6114 -0.3553 -1.3821
   51CHL1  H24B 3764   6.185   0.427   7.865 -1.1458 -0.4516  0.5635
   51CHL1   C25 3765   6.338   0.455   8.024 -0.4805  0.0325 -0.6506
   51CHL1   H25 3766   6.428   0.486   7.967  0.4150  0.4601  0.9741
   51CHL1   C26 3767   6.345   0.535   8.155 -0.0592  0.3862 -0.3285
   51CHL1  H26A 3768   6.410   0.492   8.234  0.1502 -0.7393 -1.0949
   51CHL1  H26B 3769   6.376   0.639   8.133  2.1269 -0.4466 -1.3104
   51CHL1  H26C 3770   6.244   0.543   8.202 -0.7130 -1.9523 -1.2411
   51CHL1   C27 3771   6.351   0.312   8.054 -0.3073 -0.7538 -0.2752
   51CHL1  H27A 3772   6.263   0.266   8.103 -1.1601  0.4365 -0.6692
   51CHL1  H27B 3773   6.378   0.254   7.963  0.2980 -1.5904  0.4247
   51CHL1  H27C 3774   6.424   0.294   8.136  2.5811  1.2594 -2.3149
   52CHL1    C3 3775   1.715   2.300   7.044 -0.1488 -0.1849 -0.1421
   52CHL1    H3 3776   1.800   2.234   7.071  0.7015  0.2935 -1.6011
   52CHL1    O3 3777   1.721   2.331   6.904  0.5540 -0.0766  0.4999
   52CHL1   H3' 3778   1.683   2.419   6.900  0.4986 -0.0776  0.9923
   52CHL1    C4 3779   1.597   2.215   7.092 -0.2898 -0.3015  0.0854
   52CHL1   H4A 3780   1.502   2.259   7.058 -2.8913 -3.0393  3.4205
   52CHL1   H4B 3781   1.589   2.119   7.036 -0.1014  0.4009 -1.1684
   52CHL1    C5 3782   1.597   2.192   7.249 -0.1058 -0.0692 -0.0039
   52CHL1    C6 3783   1.596   2.062   7.292 -0.5695  0.1696  0.1073
   52CHL1    H6 3784   1.592   1.982   7.217 -0.2473 -1.5809  1.9043
   52CHL1    C7 3785   1.595   2.030   7.438  0.4711  0.0699 -0.5549
   52CHL1   H7A 3786   1.525   1.944   7.443 -0.3141  0.8149  1.5889
   52CHL1   H7B 3787   1.693   1.982   7.456 -1.0186 -3.3869 -1.2536
   52CHL1    C8 3788   1.557   2.152   7.525 -0.8406  0.4835 -0.5405
   52CHL1    H8 3789   1.447   2.168   7.524 -0.9703 -0.0024  1.8423
   52CHL1   C14 3790   1.595   2.125   7.675  0.1949 -0.4626 -0.1023
   52CHL1   H14 3791   1.703   2.102   7.680  0.2586 -0.3446 -0.8151
   52CHL1   C15 3792   1.534   2.000   7.736  0.1227  0.8162  0.3885
   52CHL1  H15A 3793   1.426   2.004   7.710 -0.0037  2.5169  1.0921
   52CHL1  H15B 3794   1.589   1.907   7.711 -0.5084  0.0263  1.8631
   52CHL1   C16 3795   1.546   2.033   7.883 -0.0476 -0.5656  0.6418
   52CHL1  H16A 3796   1.446   2.022   7.930 -0.4956 -0.6909 -0.3158
   52CHL1  H16B 3797   1.615   1.968   7.940 -0.6064 -1.2637  0.5318
   52CHL1   C17 3798   1.592   2.177   7.908 -0.4837  0.3756  0.3378
   52CHL1   H17 3799   1.700   2.161   7.928 -0.7986 -0.6571  1.3026
   52CHL1   C13 3800   1.569   2.242   7.773  0.3535  0.7409  0.2468
   52CHL1   C18 3801   1.420   2.277   7.778  0.2191 -0.6482 -0.0475
   52CHL1  H18A 3802   1.352   2.198   7.818 -2.0369  1.5888  0.6817
   52CHL1  H18B 3803   1.402   2.366   7.842 -0.8586 -0.3419 -0.7685
   52CHL1  H18C 3804   1.374   2.300   7.680 -0.1111  0.1278  0.2876
   52CHL1   C12 3805   1.654   2.362   7.727 -0.4026  0.3640 -0.4179
   52CHL1  H12A 3806   1.637   2.443   7.802  2.2214  0.5505  0.0413
   52CHL1  H12B 3807   1.762   2.339   7.738 -0.5819 -0.6060 -0.6569
   52CHL1   C11 3808   1.620   2.402   7.587 -0.2160 -0.6312  0.0582
   52CHL1  H11A 3809   1.512   2.424   7.569  0.3925  2.2846 -0.2559
   52CHL1  H11B 3810   1.680   2.492   7.564 -1.1405 -0.4450 -1.7739
   52CHL1    C9 3811   1.634   2.280   7.486  0.0321 -0.2028  0.5068
   52CHL1    H9 3812   1.741   2.251   7.491  0.1918  0.2490 -0.3186
   52CHL1   C10 3813   1.605   2.315   7.338 -0.4020  0.0149  0.2897
   52CHL1   C19 3814   1.465   2.383   7.322  0.0532 -0.2624 -1.2423
   52CHL1  H19A 3815   1.446   2.423   7.220 -0.3404 -0.3244 -1.1927
   52CHL1  H19B 3816   1.374   2.331   7.361  1.0463 -1.0898  0.0010
   52CHL1  H19C 3817   1.461   2.479   7.378 -0.7325  0.4811 -2.5394
   52CHL1    C1 3818   1.720   2.398   7.275 -0.8366 -0.0387 -0.3720
   52CHL1   H1A 3819   1.727   2.492   7.333 -1.8885  0.5307 -1.1536
   52CHL1   H1B 3820   1.810   2.335   7.292 -2.2053 -2.0368 -0.4290
   52CHL1    C2 3821   1.722   2.427   7.127  0.0585  0.4599 -0.0632
   52CHL1   H2A 3822   1.815   2.480   7.098  0.1397  1.1820  1.4890
   52CHL1   H2B 3823   1.642   2.499   7.099  0.2737  0.1056 -1.6653
   52CHL1   C20 3824   1.546   2.239   8.048  0.9613 -0.4803 -0.4308
   52CHL1   H20 3825   1.436   2.224   8.054  0.7600  0.8771 -0.5832
   52CHL1   C21 3826   1.561   2.393   8.060 -0.3034 -0.5060 -0.0205
   52CHL1  H21A 3827   1.520   2.432   7.964  2.5358  0.0767 -1.0517
   52CHL1  H21B 3828   1.664   2.432   8.078 -0.5884  0.3609 -0.2759
   52CHL1  H21C 3829   1.490   2.418   8.141 -2.3158 -2.9376 -0.9709
   52CHL1   C22 3830   1.623   2.159   8.160  0.1566 -0.2728 -0.1417
   52CHL1  H22A 3831   1.608   2.052   8.136  0.5479 -0.3293 -0.1375
   52CHL1  H22B 3832   1.731   2.176   8.176 -0.2762  1.0112  1.4664
   52CHL1   C23 3833   1.562   2.190   8.301 -0.2107 -0.0850  0.8688
   52CHL1  H23A 3834   1.568   2.296   8.333 -1.0817 -0.2517  1.6066
   52CHL1  H23B 3835   1.456   2.158   8.290  0.2299 -0.2310 -3.8540
   52CHL1   C24 3836   1.627   2.108   8.417 -0.7854  0.9343  0.6437
   52CHL1  H24A 3837   1.632   2.005   8.377 -0.0399  0.8735  0.8776
   52CHL1  H24B 3838   1.734   2.138   8.423 -0.4267  0.0433 -1.0826
   52CHL1   C25 3839   1.567   2.122   8.556  0.2762 -0.2747  0.2230
   52CHL1   H25 3840   1.465   2.080   8.561  0.1561 -0.0125 -0.0711
   52CHL1   C26 3841   1.644   2.034   8.655  0.0276  0.1670  0.2348
   52CHL1  H26A 3842   1.746   2.077   8.661  0.5954 -1.3285  1.6067
   52CHL1  H26B 3843   1.592   2.043   8.753 -1.5412 -0.4022 -0.5350
   52CHL1  H26C 3844   1.651   1.930   8.618  1.5852 -0.3380  1.9213
   52CHL1   C27 3845   1.567   2.271   8.605 -0.3116 -0.1056 -0.2448
   52CHL1  H27A 3846   1.528   2.259   8.709 -1.8139 -1.1470 -0.9008
   52CHL1  H27B 3847   1.671   2.307   8.600  0.2469 -1.0431  3.0998
   52CHL1  H27C 3848   1.498   2.327   8.539  0.3157 -0.3936 -1.1530
   53CHL1    C3 3849   4.004   5.024   6.951 -0.1588  0.3007 -0.6114
   53CHL1    H3 3850   3.956   4.924   6.959  3.8370 -1.5949  0.8101
   53CHL1    O3 3851   4.009   5.060   6.812 -0.0526 -0.1648 -1.0786
   53CHL1   H3' 3852   3.919   5.062   6.779 -1.0859 -0.1130  1.5591
   53CHL1    C4 3853   3.912   5.121   7.032 -0.1838 -0.5531 -0.3535
   53CHL1   H4A 3854   3.947   5.221   6.999 -0.1555  0.4392  2.5580
   53CHL1   H4B 3855   3.808   5.108   6.995 -1.2392 -1.9320  2.8947
   53CHL1    C5 3856   3.915   5.095   7.189 -0.0216  0.5897  0.2368
   53CHL1    C6 3857   3.812   5.076   7.268 -0.4175  0.0552 -0.3698
   53CHL1    H6 3858   3.708   5.078   7.231 -1.2954  2.1771  2.0459
   53CHL1    C7 3859   3.819   5.067   7.414  0.1626 -0.7134  0.6126
   53CHL1   H7A 3860   3.755   5.149   7.451  0.2680 -0.0773 -0.5898
   53CHL1   H7B 3861   3.769   4.972   7.445 -0.6147  0.0709  1.8083
   53CHL1    C8 3862   3.959   5.092   7.470  0.1589 -0.4286 -0.1972
   53CHL1    H8 3863   3.966   5.202   7.477 -2.6514 -0.1980 -0.5483
   53CHL1   C14 3864   3.970   5.032   7.611 -0.4144  0.0215  0.4371
   53CHL1   H14 3865   3.973   4.923   7.588  1.4947  0.0439  0.4939
   53CHL1   C15 3866   3.862   5.040   7.722 -0.4555  0.2040  0.4802
   53CHL1  H15A 3867   3.827   5.146   7.723  0.4132  0.4889  0.7764
   53CHL1  H15B 3868   3.775   4.977   7.693  0.4905  0.3419 -2.9280
   53CHL1   C16 3869   3.936   5.012   7.855  0.0585 -0.8160  0.6238
   53CHL1  H16A 3870   3.925   5.086   7.937  1.8100 -0.8745  0.9294
   53CHL1  H16B 3871   3.898   4.914   7.892 -1.3366 -0.7523 -0.5858
   53CHL1   C17 3872   4.084   5.015   7.822 -0.1134 -0.3243  0.4786
   53CHL1   H17 3873   4.116   4.909   7.819  1.0352 -0.0286  1.7565
   53CHL1   C13 3874   4.096   5.079   7.687 -0.0574  0.1309  0.8526
   53CHL1   C18 3875   4.090   5.237   7.708 -0.7596 -0.5912  0.2763
   53CHL1  H18A 3876   4.074   5.299   7.617  2.0012 -1.2423 -0.6813
   53CHL1  H18B 3877   4.005   5.259   7.776 -0.8443 -1.2500  0.3838
   53CHL1  H18C 3878   4.190   5.267   7.745 -0.9062 -1.1227  1.1127
   53CHL1   C12 3879   4.217   5.029   7.618  0.7574 -0.1408  0.5550
   53CHL1  H12A 3880   4.315   5.064   7.657  0.4460  0.0548  1.1725
   53CHL1  H12B 3881   4.229   4.919   7.622  1.3919 -0.1636 -1.3967
   53CHL1   C11 3882   4.212   5.074   7.463  0.3340 -0.5665 -0.0132
   53CHL1  H11A 3883   4.239   5.182   7.462  0.2411 -0.5449 -0.2036
   53CHL1  H11B 3884   4.288   5.015   7.407  1.3224 -0.6473  1.3859
   53CHL1    C9 3885   4.073   5.047   7.392 -0.4382  0.2357 -0.4223
   53CHL1    H9 3886   4.065   4.936   7.383  2.0187 -0.0081  0.0930
   53CHL1   C10 3887   4.062   5.090   7.243  0.6751  0.2717 -0.2431
   53CHL1   C19 3888   4.118   5.233   7.233 -0.2477 -0.1336 -0.9101
   53CHL1  H19A 3889   4.099   5.286   7.137 -3.4308 -3.5503 -2.2877
   53CHL1  H19B 3890   4.082   5.302   7.312  0.3294 -1.8820  0.9314
   53CHL1  H19C 3891   4.227   5.224   7.251 -0.5432 -1.6076  0.2743
   53CHL1    C1 3892   4.151   4.992   7.157 -0.5062  0.0983 -0.1049
   53CHL1   H1A 3893   4.249   4.990   7.209 -0.2720 -1.3315 -0.5830
   53CHL1   H1B 3894   4.110   4.890   7.171  0.5784 -0.6853 -2.3413
   53CHL1    C2 3895   4.146   5.013   7.004 -0.1384 -0.7535  0.3792
   53CHL1   H2A 3896   4.211   4.943   6.947  2.2763  2.1653 -0.5818
   53CHL1   H2B 3897   4.203   5.107   6.995 -4.0836  1.9708  2.5777
   53CHL1   C20 3898   4.168   5.056   7.945  0.8017 -0.6242  0.2251
   53CHL1   H20 3899   4.137   5.159   7.971 -0.3946 -0.8306 -0.3255
   53CHL1   C21 3900   4.316   5.040   7.912  0.0850  0.3581  0.3353
   53CHL1  H21A 3901   4.378   5.039   8.005 -0.4722 -0.3081  0.6998
   53CHL1  H21B 3902   4.346   5.125   7.847  1.3148 -1.3876 -1.4439
   53CHL1  H21C 3903   4.332   4.944   7.860 -2.5851  0.2724 -0.3899
   53CHL1   C22 3904   4.133   4.979   8.075  0.4299  0.0233 -0.1799
   53CHL1  H22A 3905   4.026   4.949   8.080  0.3078  0.1140 -1.7991
   53CHL1  H22B 3906   4.186   4.881   8.076  1.6980  0.6915  2.8315
   53CHL1   C23 3907   4.166   5.054   8.209  0.1553  0.2288  0.1743
   53CHL1  H23A 3908   4.256   5.116   8.188 -0.2816  0.5282 -0.8408
   53CHL1  H23B 3909   4.076   5.115   8.234  0.5048  1.2168 -0.9278
   53CHL1   C24 3910   4.178   4.958   8.331  0.3202 -0.0987 -0.4029
   53CHL1  H24A 3911   4.175   5.035   8.411  0.4047  1.3003 -1.7483
   53CHL1  H24B 3912   4.085   4.898   8.341  0.9506 -1.3128 -1.5579
   53CHL1   C25 3913   4.300   4.858   8.339 -0.0098 -0.4984  0.7407
   53CHL1   H25 3914   4.297   4.792   8.249 -0.7841  0.1388  0.2969
   53CHL1   C26 3915   4.434   4.931   8.322  0.0142 -0.0450  0.6899
   53CHL1  H26A 3916   4.442   4.965   8.217 -1.0848 -0.9400  0.3142
   53CHL1  H26B 3917   4.424   5.024   8.383  0.5080  0.0071  0.7005
   53CHL1  H26C 3918   4.521   4.870   8.353  0.2007 -0.1539 -0.0536
   53CHL1   C27 3919   4.303   4.774   8.465  0.2216  0.4284 -0.3587
   53CHL1  H27A 3920   4.403   4.727   8.473  0.2914  0.5785 -0.3390
   53CHL1  H27B 3921   4.291   4.829   8.561  1.1793  1.4942 -0.8466
   53CHL1  H27C 3922   4.225   4.695   8.463  1.0201 -0.3377 -1.0131
   54CHL1    C3 3923   4.501   6.497   7.010 -0.1689 -0.6862  0.7275
   54CHL1    H3 3924   4.450   6.399   7.014 -1.8823  0.2000  0.7286
   54CHL1    O3 3925   4.549   6.526   6.880 -0.2624  0.2227 -0.4907
   54CHL1   H3' 3926   4.591   6.446   6.847  0.1971  0.8029 -1.2986
   54CHL1    C4 3927   4.417   6.612   7.068 -0.3447  0.1450 -0.5260
   54CHL1   H4A 3928   4.478   6.703   7.048  1.2040  0.2458  4.1295
   54CHL1   H4B 3929   4.322   6.621   7.010 -0.8639  1.2776  0.4950
   54CHL1    C5 3930   4.391   6.603   7.223  0.4925 -0.0242 -0.4546
   54CHL1    C6 3931   4.270   6.608   7.275 -0.0228 -0.7758  0.0105
   54CHL1    H6 3932   4.196   6.642   7.201 -0.9983  0.7717  1.6498
   54CHL1    C7 3933   4.240   6.620   7.422 -0.4476 -0.3222 -0.1923
   54CHL1   H7A 3934   4.171   6.704   7.445  0.7521  0.4611  0.6344
   54CHL1   H7B 3935   4.174   6.533   7.442 -0.7954 -0.7591 -3.0140
   54CHL1    C8 3936   4.368   6.643   7.512  0.1568 -0.0876 -0.1841
   54CHL1    H8 3937   4.410   6.746   7.504  1.7500 -0.6670  0.5360
   54CHL1   C14 3938   4.331   6.614   7.662 -0.5954  0.3824 -0.2784
   54CHL1   H14 3939   4.290   6.512   7.674  2.1035 -0.7164 -0.0318
   54CHL1   C15 3940   4.229   6.707   7.737  0.1626 -0.1598 -0.1465
   54CHL1  H15A 3941   4.237   6.814   7.709  0.7066  0.5124  2.5263
   54CHL1  H15B 3942   4.124   6.683   7.707  0.2028  0.7662 -1.0529
   54CHL1   C16 3943   4.253   6.683   7.891 -0.2986  0.5259  0.2077
   54CHL1  H16A 3944   4.248   6.768   7.962  1.0262  0.5705  0.2689
   54CHL1  H16B 3945   4.176   6.612   7.929  2.6876 -3.2905 -0.5938
   54CHL1   C17 3946   4.388   6.604   7.896  0.1467  0.7937  0.4195
   54CHL1   H17 3947   4.359   6.497   7.891 -0.1803  0.8665  0.7553
   54CHL1   C13 3948   4.453   6.622   7.754 -0.3552  0.1267  0.5357
   54CHL1   C18 3949   4.516   6.765   7.738  0.0281 -0.8129  0.3121
   54CHL1  H18A 3950   4.617   6.767   7.784  0.2890  1.5995 -0.2879
   54CHL1  H18B 3951   4.532   6.794   7.632  0.1538  0.4703  0.6679
   54CHL1  H18C 3952   4.455   6.843   7.788  1.6279  0.2370  0.6699
   54CHL1   C12 3953   4.552   6.522   7.709 -0.2943  0.4284 -0.0988
   54CHL1  H12A 3954   4.650   6.519   7.763 -0.8361  0.4519  0.8923
   54CHL1  H12B 3955   4.505   6.422   7.715  0.4658  0.0792  0.1682
   54CHL1   C11 3956   4.589   6.531   7.556  0.0225 -0.1530 -0.0110
   54CHL1  H11A 3957   4.654   6.621   7.561  1.1405 -0.8574 -1.4354
   54CHL1  H11B 3958   4.645   6.437   7.536  1.0720  0.2917  0.7830
   54CHL1    C9 3959   4.473   6.548   7.461 -0.4649 -0.1546  0.1913
   54CHL1    H9 3960   4.424   6.448   7.457  0.9578 -0.8892  0.5446
   54CHL1   C10 3961   4.516   6.575   7.313 -0.1953 -0.5899 -0.5188
   54CHL1   C19 3962   4.603   6.709   7.302 -0.5346  1.0753 -0.1503
   54CHL1  H19A 3963   4.626   6.730   7.196  0.2838  1.3749  0.0840
   54CHL1  H19B 3964   4.552   6.797   7.346  1.3503  3.6804 -3.0411
   54CHL1  H19C 3965   4.699   6.684   7.353  0.0837 -1.2118 -2.3460
   54CHL1    C1 3966   4.591   6.459   7.249 -0.7692  0.2574 -0.4142
   54CHL1   H1A 3967   4.687   6.443   7.303  0.0755  0.8928 -1.6968
   54CHL1   H1B 3968   4.527   6.370   7.262  0.1402 -0.3821 -0.2704
   54CHL1    C2 3969   4.626   6.471   7.102  0.2018  0.7707 -0.1753
   54CHL1   H2A 3970   4.691   6.384   7.078 -0.9849 -0.5853  1.3105
   54CHL1   H2B 3971   4.687   6.563   7.089 -1.3565  1.7014 -1.0547
   54CHL1   C20 3972   4.465   6.633   8.029  0.4778  0.0861 -0.4724
   54CHL1   H20 3973   4.479   6.742   8.041  1.4906 -0.2137  1.1345
   54CHL1   C21 3974   4.611   6.579   8.039  0.3192 -0.1181 -0.2195
   54CHL1  H21A 3975   4.652   6.596   8.141  0.9818 -0.4877 -0.4208
   54CHL1  H21B 3976   4.677   6.635   7.969  0.4787  0.5727  0.4678
   54CHL1  H21C 3977   4.618   6.471   8.016 -3.2463 -0.4136 -0.2144
   54CHL1   C22 3978   4.382   6.577   8.150 -0.8027 -0.0875 -0.3262
   54CHL1  H22A 3979   4.274   6.601   8.138 -0.9140 -0.4491 -0.0348
   54CHL1  H22B 3980   4.402   6.468   8.159 -0.4657 -0.0090 -0.1277
   54CHL1   C23 3981   4.432   6.634   8.285  0.2084 -0.3712 -0.3536
   54CHL1  H23A 3982   4.542   6.648   8.284  0.0754  0.6178 -1.7625
   54CHL1  H23B 3983   4.389   6.736   8.279  1.6900  0.3708  1.1761
   54CHL1   C24 3984   4.390   6.563   8.413 -0.3441  0.2048  0.5189
   54CHL1  H24A 3985   4.411   6.629   8.500 -1.1016 -1.0591  1.6881
   54CHL1  H24B 3986   4.279   6.562   8.411 -0.4281 -0.3757  3.3134
   54CHL1   C25 3987   4.440   6.420   8.432  0.8016  0.8337 -0.3472
   54CHL1   H25 3988   4.400   6.362   8.347 -1.2903  0.4732  0.8488
   54CHL1   C26 3989   4.590   6.407   8.437  0.3510 -0.3013 -0.7437
   54CHL1  H26A 3990   4.613   6.299   8.452 -0.0149 -0.5564 -2.0073
   54CHL1  H26B 3991   4.643   6.450   8.349  2.2877  0.7247  0.8608
   54CHL1  H26C 3992   4.632   6.467   8.521  0.5920  1.7837 -2.3142
   54CHL1   C27 3993   4.389   6.358   8.565 -0.0246 -0.0192  0.9184
   54CHL1  H27A 3994   4.281   6.377   8.581  0.6685  4.3878  0.8213
   54CHL1  H27B 3995   4.412   6.250   8.577  0.8681  0.0497 -0.1268
   54CHL1  H27C 3996   4.441   6.414   8.645  2.9534  0.6952 -1.4403
   55CHL1    C3 3997   5.001   1.555   7.037  1.0060  0.7318  0.3213
   55CHL1    H3 3998   4.895   1.523   7.039  1.6139 -1.3741  0.2229
   55CHL1    O3 3999   5.056   1.527   6.910 -0.0283  0.4172  0.0051
   55CHL1   H3' 4000   5.134   1.476   6.931  1.7182  3.8080  2.0603
   55CHL1    C4 4001   5.009   1.707   7.060 -0.2339  0.1617  0.3060
   55CHL1   H4A 4002   5.116   1.734   7.047  0.8636 -3.5537  1.0166
   55CHL1   H4B 4003   4.955   1.764   6.981 -0.2654 -0.8430 -0.3983
   55CHL1    C5 4004   4.968   1.754   7.200  0.2448 -0.1090 -0.6393
   55CHL1    C6 4005   4.885   1.863   7.210  0.1908  0.2945 -0.6392
   55CHL1    H6 4006   4.854   1.914   7.118 -1.6750 -0.6883 -0.5887
   55CHL1    C7 4007   4.825   1.914   7.334  0.0658 -0.4321 -0.6787
   55CHL1   H7A 4008   4.840   2.024   7.330  0.8976 -0.4188  2.1021
   55CHL1   H7B 4009   4.716   1.893   7.334 -0.1882  0.7871  1.8606
   55CHL1    C8 4010   4.885   1.841   7.459  0.5154 -0.5206 -0.6129
   55CHL1    H8 4011   4.982   1.892   7.475  0.3687  0.2433 -2.1056
   55CHL1   C14 4012   4.795   1.852   7.575  0.2469 -0.4140 -0.0073
   55CHL1   H14 4013   4.698   1.813   7.538 -0.4738  1.5461 -0.2504
   55CHL1   C15 4014   4.746   1.996   7.609  0.5502  0.1896  0.2724
   55CHL1  H15A 4015   4.843   2.049   7.621  0.7599  0.0224 -0.7066
   55CHL1  H15B 4016   4.674   2.038   7.536  1.2586 -1.1351 -1.2134
   55CHL1   C16 4017   4.685   1.983   7.748 -1.1123 -0.1530  0.3580
   55CHL1  H16A 4018   4.752   2.036   7.819 -1.3612 -1.0248  1.2645
   55CHL1  H16B 4019   4.578   2.011   7.746 -0.9593  0.9043  3.8312
   55CHL1   C17 4020   4.710   1.832   7.792  0.1302 -0.7087 -0.1207
   55CHL1   H17 4021   4.623   1.776   7.751 -0.0916  0.8634 -1.8508
   55CHL1   C13 4022   4.830   1.778   7.704  0.2303  0.6109  0.0334
   55CHL1   C18 4023   4.960   1.839   7.767 -0.4311  0.4513  0.2286
   55CHL1  H18A 4024   4.950   1.941   7.809  1.4402  0.9042 -0.3616
   55CHL1  H18B 4025   4.990   1.781   7.857 -1.6228 -1.0846 -0.3354
   55CHL1  H18C 4026   5.050   1.839   7.702  1.3834 -1.4029  2.6404
   55CHL1   C12 4027   4.842   1.632   7.679 -0.5773 -0.1590  0.6521
   55CHL1  H12A 4028   4.877   1.577   7.769  0.2962  4.0339  2.9999
   55CHL1  H12B 4029   4.742   1.594   7.648  0.0685 -0.5608 -1.0286
   55CHL1   C11 4030   4.939   1.610   7.561  0.3015  0.1807  0.1584
   55CHL1  H11A 4031   5.042   1.627   7.600 -0.3595  1.6990  1.3299
   55CHL1  H11B 4032   4.944   1.500   7.549 -2.6271 -0.4312  3.6217
   55CHL1    C9 4033   4.907   1.691   7.433 -0.0295  0.1551  0.3204
   55CHL1    H9 4034   4.813   1.634   7.413  0.5072  0.0753 -2.0721
   55CHL1   C10 4035   5.008   1.665   7.318  0.8803 -0.5707  0.2827
   55CHL1   C19 4036   5.152   1.708   7.360  0.4761  0.4683  0.0805
   55CHL1  H19A 4037   5.141   1.813   7.396  1.6827  0.3340  0.8495
   55CHL1  H19B 4038   5.193   1.643   7.440 -2.2325 -1.4368 -0.0179
   55CHL1  H19C 4039   5.224   1.704   7.276  0.6668 -1.5734  0.3289
   55CHL1    C1 4040   5.004   1.513   7.273 -0.4751 -0.8217  0.3607
   55CHL1   H1A 4041   5.035   1.444   7.354  1.5762  0.4352  0.6737
   55CHL1   H1B 4042   4.897   1.484   7.260 -1.3894  3.0624 -1.6200
   55CHL1    C2 4043   5.074   1.483   7.144 -0.0644  0.1484  0.3893
   55CHL1   H2A 4044   5.059   1.376   7.116  1.9851  0.2691 -1.3187
   55CHL1   H2B 4045   5.181   1.510   7.134  0.0557 -0.5694 -0.2976
   55CHL1   C20 4046   4.714   1.811   7.939  0.3317  0.7382 -0.4127
   55CHL1   H20 4047   4.813   1.843   7.978  0.6256  0.4849 -0.9461
   55CHL1   C21 4048   4.696   1.661   7.966  0.1159  0.1749 -0.6054
   55CHL1  H21A 4049   4.792   1.612   7.940 -0.1218 -0.6706  0.0873
   55CHL1  H21B 4050   4.620   1.613   7.900 -0.3435 -0.4168  0.3415
   55CHL1  H21C 4051   4.674   1.654   8.075  0.8698  0.2858 -0.4482
   55CHL1   C22 4052   4.602   1.888   8.019  0.4565 -0.2444 -0.4054
   55CHL1  H22A 4053   4.627   1.866   8.125 -1.1342  0.4244  0.1346
   55CHL1  H22B 4054   4.619   1.994   7.991  0.5412 -0.1865 -0.1421
   55CHL1   C23 4055   4.453   1.854   8.001 -0.2121 -0.0533 -0.4787
   55CHL1  H23A 4056   4.425   1.844   7.894  1.0062 -0.3960 -0.7690
   55CHL1  H23B 4057   4.431   1.755   8.045  1.2416  0.0163  0.4433
   55CHL1   C24 4058   4.366   1.965   8.072 -0.8492 -0.2107  0.2163
   55CHL1  H24A 4059   4.385   1.943   8.179 -1.9944  1.8142  0.8587
   55CHL1  H24B 4060   4.406   2.062   8.037 -0.9462 -0.5032 -0.7359
   55CHL1   C25 4061   4.217   1.943   8.052  0.5760  0.0773  0.1750
   55CHL1   H25 4062   4.216   1.909   7.946 -0.1955  0.0838  0.1769
   55CHL1   C26 4063   4.155   1.833   8.141  0.2616 -0.3962 -0.6185
   55CHL1  H26A 4064   4.184   1.853   8.246  1.4709  0.6486 -1.1313
   55CHL1  H26B 4065   4.045   1.834   8.124  0.1693 -0.0195 -0.0010
   55CHL1  H26C 4066   4.196   1.733   8.116 -0.0211  0.3151 -4.2022
   55CHL1   C27 4067   4.135   2.077   8.074  0.0428  0.1596 -0.3254
   55CHL1  H27A 4068   4.144   2.099   8.183 -0.7885  2.4286 -0.6715
   55CHL1  H27B 4069   4.177   2.168   8.027 -0.5225 -0.1884 -1.5220
   55CHL1  H27C 4070   4.028   2.062   8.047 -0.4105  2.3774  0.1280
   56CHL1    C3 4071   3.538   6.415   7.007  0.6625  0.0385  0.6249
   56CHL1    H3 4072   3.464   6.333   6.998  3.1512 -2.0683 -1.5802
   56CHL1    O3 4073   3.612   6.414   6.883 -0.1287  0.7302 -0.3395
   56CHL1   H3' 4074   3.546   6.435   6.817 -1.4092  0.2976  0.7654
   56CHL1    C4 4075   3.470   6.549   7.031 -0.3259  1.2192  0.2680
   56CHL1   H4A 4076   3.544   6.631   7.020  0.8914  0.2220  0.8301
   56CHL1   H4B 4077   3.399   6.556   6.947 -0.5084 -2.2857  0.0388
   56CHL1    C5 4078   3.398   6.546   7.164 -0.5565  0.5047  0.4414
   56CHL1    C6 4079   3.265   6.569   7.175 -0.1894 -0.0682  1.7716
   56CHL1    H6 4080   3.205   6.612   7.094 -1.4986  0.4466  2.9980
   56CHL1    C7 4081   3.187   6.575   7.303 -0.2278 -0.2059  0.0605
   56CHL1   H7A 4082   3.107   6.652   7.310 -0.5668 -0.5777  0.3336
   56CHL1   H7B 4083   3.125   6.484   7.320  0.9323 -0.7485  1.5751
   56CHL1    C8 4084   3.287   6.584   7.424  0.3637  0.7670  0.5178
   56CHL1    H8 4085   3.325   6.688   7.423  1.2925  0.4591  1.7083
   56CHL1   C14 4086   3.209   6.564   7.553 -0.1634  0.1320  0.1569
   56CHL1   H14 4087   3.174   6.459   7.555 -1.0601  0.4458  1.5971
   56CHL1   C15 4088   3.079   6.641   7.573 -0.3566  0.6327  0.2915
   56CHL1  H15A 4089   3.096   6.739   7.524  1.3963  0.0157 -0.3937
   56CHL1  H15B 4090   3.002   6.574   7.530 -0.7156  1.4147 -0.2747
   56CHL1   C16 4091   3.057   6.657   7.722  0.1963  0.1729  0.1096
   56CHL1  H16A 4092   3.075   6.763   7.750 -1.0706  0.0045  1.6679
   56CHL1  H16B 4093   2.961   6.618   7.761  0.4313 -0.4544  0.0605
   56CHL1   C17 4094   3.178   6.580   7.787 -0.0374 -0.3668  0.0248
   56CHL1   H17 4095   3.153   6.471   7.790  2.2839 -0.9303  0.1564
   56CHL1   C13 4096   3.293   6.585   7.681 -0.5219 -0.3725  0.7242
   56CHL1   C18 4097   3.357   6.727   7.676  0.0087 -0.1586 -0.4225
   56CHL1  H18A 4098   3.424   6.736   7.588  0.1902 -0.8801 -0.3647
   56CHL1  H18B 4099   3.281   6.807   7.662 -0.1223 -0.4077 -1.2072
   56CHL1  H18C 4100   3.412   6.759   7.767 -0.8464  0.4294 -0.1064
   56CHL1   C12 4101   3.406   6.477   7.682 -0.0617 -0.1221 -0.7828
   56CHL1  H12A 4102   3.476   6.503   7.764 -0.6818  0.1982 -0.3560
   56CHL1  H12B 4103   3.368   6.373   7.695  1.5604 -0.5264  1.0280
   56CHL1   C11 4104   3.491   6.492   7.555 -0.1971 -0.1122  0.1130
   56CHL1  H11A 4105   3.551   6.585   7.561  0.3567 -0.5394  1.2277
   56CHL1  H11B 4106   3.562   6.408   7.540 -0.0875 -0.2030  1.1341
   56CHL1    C9 4107   3.400   6.492   7.425 -0.4215  0.2279  0.0544
   56CHL1    H9 4108   3.361   6.389   7.418 -0.5168  0.3419 -1.1535
   56CHL1   C10 4109   3.487   6.505   7.289  0.8032  0.0960  0.8106
   56CHL1   C19 4110   3.589   6.622   7.327  0.4294 -0.1880  0.2982
   56CHL1  H19A 4111   3.666   6.571   7.388  0.2734  0.2098  0.8367
   56CHL1  H19B 4112   3.639   6.668   7.239  5.6450 -3.8414  1.1275
   56CHL1  H19C 4113   3.543   6.711   7.375  0.8147 -0.0518  0.4185
   56CHL1    C1 4114   3.558   6.375   7.252  0.3594 -0.2430  0.1922
   56CHL1   H1A 4115   3.631   6.339   7.327  0.9099  2.1256  0.8476
   56CHL1   H1B 4116   3.483   6.295   7.238 -0.5939 -0.0223  3.5889
   56CHL1    C2 4117   3.630   6.383   7.115  0.2115 -0.8303  0.1659
   56CHL1   H2A 4118   3.681   6.284   7.107  1.2452 -0.2674 -0.3208
   56CHL1   H2B 4119   3.707   6.463   7.122  1.6221 -2.2032  0.7268
   56CHL1   C20 4120   3.208   6.619   7.932  0.2966 -0.2733 -0.0805
   56CHL1   H20 4121   3.251   6.721   7.934 -3.1727  1.2518  1.3690
   56CHL1   C21 4122   3.303   6.512   7.986 -1.0521 -0.1835 -0.1671
   56CHL1  H21A 4123   3.405   6.513   7.941 -0.8596  1.8999  0.2593
   56CHL1  H21B 4124   3.244   6.418   7.975 -1.6075  0.3605 -2.0355
   56CHL1  H21C 4125   3.318   6.541   8.092 -0.2502  0.7147 -0.5220
   56CHL1   C22 4126   3.081   6.631   8.016 -0.1229 -0.7336 -0.7308
   56CHL1  H22A 4127   3.010   6.551   7.986 -0.6610 -0.9052  0.9229
   56CHL1  H22B 4128   3.107   6.602   8.120  0.4222  2.1010 -0.0476
   56CHL1   C23 4129   3.013   6.771   8.020 -0.5887  0.4590  0.3273
   56CHL1  H23A 4130   3.081   6.859   8.029 -2.6470  2.1047  0.1648
   56CHL1  H23B 4131   2.962   6.781   7.922 -0.1736  0.4912  0.1102
   56CHL1   C24 4132   2.899   6.792   8.118 -0.2290  0.3975 -0.3337
   56CHL1  H24A 4133   2.837   6.700   8.126  1.2143 -0.6435 -0.8336
   56CHL1  H24B 4134   2.951   6.798   8.216  0.9820  1.2058 -1.0087
   56CHL1   C25 4135   2.810   6.915   8.109  0.3919 -0.0975 -0.7760
   56CHL1   H25 4136   2.762   6.916   8.008  0.9637 -0.5612 -1.0577
   56CHL1   C26 4137   2.689   6.914   8.209 -0.1914  0.3366  0.1773
   56CHL1  H26A 4138   2.630   6.821   8.197 -2.3601  1.7270 -0.2749
   56CHL1  H26B 4139   2.613   6.995   8.198 -0.4685  0.0035 -0.3914
   56CHL1  H26C 4140   2.741   6.914   8.307  0.4896 -0.2578 -0.1861
   56CHL1   C27 4141   2.899   7.044   8.118 -0.3749  0.0320 -0.6237
   56CHL1  H27A 4142   2.972   7.057   8.035  0.3122 -0.5429 -0.1220
   56CHL1  H27B 4143   2.831   7.131   8.128 -0.2737  0.0310  0.1306
   56CHL1  H27C 4144   2.951   7.022   8.214  0.6460  1.5541 -0.8070
   57SAPC     N 4145   3.606   3.459  10.837  0.5133 -0.5359  0.0919
   57SAPC   C12 4146   3.521   3.384  10.742 -0.7654 -0.9959  0.3525
   57SAPC  H12A 4147   3.466   3.455  10.682  1.2283  1.5359  1.4438
   57SAPC  H12B 4148   3.448   3.327  10.797 -2.0731  0.5770  0.2955
   57SAPC   C13 4149   3.709   3.547  10.770  0.2332  0.0291 -0.0082
   57SAPC  H13A 4150   3.660   3.612  10.700  0.2741 -0.8579 -0.8745
   57SAPC  H13B 4151   3.769   3.596  10.846  0.2890  0.1945 -0.1599
   57SAPC  H13C 4152   3.783   3.486  10.720  0.0307  0.2557 -0.5892
   57SAPC   C14 4153   3.523   3.558  10.917 -0.2534  0.2678  0.3592
   57SAPC  H14A 4154   3.582   3.611  10.990 -1.5925  1.2117  0.7625
   57SAPC  H14B 4155   3.474   3.631  10.855  0.1552  0.0681 -0.2098
   57SAPC  H14C 4156   3.455   3.503  10.980 -0.8233  2.5752  1.8016
   57SAPC   C15 4157   3.682   3.360  10.921  0.3617 -0.7633 -0.1709
   57SAPC  H15A 4158   3.615   3.282  10.954  0.5454  0.1486  2.5466
   57SAPC  H15B 4159   3.773   3.322  10.878  1.8628  0.1839  2.0327
   57SAPC  H15C 4160   3.722   3.409  11.009  1.4482 -0.5666 -0.7729
   57SAPC   C11 4161   3.589   3.272  10.656 -0.2952 -0.0419 -0.5478
   57SAPC  H11A 4162   3.684   3.314  10.618 -0.9782 -0.2381 -2.5324
   57SAPC  H11B 4163   3.522   3.255  10.569 -0.1574  3.6395 -1.4315
   57SAPC     P 4164   3.494   3.073  10.780 -0.1902 -0.1451 -0.2793
   57SAPC   O13 4165   3.534   2.945  10.842 -0.4139  0.0287 -0.1118
   57SAPC   O14 4166   3.410   3.163  10.868  0.1042 -0.2822 -0.5643
   57SAPC   O12 4167   3.616   3.149  10.725  0.5362 -0.1525 -0.2207
   57SAPC   O11 4168   3.408   3.033  10.652  0.5313 -0.0160 -0.4555
   57SAPC    C1 4169   3.464   2.954  10.551 -0.3022  0.1888  0.5558
   57SAPC    HA 4170   3.562   2.997  10.523 -0.8379  0.0813 -1.5432
   57SAPC    HB 4171   3.487   2.850  10.585  1.7795  0.3127 -0.3776
   57SAPC    C2 4172   3.383   2.957  10.425  0.1204  0.3336 -0.1142
   57SAPC    HS 4173   3.289   2.901  10.447 -0.1152  1.5368  1.9895
   57SAPC   O21 4174   3.459   2.901  10.321 -0.3333 -0.1163 -0.1242
   57SAPC   C21 4175   3.473   2.766  10.314 -0.2605 -0.3021  0.1812
   57SAPC   O22 4176   3.408   2.686  10.379  0.2202  0.4888 -0.3051
   57SAPC   C22 4177   3.576   2.727  10.209  0.0501  1.0401  0.7196
   57SAPC   H2R 4178   3.578   2.800  10.125  0.6471  1.1801  0.8548
   57SAPC   H2S 4179   3.672   2.739  10.263  0.1800 -0.3697  0.8330
   57SAPC    C3 4180   3.343   3.103  10.389  0.0619 -0.1188  0.2419
   57SAPC    HX 4181   3.431   3.146  10.338 -1.5959  1.9598 -0.9290
   57SAPC    HY 4182   3.310   3.158  10.480  0.1620 -0.0543  0.2391
   57SAPC   O31 4183   3.244   3.104  10.288  0.2125 -0.0476  0.0113
   57SAPC   C31 4184   3.115   3.122  10.328 -0.7015 -0.4460  0.2446
   57SAPC   O32 4185   3.078   3.161  10.437 -0.2936  0.1092  0.2800
   57SAPC   C32 4186   3.012   3.073  10.226  0.1014 -0.5689 -0.0081
   57SAPC   H2X 4187   2.918   3.052  10.282 -0.4113 -1.5751 -1.2355
   57SAPC   H2Y 4188   3.055   2.979  10.186  0.4022 -0.3251 -0.2624
   57SAPC   C23 4189   3.536   2.592  10.139 -0.6584  0.0771  0.2990
   57SAPC   H3R 4190   3.447   2.616  10.077 -0.3169  1.5029  0.3502
   57SAPC   H3S 4191   3.504   2.517  10.215  1.0162 -1.0193 -0.0452
   57SAPC   C24 4192   3.644   2.542  10.053 -0.4158  0.5932  0.1644
   57SAPC   H4R 4193   3.737   2.542  10.113  0.1939  0.1990 -0.7865
   57SAPC   H4S 4194   3.658   2.621   9.976 -0.1876 -1.0515 -1.5084
   57SAPC   C25 4195   3.610   2.399  10.012 -0.6228 -0.8112  0.2630
   57SAPC   H5R 4196   3.608   2.327  10.095 -2.8785 -1.9492 -0.7320
   57SAPC   C26 4197   3.600   2.357   9.891  0.4248  0.0172 -0.4743
   57SAPC   H6R 4198   3.576   2.250   9.882  0.2105 -0.2778  2.8407
   57SAPC   C27 4199   3.604   2.432   9.760 -0.3041 -0.4757  0.2072
   57SAPC   H7R 4200   3.674   2.378   9.693  0.3365  2.3136 -1.4213
   57SAPC   H7S 4201   3.655   2.530   9.768 -0.0403 -0.8906  4.9289
   57SAPC   C28 4202   3.475   2.461   9.682 -0.1264  0.0109  0.2162
   57SAPC   H8R 4203   3.375   2.441   9.723 -0.4725 -0.0026 -0.6184
   57SAPC   C29 4204   3.486   2.523   9.565 -0.2232  0.2360  0.0438
   57SAPC   H9R 4205   3.388   2.527   9.515 -0.9222 -0.7245  1.3159
   57SAPC  C210 4206   3.605   2.565   9.490  0.5013 -0.5473 -0.6501
   57SAPC  H10R 4207   3.689   2.587   9.560  1.1729  0.5279 -1.7815
   57SAPC  H10S 4208   3.579   2.666   9.453 -0.5131 -0.5489  0.0370
   57SAPC  C211 4209   3.651   2.472   9.386  0.3663  0.5139  0.2082
   57SAPC  H11R 4210   3.699   2.383   9.428  0.6089  0.5548  0.0186
   57SAPC  C212 4211   3.641   2.493   9.248 -0.5708  0.4625 -0.7090
   57SAPC  H12R 4212   3.671   2.409   9.184  0.4348 -0.7001  1.2323
   57SAPC  C213 4213   3.583   2.610   9.164 -0.0009 -0.8423 -0.3507
   57SAPC  H13R 4214   3.533   2.681   9.233 -0.7719  0.5759 -2.3150
   57SAPC  H13S 4215   3.501   2.576   9.097 -1.9282  0.5990  1.2378
   57SAPC  C214 4216   3.690   2.685   9.094  0.6469  0.0842  0.0116
   57SAPC  H14R 4217   3.742   2.753   9.163 -0.9274 -1.5127  2.8751
   57SAPC  C215 4218   3.727   2.676   8.962 -0.4945 -0.0154  0.4090
   57SAPC  H15R 4219   3.812   2.738   8.928  0.2009 -1.4060 -0.4783
   57SAPC  C216 4220   3.653   2.592   8.862  0.3941 -0.1164  0.6731
   57SAPC  H16R 4221   3.554   2.638   8.845 -0.8239 -2.3117  1.5418
   57SAPC  H16S 4222   3.645   2.488   8.901  1.3368 -0.1868  0.6938
   57SAPC  C217 4223   3.725   2.585   8.730 -0.0538  0.2598  0.5806
   57SAPC  H17R 4224   3.831   2.564   8.758 -0.1416 -0.8929  0.0874
   57SAPC  H17S 4225   3.722   2.682   8.676 -0.3735 -0.9146 -1.5726
   57SAPC  C218 4226   3.665   2.476   8.638  0.7904 -0.0344 -0.4684
   57SAPC  H18R 4227   3.687   2.372   8.669  1.5333  0.1083 -0.5275
   57SAPC  H18S 4228   3.710   2.482   8.536  1.8853 -1.7056 -0.0918
   57SAPC  C219 4229   3.513   2.491   8.626  1.1085  0.4371  0.0812
   57SAPC  H19R 4230   3.490   2.589   8.580  0.5401  0.2664  0.0059
   57SAPC  H19S 4231   3.474   2.475   8.728 -1.0189  2.8906 -0.3111
   57SAPC  C220 4232   3.439   2.379   8.553  0.2099 -0.3559 -0.7864
   57SAPC  H20R 4233   3.492   2.357   8.458  0.3301 -1.7043 -0.4187
   57SAPC  H20S 4234   3.334   2.412   8.534  0.8572  0.3001 -3.3280
   57SAPC  H20T 4235   3.430   2.290   8.619  1.2910  1.7743  2.3875
   57SAPC   C33 4236   2.994   3.182  10.114  0.7175  0.0534  0.2507
   57SAPC   H3X 4237   2.902   3.146  10.062 -0.2963  1.5331  0.9808
   57SAPC   H3Y 4238   3.072   3.191  10.036  1.7214 -3.5189  0.7326
   57SAPC   C34 4239   2.945   3.313  10.170 -0.0108  0.2795 -0.3756
   57SAPC   H4X 4240   3.034   3.364  10.213 -1.7118  1.2451  2.1081
   57SAPC   H4Y 4241   2.865   3.299  10.246  0.9673 -2.3219  0.2396
   57SAPC   C35 4242   2.893   3.400  10.063  0.0701  0.7332  0.3748
   57SAPC   H5X 4243   2.958   3.376   9.976 -0.9931 -3.1424  0.5316
   57SAPC   H5Y 4244   2.906   3.504  10.099  1.8368  1.0344 -1.0711
   57SAPC   C36 4245   2.744   3.392  10.023  0.1093 -0.0306  0.1320
   57SAPC   H6X 4246   2.690   3.446  10.104 -0.6261 -0.8731  0.2037
   57SAPC   H6Y 4247   2.703   3.290  10.026  2.3845 -0.9754  0.5202
   57SAPC   C37 4248   2.719   3.465   9.892 -0.4680 -0.1026  0.1086
   57SAPC   H7X 4249   2.773   3.401   9.818  0.6825  1.2919 -0.2850
   57SAPC   H7Y 4250   2.756   3.570   9.890 -1.7934  0.3475 -2.1371
   57SAPC   C38 4251   2.570   3.458   9.855  0.2010 -0.0693  0.1619
   57SAPC   H8X 4252   2.513   3.537   9.909  0.0693 -0.3732  0.4673
   57SAPC   H8Y 4253   2.527   3.368   9.904  0.0716  0.7117  1.5068
   57SAPC   C39 4254   2.527   3.461   9.701 -0.4780 -0.0971 -0.3455
   57SAPC   H9X 4255   2.585   3.540   9.649 -0.8189 -0.6201 -1.5271
   57SAPC   H9Y 4256   2.419   3.489   9.697 -0.7244 -1.1472 -1.2575
   57SAPC  C310 4257   2.558   3.330   9.627 -0.1985  0.0866 -0.2570
   57SAPC  H10X 4258   2.500   3.249   9.677  1.0280  0.1651  1.3502
   57SAPC  H10Y 4259   2.668   3.316   9.620  0.0500  1.9005 -0.2598
   57SAPC  C311 4260   2.516   3.347   9.474  0.3534 -0.2496  0.1220
   57SAPC  H11X 4261   2.582   3.422   9.425 -0.8705 -0.0930 -1.2985
   57SAPC  H11Y 4262   2.409   3.378   9.474  0.1240 -1.0158 -0.2398
   57SAPC  C312 4263   2.537   3.214   9.396 -0.3188 -0.2623  0.6194
   57SAPC  H12X 4264   2.467   3.134   9.429 -0.5181 -0.9598 -1.4656
   57SAPC  H12Y 4265   2.636   3.174   9.427 -0.2895 -0.6740  0.0004
   57SAPC  C313 4266   2.532   3.220   9.243  0.3491  0.3442 -0.1464
   57SAPC  H13X 4267   2.438   3.264   9.203  0.3880  0.5005 -0.0613
   57SAPC  H13Y 4268   2.537   3.117   9.201  0.9186  1.0596 -1.8444
   57SAPC  C314 4269   2.655   3.288   9.182 -0.3471 -0.4569  0.3826
   57SAPC  H14X 4270   2.744   3.225   9.202  0.9268  1.5652  1.2325
   57SAPC  H14Y 4271   2.660   3.392   9.220 -1.1499 -0.7786  1.3781
   57SAPC  C315 4272   2.650   3.323   9.032 -0.1198 -0.2014  0.2719
   57SAPC  H15X 4273   2.561   3.383   9.005 -0.8265 -1.1420  0.4915
   57SAPC  H15Y 4274   2.643   3.228   8.974 -0.8464  0.9422 -1.5657
   57SAPC  C316 4275   2.779   3.382   8.964  0.4202 -0.5746 -0.6108
   57SAPC  H16X 4276   2.857   3.304   8.949  2.2120  1.5870 -3.2479
   57SAPC  H16Y 4277   2.816   3.450   9.045 -0.4733 -0.3033 -0.4250
   57SAPC  C317 4278   2.737   3.461   8.846 -0.8259 -0.1925 -0.6347
   57SAPC  H17X 4279   2.677   3.549   8.876 -1.7711 -0.6842 -1.0513
   57SAPC  H17Y 4280   2.681   3.398   8.773 -3.3280  1.2270  0.0149
   57SAPC  C318 4281   2.859   3.528   8.768 -0.3961 -0.0039  0.5606
   57SAPC  H18X 4282   2.919   3.449   8.718  0.1628  0.7220  0.0843
   57SAPC  H18Y 4283   2.925   3.584   8.837 -0.7768 -0.1621  1.0550
   57SAPC  H18Z 4284   2.815   3.601   8.696 -0.7717 -1.5999 -0.8582
   58SAPC     N 4285   5.299   0.959  11.102 -0.0318  0.0166  0.8583
   58SAPC   C12 4286   5.358   0.869  10.994 -0.8798  0.5100 -0.8329
   58SAPC  H12A 4287   5.287   0.790  10.973 -1.0116  0.4615 -0.2215
   58SAPC  H12B 4288   5.450   0.827  11.033  0.4545  0.6687 -3.7314
   58SAPC   C13 4289   5.248   0.880  11.218 -0.0582 -0.1528  0.0162
   58SAPC  H13A 4290   5.186   0.939  11.284  0.3496  0.1651  0.1122
   58SAPC  H13B 4291   5.185   0.804  11.174 -2.7517  1.3412  1.1820
   58SAPC  H13C 4292   5.319   0.821  11.274  1.3617 -0.9990 -2.5731
   58SAPC   C14 4293   5.409   1.040  11.158  0.1406  0.1134 -0.4082
   58SAPC  H14A 4294   5.373   1.120  11.220  1.7833  0.4559  0.1432
   58SAPC  H14B 4295   5.480   0.986  11.219 -0.6111 -1.4836 -0.9222
   58SAPC  H14C 4296   5.467   1.082  11.077 -0.2896  1.5757  0.0310
   58SAPC   C15 4297   5.199   1.048  11.038 -1.0280  0.1983  0.4457
   58SAPC  H15A 4298   5.154   1.115  11.110  1.1917  2.0991  0.1257
   58SAPC  H15B 4299   5.251   1.106  10.963  0.8330 -0.4104  1.2592
   58SAPC  H15C 4300   5.118   0.991  10.995  1.9485 -4.1072  0.3349
   58SAPC   C11 4301   5.403   0.943  10.871  0.0223 -0.4605 -0.1177
   58SAPC  H11A 4302   5.313   0.997  10.834 -0.3682  0.2553  1.8310
   58SAPC  H11B 4303   5.424   0.873  10.787  1.1057 -1.6284  1.1099
   58SAPC     P 4304   5.557   1.113  10.750  0.0993 -0.1242  0.3756
   58SAPC   O13 4305   5.440   1.188  10.702 -0.1907  0.0291 -0.5978
   58SAPC   O14 4306   5.676   1.201  10.782  0.6594 -0.1510  0.2654
   58SAPC   O12 4307   5.519   1.036  10.881  0.1212  0.3558 -0.5200
   58SAPC   O11 4308   5.588   1.000  10.647 -0.0144 -0.2128  0.1083
   58SAPC    C1 4309   5.708   0.921  10.653 -0.4102  0.3924  0.6909
   58SAPC    HA 4310   5.797   0.987  10.666 -0.0980 -0.0018  0.5596
   58SAPC    HB 4311   5.699   0.845  10.734 -0.5502 -0.8358 -0.4672
   58SAPC    C2 4312   5.736   0.838  10.524 -0.7319 -0.0679  0.7128
   58SAPC    HS 4313   5.789   0.743  10.547  0.7842 -0.2199 -3.0533
   58SAPC   O21 4314   5.817   0.919  10.436 -0.4086  0.0095  0.2244
   58SAPC   C21 4315   5.881   0.859  10.338 -0.9844 -0.4769  0.2943
   58SAPC   O22 4316   5.902   0.740  10.326 -0.0205  0.7526 -0.0287
   58SAPC   C22 4317   5.940   0.967  10.247 -0.0479 -0.1996 -0.0374
   58SAPC   H2R 4318   5.904   1.065  10.285 -2.7653 -1.1104 -0.1176
   58SAPC   H2S 4319   6.045   0.945  10.276  0.1220  1.8785  1.0284
   58SAPC    C3 4320   5.598   0.807  10.457  0.1197  0.1115 -0.0278
   58SAPC    HX 4321   5.554   0.904  10.425  1.5899  1.2962  1.3879
   58SAPC    HY 4322   5.522   0.767  10.528  0.9188 -1.4932 -0.0547
   58SAPC   O31 4323   5.606   0.728  10.334 -0.2097 -0.5086  0.4546
   58SAPC   C31 4324   5.607   0.605  10.343  0.3487  0.2780 -0.4527
   58SAPC   O32 4325   5.608   0.541  10.448 -0.2442 -0.4674 -0.5319
   58SAPC   C32 4326   5.583   0.543  10.206  0.5208 -0.0861  0.6670
   58SAPC   H2X 4327   5.478   0.541  10.170  1.6012 -0.3356 -2.5538
   58SAPC   H2Y 4328   5.603   0.435  10.216  2.4487  0.2436  0.5512
   58SAPC   C23 4329   5.901   0.936  10.103  0.3945 -0.6486  0.3331
   58SAPC   H3R 4330   5.923   0.834  10.065  2.6813  0.5254 -1.6461
   58SAPC   H3S 4331   5.989   0.987  10.058  0.9685 -3.3848 -1.8029
   58SAPC   C24 4332   5.766   0.992  10.058 -0.2406  0.2156  0.4470
   58SAPC   H4R 4333   5.694   0.963  10.138 -1.4892 -1.2522 -1.1920
   58SAPC   H4S 4334   5.722   0.939   9.971 -3.5918  0.5158  1.8694
   58SAPC   C25 4335   5.758   1.139  10.034  0.1294  0.1010  0.2681
   58SAPC   H5R 4336   5.819   1.204  10.098  2.6484 -0.4450 -1.4946
   58SAPC   C26 4337   5.690   1.200   9.941  0.2459 -1.0617  0.4299
   58SAPC   H6R 4338   5.703   1.309   9.943  0.0120 -1.0371  0.8181
   58SAPC   C27 4339   5.591   1.138   9.839 -0.4817  0.2239  0.3565
   58SAPC   H7R 4340   5.492   1.127   9.889  0.9670 -1.0472  3.0873
   58SAPC   H7S 4341   5.611   1.033   9.810 -2.2129 -0.0413  0.0749
   58SAPC   C28 4342   5.594   1.211   9.710  0.1482  0.0115  0.5774
   58SAPC   H8R 4343   5.518   1.291   9.717  0.8793  0.9676 -1.9743
   58SAPC   C29 4344   5.691   1.210   9.610 -0.3159  0.2610  0.6710
   58SAPC   H9R 4345   5.694   1.273   9.520  3.8585 -1.1042 -0.2312
   58SAPC  C210 4346   5.820   1.134   9.613 -0.3514 -0.0024 -0.4695
   58SAPC  H10R 4347   5.840   1.086   9.711  0.2011  0.6583 -0.2548
   58SAPC  H10S 4348   5.907   1.203   9.604 -0.0435 -0.1740  0.9755
   58SAPC  C211 4349   5.826   1.018   9.520  0.2980 -0.5866  0.1281
   58SAPC  H11R 4350   5.856   0.926   9.572  0.8199 -0.3222  0.3019
   58SAPC  C212 4351   5.807   1.018   9.390 -0.4601 -0.4927 -0.1712
   58SAPC  H12R 4352   5.815   0.921   9.339 -2.2581 -0.8925  0.2756
   58SAPC  C213 4353   5.761   1.124   9.294  0.1997  0.5338  0.2062
   58SAPC  H13R 4354   5.824   1.143   9.205 -1.9912 -1.9901 -1.9745
   58SAPC  H13S 4355   5.760   1.216   9.357  1.1834  0.9596 -0.3999
   58SAPC  C214 4356   5.615   1.115   9.260  0.0829 -0.0237  0.1148
   58SAPC  H14R 4357   5.542   1.098   9.340  0.0324 -2.3205 -0.3801
   58SAPC  C215 4358   5.560   1.129   9.132 -0.2895 -0.3639 -0.3664
   58SAPC  H15R 4359   5.456   1.098   9.114 -0.8609  1.3883 -0.1004
   58SAPC  C216 4360   5.636   1.150   9.009 -0.4554  0.2253  0.1354
   58SAPC  H16R 4361   5.724   1.216   9.022  0.4399 -0.9730  0.3228
   58SAPC  H16S 4362   5.563   1.196   8.938  1.0130  1.4277 -0.6243
   58SAPC  C217 4363   5.674   1.015   8.955 -0.4660 -0.1654  0.1603
   58SAPC  H17R 4364   5.588   0.946   8.940  0.1512 -1.0226  0.4747
   58SAPC  H17S 4365   5.753   0.972   9.022  1.2842  2.1349 -0.3708
   58SAPC  C218 4366   5.745   1.025   8.816  0.5093 -0.0065 -0.2497
   58SAPC  H18R 4367   5.793   0.925   8.802  0.0326 -0.0539 -1.6384
   58SAPC  H18S 4368   5.818   1.108   8.816 -0.8202  1.1833 -1.3087
   58SAPC  C219 4369   5.652   1.049   8.698  0.3726 -0.6554  0.1936
   58SAPC  H19R 4370   5.608   1.147   8.726  0.2465 -0.4300 -0.8066
   58SAPC  H19S 4371   5.573   0.971   8.701  0.7358 -1.0217  0.3636
   58SAPC  C220 4372   5.727   1.062   8.566 -0.5288  0.9817  0.4063
   58SAPC  H20R 4373   5.658   1.097   8.486 -2.3112  1.3824  2.0851
   58SAPC  H20S 4374   5.774   0.969   8.528 -1.8607  0.1824  0.6617
   58SAPC  H20T 4375   5.807   1.138   8.566  0.4408 -0.0014 -1.3513
   58SAPC   C33 4376   5.675   0.596  10.096  0.1935 -0.4181  0.0300
   58SAPC   H3X 4377   5.783   0.617  10.118 -0.0848 -1.2872  2.4467
   58SAPC   H3Y 4378   5.639   0.696  10.065 -1.0187 -0.8118  0.1787
   58SAPC   C34 4379   5.673   0.494   9.976  0.3195 -0.0507  0.2685
   58SAPC   H4X 4380   5.569   0.472   9.946 -0.5910 -0.1233  3.2885
   58SAPC   H4Y 4381   5.719   0.399  10.012  2.5449  0.3971 -1.2771
   58SAPC   C35 4382   5.768   0.525   9.862 -0.1720  0.0396 -0.0424
   58SAPC   H5X 4383   5.750   0.435   9.799  0.4071 -0.3688  0.3700
   58SAPC   H5Y 4384   5.874   0.515   9.892 -0.2178 -0.3435 -0.0073
   58SAPC   C36 4385   5.716   0.642   9.789 -0.2341  0.0510 -0.5237
   58SAPC   H6X 4386   5.756   0.734   9.836  0.8062 -0.2667 -0.7600
   58SAPC   H6Y 4387   5.606   0.647   9.797 -0.0919  1.8320  0.3895
   58SAPC   C37 4388   5.759   0.647   9.648 -0.6034 -0.0957  0.8644
   58SAPC   H7X 4389   5.864   0.613   9.639 -0.6377 -0.2163  0.9050
   58SAPC   H7Y 4390   5.750   0.752   9.614  0.5015 -0.1536  0.3826
   58SAPC   C38 4391   5.670   0.565   9.555  0.0042 -0.0992 -0.4668
   58SAPC   H8X 4392   5.577   0.532   9.606  1.5900 -1.1447  1.8564
   58SAPC   H8Y 4393   5.723   0.468   9.544  1.6516  0.5514  1.3975
   58SAPC   C39 4394   5.653   0.627   9.416  0.4247 -0.6661  0.3382
   58SAPC   H9X 4395   5.648   0.738   9.419  0.1500 -0.6082 -1.4867
   58SAPC   H9Y 4396   5.567   0.579   9.365  0.6976  0.3182 -1.0856
   58SAPC  C310 4397   5.777   0.608   9.330 -0.0591  0.0473  0.1678
   58SAPC  H10X 4398   5.802   0.503   9.307  2.4953  0.0473  2.6626
   58SAPC  H10Y 4399   5.862   0.654   9.386  0.8309  1.3537 -2.1623
   58SAPC  C311 4400   5.764   0.671   9.189  0.1973 -0.7924  0.3312
   58SAPC  H11X 4401   5.780   0.781   9.196  0.7075 -0.5905 -3.2533
   58SAPC  H11Y 4402   5.664   0.651   9.146 -0.0169 -0.6731  0.7675
   58SAPC  C312 4403   5.878   0.622   9.097  0.5630 -0.3195 -1.1319
   58SAPC  H12X 4404   5.889   0.513   9.118 -1.4515 -0.1797  0.9907
   58SAPC  H12Y 4405   5.974   0.666   9.132  0.2084  0.1059 -0.6723
   58SAPC  C313 4406   5.847   0.641   8.949  0.1096  0.4981 -0.1369
   58SAPC  H13X 4407   5.863   0.749   8.932 -3.5512  0.7890 -2.2516
   58SAPC  H13Y 4408   5.737   0.624   8.945 -0.3455  2.5804  2.0921
   58SAPC  C314 4409   5.923   0.542   8.855  0.7578 -0.7108  1.0174
   58SAPC  H14X 4410   5.868   0.446   8.866 -0.0226 -0.6387 -1.9127
   58SAPC  H14Y 4411   6.026   0.534   8.895  1.1291 -0.9570  0.0174
   58SAPC  C315 4412   5.931   0.576   8.706 -0.1329 -0.0339 -0.3242
   58SAPC  H15X 4413   5.825   0.596   8.678 -0.4167 -1.2003 -0.1161
   58SAPC  H15Y 4414   5.980   0.496   8.646 -0.5056  0.1582 -0.9023
   58SAPC  C316 4415   6.015   0.703   8.685 -0.1729  0.4336 -0.4275
   58SAPC  H16X 4416   6.123   0.701   8.710 -0.2770  0.1688  0.0082
   58SAPC  H16Y 4417   5.985   0.785   8.753  3.4696  0.3190  1.4151
   58SAPC  C317 4418   6.001   0.754   8.540  0.0794  0.2649  1.2820
   58SAPC  H17X 4419   6.048   0.851   8.515 -1.0420  0.6837  0.7658
   58SAPC  H17Y 4420   5.894   0.781   8.526 -0.8863 -2.6717  2.5444
   58SAPC  C318 4421   6.038   0.651   8.436 -0.1844 -0.0417  0.1570
   58SAPC  H18X 4422   6.053   0.702   8.338 -1.7450  2.8753  1.3666
   58SAPC  H18Y 4423   5.961   0.571   8.426 -2.5418  2.5004 -3.3969
   58SAPC  H18Z 4424   6.138   0.606   8.455 -0.3768 -0.4372  0.2417
   59SAPC     N 4425   6.666   2.456  11.331 -0.0991  0.5160  0.0541
   59SAPC   C12 4426   6.693   2.561  11.219  0.3083 -0.3297 -0.1604
   59SAPC  H12A 4427   6.790   2.603  11.239 -0.4011  0.9683  0.6454
   59SAPC  H12B 4428   6.623   2.643  11.226  2.1008  1.3219 -0.9791
   59SAPC   C13 4429   6.531   2.391  11.313  0.2868 -0.0689  0.0220
   59SAPC  H13A 4430   6.536   2.326  11.227  0.0979  0.7694 -0.6340
   59SAPC  H13B 4431   6.511   2.329  11.399 -0.2989  1.5102  1.0413
   59SAPC  H13C 4432   6.456   2.467  11.296 -0.7349 -1.0030  0.3102
   59SAPC   C14 4433   6.774   2.355  11.337 -0.1633  0.5277 -0.0854
   59SAPC  H14A 4434   6.874   2.392  11.322 -1.2294  3.2824 -0.8014
   59SAPC  H14B 4435   6.769   2.281  11.415  1.4493 -1.3304 -1.7034
   59SAPC  H14C 4436   6.771   2.297  11.247  3.4868 -1.4130  0.9584
   59SAPC   C15 4437   6.657   2.529  11.459  0.0327 -0.8703 -0.3106
   59SAPC  H15A 4438   6.659   2.465  11.546 -1.1019  0.0440  0.3978
   59SAPC  H15B 4439   6.745   2.589  11.475 -0.7303 -0.2970  1.8923
   59SAPC  H15C 4440   6.572   2.595  11.452  1.0539  0.5882  0.8170
   59SAPC   C11 4441   6.705   2.513  11.072 -0.5937  0.1996 -0.0985
   59SAPC  H11A 4442   6.706   2.602  11.005  1.5028  0.6940  0.5546
   59SAPC  H11B 4443   6.612   2.457  11.050 -1.7177  2.0440 -0.1907
   59SAPC     P 4444   6.964   2.506  11.046  0.2745  0.1919  0.3293
   59SAPC   O13 4445   6.972   2.611  11.142  0.3261 -0.2528  0.5391
   59SAPC   O14 4446   7.072   2.403  11.053  0.5187 -0.0049 -0.3017
   59SAPC   O12 4447   6.823   2.434  11.052 -0.1602  0.0533 -0.7028
   59SAPC   O11 4448   6.965   2.565  10.902 -0.1965  0.0498 -0.2362
   59SAPC    C1 4449   6.931   2.502  10.779  0.0379 -0.2158  0.3591
   59SAPC    HA 4450   6.835   2.446  10.786 -0.6714  0.8378 -0.7581
   59SAPC    HB 4451   6.913   2.578  10.700 -0.9789 -0.0391  0.7570
   59SAPC    C2 4452   7.029   2.387  10.736 -0.3575  0.0000  0.4512
   59SAPC    HS 4453   7.023   2.301  10.805 -1.9691  1.0446  1.6441
   59SAPC   O21 4454   7.163   2.447  10.752  0.2837  0.5559 -0.1168
   59SAPC   C21 4455   7.259   2.355  10.751 -0.6713 -0.6739  0.2863
   59SAPC   O22 4456   7.237   2.236  10.733 -0.5788 -0.2787 -0.6312
   59SAPC   C22 4457   7.396   2.419  10.769 -0.4756 -0.3820 -0.1260
   59SAPC   H2R 4458   7.404   2.508  10.703 -1.8292 -0.7926 -0.8545
   59SAPC   H2S 4459   7.396   2.449  10.876  1.1947 -1.8413  0.3137
   59SAPC    C3 4460   7.002   2.330  10.594  0.3218  1.0941 -0.0758
   59SAPC    HX 4461   6.892   2.314  10.594  0.2960  1.0623  1.9031
   59SAPC    HY 4462   7.062   2.238  10.578 -1.6201 -0.0043 -1.2264
   59SAPC   O31 4463   7.042   2.435  10.503  0.2805  0.2013  0.3412
   59SAPC   C31 4464   7.153   2.412  10.429 -0.4509  0.5012  0.3798
   59SAPC   O32 4465   7.237   2.330  10.454 -0.4654  0.0299 -0.3675
   59SAPC   C32 4466   7.148   2.502  10.306  0.2630 -0.1598  0.7423
   59SAPC   H2X 4467   7.241   2.563  10.312 -0.0799  0.4035  0.3790
   59SAPC   H2Y 4468   7.061   2.569  10.321 -0.7827 -1.4665  0.5340
   59SAPC   C23 4469   7.509   2.314  10.749 -0.1378 -0.0783 -0.4665
   59SAPC   H3R 4470   7.475   2.211  10.768 -2.9866  1.1531  1.4232
   59SAPC   H3S 4471   7.588   2.337  10.824  0.3214  1.2867 -1.3308
   59SAPC   C24 4472   7.567   2.324  10.603  0.0077 -0.2029  0.5533
   59SAPC   H4R 4473   7.609   2.424  10.581  0.9117 -0.6474  0.2469
   59SAPC   H4S 4474   7.488   2.304  10.527  1.8260 -2.4902 -0.7803
   59SAPC   C25 4475   7.678   2.221  10.592  0.1290  0.3730 -0.3572
   59SAPC   H5R 4476   7.736   2.212  10.685  0.4814 -1.0715 -0.7153
   59SAPC   C26 4477   7.702   2.155  10.478  0.2015  0.3965 -0.1276
   59SAPC   H6R 4478   7.799   2.104  10.467  0.0809  0.7729 -3.5903
   59SAPC   C27 4479   7.622   2.147  10.351 -0.0676 -0.8109  0.6391
   59SAPC   H7R 4480   7.564   2.240  10.333  0.3510 -0.0433  3.1687
   59SAPC   H7S 4481   7.540   2.076  10.374  0.7990 -1.7980  0.7197
   59SAPC   C28 4482   7.676   2.099  10.221 -0.2901  0.3809 -0.1950
   59SAPC   H8R 4483   7.782   2.068  10.224 -0.0514  1.3090  1.4663
   59SAPC   C29 4484   7.617   2.098  10.103  0.3125 -0.1539 -0.3363
   59SAPC   H9R 4485   7.668   2.051  10.017  0.2498  1.6142 -1.3544
   59SAPC  C210 4486   7.480   2.137  10.061 -0.2816 -0.0726  0.1684
   59SAPC  H10R 4487   7.421   2.149  10.155 -0.1550 -0.7684  0.3440
   59SAPC  H10S 4488   7.434   2.048  10.013 -1.8811 -0.6264  2.6231
   59SAPC  C211 4489   7.468   2.250   9.964  0.2897  0.4537 -0.1147
   59SAPC  H11R 4490   7.438   2.344  10.011 -0.5608 -1.4931  3.3833
   59SAPC  C212 4491   7.491   2.251   9.831 -0.4181  0.5075  0.3978
   59SAPC  H12R 4492   7.485   2.350   9.784 -0.6695  2.0106  3.4556
   59SAPC  C213 4493   7.535   2.137   9.740 -0.1498  0.1286 -0.2839
   59SAPC  H13R 4494   7.449   2.097   9.682 -0.3803 -1.3925  1.0666
   59SAPC  H13S 4495   7.575   2.057   9.806 -0.1934  0.1734 -0.2025
   59SAPC  C214 4496   7.660   2.185   9.667 -0.5258 -0.0897 -0.9193
   59SAPC  H14R 4497   7.728   2.231   9.741 -0.0283 -4.0204  1.2054
   59SAPC  C215 4498   7.688   2.187   9.534  0.1861  0.4350 -0.2832
   59SAPC  H15R 4499   7.783   2.233   9.501 -0.5551  0.5308 -2.3057
   59SAPC  C216 4500   7.603   2.142   9.420  0.0468 -0.4301 -0.6054
   59SAPC  H16R 4501   7.523   2.219   9.414 -0.8762 -1.3113  0.0928
   59SAPC  H16S 4502   7.555   2.049   9.458  1.2829 -1.7493 -2.1728
   59SAPC  C217 4503   7.672   2.111   9.292  0.0151 -0.4499  0.4776
   59SAPC  H17R 4504   7.746   2.029   9.301 -2.0049 -2.4604 -0.8942
   59SAPC  H17S 4505   7.733   2.203   9.274  1.1746 -1.2936  0.0485
   59SAPC  C218 4506   7.588   2.084   9.164 -0.2508 -0.1333  0.1414
   59SAPC  H18R 4507   7.538   2.175   9.125  1.0280  0.0607 -1.0685
   59SAPC  H18S 4508   7.506   2.013   9.190 -0.2641  0.5453  2.0393
   59SAPC  C219 4509   7.677   2.018   9.055 -0.0673 -0.2412 -1.0282
   59SAPC  H19R 4510   7.702   1.916   9.090  0.9386  0.6075  0.7573
   59SAPC  H19S 4511   7.766   2.081   9.036  0.4491 -0.5710  0.2670
   59SAPC  C220 4512   7.594   1.997   8.929  0.4257  0.2920 -0.1247
   59SAPC  H20R 4513   7.511   2.070   8.916 -0.6141 -0.0399  3.9023
   59SAPC  H20S 4514   7.559   1.892   8.930 -1.5336  0.9278  0.4084
   59SAPC  H20T 4515   7.649   1.999   8.832 -0.3052 -1.5284 -0.5848
   59SAPC   C33 4516   7.160   2.428  10.172 -0.4559  0.1613 -0.1773
   59SAPC   H3X 4517   7.067   2.370  10.162 -1.1417  1.3127 -0.6577
   59SAPC   H3Y 4518   7.250   2.363  10.164 -1.2236 -0.9648  0.4166
   59SAPC   C34 4519   7.171   2.524  10.053  0.7441  0.2740 -0.0030
   59SAPC   H4X 4520   7.274   2.564  10.054  0.1454  1.8105  1.1683
   59SAPC   H4Y 4521   7.095   2.605  10.060  0.4023 -0.1001  0.6746
   59SAPC   C35 4522   7.146   2.449   9.923  0.4123  1.0021 -0.1313
   59SAPC   H5X 4523   7.038   2.436   9.904  0.6006 -1.5420  0.4574
   59SAPC   H5Y 4524   7.192   2.348   9.926  0.6545  1.1131 -0.0380
   59SAPC   C36 4525   7.195   2.545   9.811 -0.2731  0.1820  0.3378
   59SAPC   H6X 4526   7.296   2.582   9.838 -0.0030 -0.7611  0.6570
   59SAPC   H6Y 4527   7.129   2.635   9.814  0.9990  1.2755 -2.5114
   59SAPC   C37 4528   7.192   2.474   9.676  0.6825 -0.2141  0.4123
   59SAPC   H7X 4529   7.090   2.431   9.664  1.3758 -1.4941 -1.0883
   59SAPC   H7Y 4530   7.260   2.386   9.669  0.7260  0.0249 -3.2701
   59SAPC   C38 4531   7.205   2.572   9.557  0.4429  1.1373  0.6006
   59SAPC   H8X 4532   7.311   2.603   9.570  0.4374  1.0035  0.9513
   59SAPC   H8Y 4533   7.159   2.671   9.580 -1.4461  0.4923 -0.3124
   59SAPC   C39 4534   7.149   2.526   9.418  0.1503  0.8781  0.1534
   59SAPC   H9X 4535   7.174   2.608   9.347 -0.7673  0.5732 -0.5223
   59SAPC   H9Y 4536   7.039   2.516   9.423  0.3269 -0.6190  1.8584
   59SAPC  C310 4537   7.195   2.389   9.366 -0.0969  1.1754 -0.3241
   59SAPC  H10X 4538   7.207   2.310   9.443  1.9923 -0.3954 -2.1624
   59SAPC  H10Y 4539   7.301   2.398   9.334  0.9543 -2.2478  1.9257
   59SAPC  C311 4540   7.102   2.350   9.259  0.9638 -0.1814  0.1755
   59SAPC  H11X 4541   7.094   2.430   9.183 -1.5005  0.2044  0.7918
   59SAPC  H11Y 4542   6.996   2.346   9.291  0.4414 -0.6716 -1.5531
   59SAPC  C312 4543   7.151   2.233   9.188  0.1120  0.5608  0.2194
   59SAPC  H12X 4544   7.165   2.144   9.253 -1.4847  0.0184 -0.1594
   59SAPC  H12Y 4545   7.253   2.249   9.148  0.2617  0.6730  0.6345
   59SAPC  C313 4546   7.054   2.189   9.080  0.3254 -0.1227  0.1803
   59SAPC  H13X 4547   7.053   2.254   8.990  0.2758 -0.6649 -0.2138
   59SAPC  H13Y 4548   6.948   2.173   9.110 -0.0903 -0.6001 -1.4844
   59SAPC  C314 4549   7.099   2.051   9.023 -0.6049 -0.7026 -0.6295
   59SAPC  H14X 4550   7.014   1.996   8.977 -0.0435 -1.8500 -0.3151
   59SAPC  H14Y 4551   7.123   1.985   9.109 -1.9739 -1.5488 -0.8939
   59SAPC  C315 4552   7.204   2.066   8.902 -0.6813  0.0734  0.3578
   59SAPC  H15X 4553   7.285   2.133   8.939 -0.8817 -0.0201  0.9714
   59SAPC  H15Y 4554   7.156   2.131   8.826  2.7148  2.7800  0.3890
   59SAPC  C316 4555   7.245   1.931   8.845  0.4845 -0.0616  0.5488
   59SAPC  H16X 4556   7.158   1.862   8.838  1.2210 -0.9873  0.3965
   59SAPC  H16Y 4557   7.312   1.880   8.919 -0.7865  1.4560  2.8067
   59SAPC  C317 4558   7.324   1.938   8.720 -0.6876  0.0082 -0.3726
   59SAPC  H17X 4559   7.347   1.831   8.702 -1.0571 -0.2288  0.5327
   59SAPC  H17Y 4560   7.412   2.002   8.739  0.5954 -1.6997 -0.5003
   59SAPC  C318 4561   7.237   1.985   8.598  0.0249 -0.3456 -0.2612
   59SAPC  H18X 4562   7.164   1.913   8.556 -0.4887 -0.3997  0.7108
   59SAPC  H18Y 4563   7.315   2.007   8.522  1.2297  2.2866  1.6810
   59SAPC  H18Z 4564   7.187   2.084   8.610  0.0182 -0.2296 -1.2018
   60SAPC     N 4565   1.929   0.759  10.695  1.0549  0.2899  0.1904
   60SAPC   C12 4566   2.033   0.873  10.662  0.3822  1.7580  0.8095
   60SAPC  H12A 4567   2.094   0.888  10.750  0.3008 -2.5296  1.7003
   60SAPC  H12B 4568   1.982   0.963  10.630  0.6612  1.6214 -0.0533
   60SAPC   C13 4569   1.851   0.826  10.801  0.0526  0.0405 -0.6285
   60SAPC  H13A 4570   1.768   0.760  10.825 -0.8288  1.4048  0.1583
   60SAPC  H13B 4571   1.903   0.851  10.892  0.4611 -1.2977 -0.4808
   60SAPC  H13C 4572   1.813   0.916  10.755  0.9783 -0.4401 -2.3777
   60SAPC   C14 4573   1.847   0.727  10.571  0.7839 -0.1899  0.1546
   60SAPC  H14A 4574   1.898   0.671  10.494  1.3956 -1.5032  1.4985
   60SAPC  H14B 4575   1.761   0.664  10.590  2.3988 -1.9462  1.9407
   60SAPC  H14C 4576   1.814   0.820  10.526  1.0941  0.2573  0.8334
   60SAPC   C15 4577   2.001   0.636  10.747  0.5636 -0.1777 -0.6086
   60SAPC  H15A 4578   2.081   0.602  10.682 -0.7509 -0.2283 -2.2163
   60SAPC  H15B 4579   2.053   0.667  10.837  1.5589  1.3928 -1.6845
   60SAPC  H15C 4580   1.924   0.563  10.767  1.0029 -0.4840  0.0048
   60SAPC   C11 4581   2.132   0.837  10.556  0.5514 -0.1520  0.4539
   60SAPC  H11A 4582   2.166   0.932  10.509  0.7856  0.1564  1.2421
   60SAPC  H11B 4583   2.074   0.784  10.477 -0.0179  0.6604  0.3274
   60SAPC     P 4584   2.386   0.795  10.657 -0.0305 -0.7653 -0.0570
   60SAPC   O13 4585   2.428   0.918  10.592  0.4922 -0.6405 -0.1814
   60SAPC   O14 4586   2.404   0.795  10.802  0.3199 -0.1922  0.0513
   60SAPC   O12 4587   2.242   0.757  10.610  0.5153  0.5224 -0.2751
   60SAPC   O11 4588   2.468   0.678  10.598  0.0352 -0.5534 -0.0898
   60SAPC    C1 4589   2.579   0.690  10.508 -0.4656  0.2929  0.6103
   60SAPC    HA 4590   2.650   0.774  10.526 -0.7137  0.7036 -0.2967
   60SAPC    HB 4591   2.640   0.598  10.514  0.2448  0.7959  1.2809
   60SAPC    C2 4592   2.540   0.694  10.361 -0.0219  0.0312 -0.1383
   60SAPC    HS 4593   2.533   0.800  10.329  1.4761 -0.1316 -1.0604
   60SAPC   O21 4594   2.417   0.624  10.354 -0.1849 -0.1665 -0.0643
   60SAPC   C21 4595   2.311   0.696  10.300  0.4593 -0.3086 -0.2431
   60SAPC   O22 4596   2.312   0.810  10.260 -0.4609 -0.2085  0.2684
   60SAPC   C22 4597   2.191   0.602  10.298  0.8889  0.0492  0.6759
   60SAPC   H2R 4598   2.221   0.495  10.287  0.8984  0.2084 -0.9454
   60SAPC   H2S 4599   2.139   0.610  10.396 -2.1977 -1.3322 -0.7880
   60SAPC    C3 4600   2.651   0.631  10.276  0.3118  0.0278 -0.5147
   60SAPC    HX 4601   2.653   0.522  10.293  1.5567  0.0245 -0.6253
   60SAPC    HY 4602   2.747   0.673  10.314 -0.9364  1.9184  0.6115
   60SAPC   O31 4603   2.636   0.652  10.129  0.3140  0.9490 -0.1701
   60SAPC   C31 4604   2.679   0.771  10.084 -0.1829 -0.4012 -0.3901
   60SAPC   O32 4605   2.717   0.863  10.157 -0.4710  0.3952 -0.2055
   60SAPC   C32 4606   2.672   0.775   9.927 -0.4591 -0.5309 -0.2696
   60SAPC   H2X 4607   2.592   0.700   9.904  1.1392 -1.8988 -1.5146
   60SAPC   H2Y 4608   2.772   0.746   9.889  0.5245  0.0428  1.8306
   60SAPC   C23 4609   2.092   0.632  10.187 -0.8884 -0.4845 -0.8082
   60SAPC   H3R 4610   2.078   0.740  10.164 -0.2157 -0.0016  1.0028
   60SAPC   H3S 4611   1.999   0.597  10.237  0.2697 -1.8106  0.4567
   60SAPC   C24 4612   2.110   0.554  10.057 -0.6956 -0.4555 -0.0947
   60SAPC   H4R 4613   2.017   0.573   9.998 -0.5247  0.4468 -0.0696
   60SAPC   H4S 4614   2.104   0.446  10.084 -1.1879  0.0951  2.0718
   60SAPC   C25 4615   2.233   0.566   9.974  0.0847  0.4798  0.6028
   60SAPC   H5R 4616   2.325   0.517  10.010 -0.3983  0.6571  2.1247
   60SAPC   C26 4617   2.245   0.632   9.859  1.5372 -0.1641  0.3130
   60SAPC   H6R 4618   2.333   0.626   9.793 -0.2695  0.1492 -2.2050
   60SAPC   C27 4619   2.142   0.719   9.793  0.3152  0.4981 -0.2378
   60SAPC   H7R 4620   2.200   0.808   9.760 -0.0260  0.4856 -0.8731
   60SAPC   H7S 4621   2.079   0.765   9.872  0.5081 -0.8307  0.7043
   60SAPC   C28 4622   2.043   0.668   9.698  0.2732  0.0405 -1.1595
   60SAPC   H8R 4623   1.944   0.644   9.740 -0.2977 -0.4325 -2.7304
   60SAPC   C29 4624   2.058   0.642   9.570  0.2700 -0.0189  0.3851
   60SAPC   H9R 4625   1.974   0.600   9.513 -0.1961  0.4841  0.7005
   60SAPC  C210 4626   2.186   0.667   9.498 -0.4698 -0.2197  0.3217
   60SAPC  H10R 4627   2.211   0.579   9.435  0.4021  0.8086 -0.7851
   60SAPC  H10S 4628   2.277   0.662   9.562 -0.2333 -2.7618 -0.1807
   60SAPC  C211 4629   2.183   0.789   9.408 -0.0145 -0.0312  0.4555
   60SAPC  H11R 4630   2.084   0.829   9.381 -0.3965 -0.7187  0.8348
   60SAPC  C212 4631   2.290   0.847   9.354  0.7776 -0.6341 -0.4018
   60SAPC  H12R 4632   2.278   0.929   9.282  2.5524  0.3908  0.4343
   60SAPC  C213 4633   2.430   0.795   9.375  0.5625  0.1073  0.0857
   60SAPC  H13R 4634   2.447   0.741   9.471  0.5672 -0.3032 -0.1439
   60SAPC  H13S 4635   2.504   0.877   9.368  0.4128  0.3755  1.6083
   60SAPC  C214 4636   2.455   0.699   9.259  0.0400 -0.5502  0.6044
   60SAPC  H14R 4637   2.425   0.595   9.280  0.1356  0.0035  3.7423
   60SAPC  C215 4638   2.515   0.730   9.143  0.1714  0.1456  0.4396
   60SAPC  H15R 4639   2.558   0.647   9.085  0.4151  0.1842  0.5682
   60SAPC  C216 4640   2.558   0.865   9.089  0.4204  0.6357 -1.2510
   60SAPC  H16R 4641   2.646   0.855   9.022  0.0578  0.6732 -1.7323
   60SAPC  H16S 4642   2.594   0.936   9.166 -2.0096  1.3591 -0.7378
   60SAPC  C217 4643   2.445   0.947   9.009  0.0621 -0.0783  0.0744
   60SAPC  H17R 4644   2.389   1.013   9.079 -0.0110  0.5022 -0.5259
   60SAPC  H17S 4645   2.381   0.870   8.960  0.0620 -0.5038  0.7373
   60SAPC  C218 4646   2.509   1.035   8.894  0.1196  0.6235  0.2359
   60SAPC  H18R 4647   2.421   1.088   8.851 -0.9440 -1.2212  0.1162
   60SAPC  H18S 4648   2.553   0.974   8.812 -3.2633 -0.5063 -0.8273
   60SAPC  C219 4649   2.600   1.145   8.954 -0.2207  0.1980  0.1182
   60SAPC  H19R 4650   2.701   1.104   8.978 -0.4855  0.1710  1.2088
   60SAPC  H19S 4651   2.565   1.184   9.052  0.3960 -0.5591  0.6431
   60SAPC  C220 4652   2.626   1.268   8.862  0.2353 -0.3959  0.0468
   60SAPC  H20R 4653   2.535   1.330   8.849  1.3282  0.7701 -2.4238
   60SAPC  H20S 4654   2.651   1.233   8.759  0.3013  3.0323 -1.1655
   60SAPC  H20T 4655   2.711   1.331   8.895 -0.2635 -0.5235  1.5914
   60SAPC   C33 4656   2.627   0.908   9.874  0.4158 -0.0839  0.9141
   60SAPC   H3X 4657   2.641   0.904   9.764  0.2857  1.5311  0.8237
   60SAPC   H3Y 4658   2.689   0.992   9.910  1.9940 -0.6032 -0.5123
   60SAPC   C34 4659   2.480   0.934   9.892  0.0442 -0.2099 -0.0263
   60SAPC   H4X 4660   2.458   0.931  10.001 -2.3584 -1.5905 -0.5267
   60SAPC   H4Y 4661   2.416   0.854   9.851  0.4556 -0.2741 -0.5402
   60SAPC   C35 4662   2.440   1.068   9.845 -0.0305 -0.5154  0.4380
   60SAPC   H5X 4663   2.519   1.145   9.855  2.4628 -2.9709  0.4315
   60SAPC   H5Y 4664   2.341   1.097   9.887 -1.6757 -4.1091 -0.7465
   60SAPC   C36 4665   2.421   1.075   9.691  0.2585  0.2472  0.4777
   60SAPC   H6X 4666   2.360   0.985   9.668  0.7244 -0.8833  3.4860
   60SAPC   H6Y 4667   2.522   1.064   9.645 -0.4463 -1.1545 -0.8013
   60SAPC   C37 4668   2.341   1.188   9.633 -0.1417 -0.1934 -0.2193
   60SAPC   H7X 4669   2.366   1.276   9.695  1.8548  0.2781 -1.6307
   60SAPC   H7Y 4670   2.233   1.163   9.624 -0.1250 -0.1494 -0.5763
   60SAPC   C38 4671   2.391   1.216   9.486  0.9242 -0.6495 -0.5635
   60SAPC   H8X 4672   2.384   1.119   9.433  0.1990 -1.0561  0.2556
   60SAPC   H8Y 4673   2.495   1.255   9.482  0.9791 -0.8911 -1.6924
   60SAPC   C39 4674   2.296   1.298   9.395 -0.0351 -0.1463  0.4013
   60SAPC   H9X 4675   2.349   1.328   9.302 -3.9227 -0.9572 -2.2103
   60SAPC   H9Y 4676   2.279   1.399   9.441 -1.2598  0.5187 -1.4656
   60SAPC  C310 4677   2.165   1.225   9.352 -0.2613  0.0544  0.3045
   60SAPC  H10X 4678   2.114   1.176   9.437 -3.2004  1.1142 -0.7585
   60SAPC  H10Y 4679   2.193   1.148   9.278  0.4069 -0.0496  0.6631
   60SAPC  C311 4680   2.075   1.322   9.276  0.1741 -0.2580 -0.0515
   60SAPC  H11X 4681   2.021   1.381   9.354 -0.2352  0.5145 -0.9119
   60SAPC  H11Y 4682   2.001   1.256   9.226 -0.9569  1.7761 -1.1282
   60SAPC  C312 4683   2.125   1.415   9.168  0.0856  0.2296  0.5372
   60SAPC  H12X 4684   2.218   1.467   9.198  1.3552 -1.9596  0.4758
   60SAPC  H12Y 4685   2.047   1.494   9.163  1.2090  1.2587 -0.7695
   60SAPC  C313 4686   2.159   1.359   9.036 -0.2012  0.3587 -0.0085
   60SAPC  H13X 4687   2.070   1.297   9.011  0.4670 -0.5798 -0.0839
   60SAPC  H13Y 4688   2.246   1.292   9.052 -1.6006 -1.3521  0.5812
   60SAPC  C314 4689   2.196   1.454   8.926 -0.8137  0.2151  0.0763
   60SAPC  H14X 4690   2.288   1.513   8.948 -0.7078  0.0847 -0.0196
   60SAPC  H14Y 4691   2.117   1.532   8.931  0.1076  1.3020 -1.6656
   60SAPC  C315 4692   2.205   1.392   8.787 -1.2010  0.5842 -0.8694
   60SAPC  H15X 4693   2.103   1.367   8.749  0.0081 -3.0566 -1.9527
   60SAPC  H15Y 4694   2.262   1.296   8.788  0.1716  1.3954  0.8852
   60SAPC  C316 4695   2.279   1.491   8.698  0.3511  0.2422  0.4780
   60SAPC  H16X 4696   2.381   1.505   8.739  0.6308 -1.2015  0.2853
   60SAPC  H16Y 4697   2.236   1.593   8.684  0.6851 -0.0542 -3.4291
   60SAPC  C317 4698   2.309   1.444   8.553 -0.9438 -0.2739  0.5086
   60SAPC  H17X 4699   2.360   1.525   8.498 -0.2154 -0.6510  0.6228
   60SAPC  H17Y 4700   2.214   1.427   8.498  0.4392 -1.8684 -1.4812
   60SAPC  C318 4701   2.397   1.313   8.547 -0.2141 -0.5127  0.1652
   60SAPC  H18X 4702   2.353   1.227   8.602  0.7957 -0.4754  1.0368
   60SAPC  H18Y 4703   2.491   1.322   8.605 -1.1630  0.6601  1.5342
   60SAPC  H18Z 4704   2.422   1.275   8.445 -0.8350  0.2106 -0.2552
   61SAPC     N 4705   3.013   5.595  10.881 -0.2515 -0.0003 -0.4857
   61SAPC   C12 4706   2.902   5.663  10.969  0.3046  0.4652  0.3271
   61SAPC  H12A 4707   2.919   5.627  11.070 -2.5231  1.1615  1.0958
   61SAPC  H12B 4708   2.808   5.627  10.929  0.8463  0.9703 -1.4295
   61SAPC   C13 4709   2.969   5.617  10.738  0.8099  0.2241 -0.5184
   61SAPC  H13A 4710   2.872   5.573  10.716  1.2214 -0.2906 -1.3237
   61SAPC  H13B 4711   2.969   5.724  10.721  1.1813  1.0871  4.2999
   61SAPC  H13C 4712   3.047   5.577  10.675  2.8657 -2.6404  3.6499
   61SAPC   C14 4713   3.143   5.667  10.908 -0.0854 -0.7695 -0.3362
   61SAPC  H14A 4714   3.124   5.773  10.907  0.6309 -0.6448 -0.6757
   61SAPC  H14B 4715   3.194   5.646  11.001  0.7999  0.8671 -0.4426
   61SAPC  H14C 4716   3.217   5.642  10.834 -1.6124 -0.5374 -1.9759
   61SAPC   C15 4717   3.026   5.452  10.911  0.4718  0.0488  0.4860
   61SAPC  H15A 4718   2.934   5.397  10.902 -0.7347  1.9189  1.1909
   61SAPC  H15B 4719   3.097   5.399  10.850  1.4850 -0.4308  2.0257
   61SAPC  H15C 4720   3.059   5.419  11.009 -0.1291 -0.6414  0.4643
   61SAPC   C11 4721   2.886   5.818  10.986  1.1192  0.5889  0.9783
   61SAPC  H11A 4722   2.968   5.847  11.055  1.4636 -1.6888  1.5930
   61SAPC  H11B 4723   2.797   5.844  11.047  0.3717 -1.0238  0.6132
   61SAPC     P 4724   2.956   6.013  10.835  0.4490 -0.1462  0.0172
   61SAPC   O13 4725   2.855   6.120  10.795 -0.3917  0.4693 -0.3288
   61SAPC   O14 4726   3.054   6.034  10.946 -0.7661 -0.5136  0.3087
   61SAPC   O12 4727   2.876   5.881  10.860 -0.5986 -0.2240 -0.1353
   61SAPC   O11 4728   3.040   5.970  10.709  0.1271 -0.6566 -0.9348
   61SAPC    C1 4729   2.997   5.955  10.573 -0.1227 -0.7487  0.3436
   61SAPC    HA 4730   3.057   5.875  10.525 -0.1089  0.7372 -2.2334
   61SAPC    HB 4731   2.896   5.910  10.566 -2.0642  3.3344  0.8207
   61SAPC    C2 4732   3.027   6.076  10.484 -0.2168  0.4477  0.3561
   61SAPC    HS 4733   2.970   6.165  10.519  0.1651  1.2709 -1.0875
   61SAPC   O21 4734   2.991   6.050  10.344 -0.3783  0.0126 -0.3813
   61SAPC   C21 4735   2.960   6.161  10.273  0.4258  0.4174  0.5102
   61SAPC   O22 4736   2.923   6.265  10.315 -0.0095 -0.5100 -0.1464
   61SAPC   C22 4737   2.988   6.134  10.126  0.6634  0.3103  0.2301
   61SAPC   H2R 4738   3.063   6.054  10.112 -1.3628 -1.2441 -2.2565
   61SAPC   H2S 4739   2.891   6.094  10.090  0.0653  0.3390  1.7450
   61SAPC    C3 4740   3.175   6.103  10.485 -0.3604 -0.0219 -0.2233
   61SAPC    HX 4741   3.229   6.018  10.437 -1.7902 -0.8948 -0.3092
   61SAPC    HY 4742   3.219   6.109  10.586  1.1537  0.0239 -0.8739
   61SAPC   O31 4743   3.202   6.218  10.410 -0.2790  0.4415  0.0115
   61SAPC   C31 4744   3.223   6.329  10.479 -0.1627  0.2831  0.2582
   61SAPC   O32 4745   3.243   6.331  10.600  0.1235  0.1788  0.2635
   61SAPC   C32 4746   3.215   6.458  10.388 -0.1510 -0.5832  0.0090
   61SAPC   H2X 4747   3.198   6.537  10.464 -1.6080 -1.6420  0.8140
   61SAPC   H2Y 4748   3.131   6.440  10.317 -0.8854 -0.4971  0.8606
   61SAPC   C23 4749   3.030   6.252  10.035  0.6232 -0.2767 -1.0526
   61SAPC   H3R 4750   3.089   6.324  10.096  0.9824  0.7463 -2.5849
   61SAPC   H3S 4751   2.948   6.314   9.992 -0.8049 -1.1679  0.3299
   61SAPC   C24 4752   3.119   6.195   9.924 -0.0261  0.3564  0.4326
   61SAPC   H4R 4753   3.198   6.135   9.976  0.5814 -1.0986 -2.0947
   61SAPC   H4S 4754   3.166   6.277   9.867 -0.5205 -0.4072 -1.0944
   61SAPC   C25 4755   3.035   6.107   9.834  0.2350  0.1223  0.4485
   61SAPC   H5R 4756   2.996   6.021   9.891 -0.6228 -0.9525 -1.7046
   61SAPC   C26 4757   3.011   6.127   9.699  0.3412 -0.4246  0.6469
   61SAPC   H6R 4758   2.959   6.049   9.642  3.4369 -1.9495 -0.1692
   61SAPC   C27 4759   3.071   6.232   9.618  0.3856 -0.7550  0.3270
   61SAPC   H7R 4760   3.181   6.222   9.625  0.4672  1.6214  3.7450
   61SAPC   H7S 4761   3.059   6.331   9.667 -0.7336 -0.3732 -0.6852
   61SAPC   C28 4762   3.019   6.234   9.474 -0.3776  0.0458 -0.1751
   61SAPC   H8R 4763   2.910   6.220   9.466 -0.4722  1.2897 -1.1858
   61SAPC   C29 4764   3.097   6.237   9.364 -0.2984  0.7425  0.1653
   61SAPC   H9R 4765   3.040   6.242   9.270  0.3574 -1.3578 -0.3761
   61SAPC  C210 4766   3.248   6.243   9.360 -0.6278  0.7343  0.6109
   61SAPC  H10R 4767   3.281   6.157   9.422 -0.1037 -0.6450 -1.5207
   61SAPC  H10S 4768   3.294   6.334   9.404  2.2359 -0.3030 -0.0649
   61SAPC  C211 4769   3.300   6.223   9.216 -0.5045 -0.6055  0.1840
   61SAPC  H11R 4770   3.256   6.144   9.155  0.3561 -0.3086 -0.8406
   61SAPC  C212 4771   3.401   6.289   9.168 -0.9513 -0.4041  0.4676
   61SAPC  H12R 4772   3.428   6.258   9.066 -0.9791  0.4099  0.2081
   61SAPC  C213 4773   3.494   6.391   9.232 -0.0882 -0.1434  0.5630
   61SAPC  H13R 4774   3.593   6.385   9.183 -0.5346  1.4792 -0.5699
   61SAPC  H13S 4775   3.508   6.366   9.340 -1.4528  0.2334  0.8450
   61SAPC  C214 4776   3.432   6.527   9.227 -0.2229 -0.7194 -0.3239
   61SAPC  H14R 4777   3.324   6.532   9.242 -0.2612  0.3546 -0.9455
   61SAPC  C215 4778   3.499   6.646   9.215  0.1938 -0.1107 -0.3254
   61SAPC  H15R 4779   3.438   6.737   9.217  1.0294  0.4681 -0.5443
   61SAPC  C216 4780   3.644   6.672   9.192 -0.4443 -0.2522 -0.6525
   61SAPC  H16R 4781   3.708   6.592   9.234  0.0850  1.1116  1.1961
   61SAPC  H16S 4782   3.676   6.754   9.259 -0.4106 -3.0609  2.9302
   61SAPC  C217 4783   3.685   6.695   9.040  0.4416  0.7357  1.0484
   61SAPC  H17R 4784   3.786   6.740   9.036  0.1410  1.4188  1.0829
   61SAPC  H17S 4785   3.610   6.764   8.995  1.0793  0.3205 -0.6607
   61SAPC  C218 4786   3.683   6.569   8.955  0.7745  0.5180  0.6548
   61SAPC  H18R 4787   3.576   6.539   8.951  1.4818 -1.7815 -2.2193
   61SAPC  H18S 4788   3.744   6.493   9.008  1.1375  1.9466  2.3516
   61SAPC  C219 4789   3.733   6.574   8.807  0.0194 -0.2088 -0.0715
   61SAPC  H19R 4790   3.682   6.659   8.756  0.0531  0.7688  1.4881
   61SAPC  H19S 4791   3.699   6.481   8.756  0.1244 -1.0868  1.4286
   61SAPC  C220 4792   3.886   6.584   8.801  0.8061 -0.5373 -0.2591
   61SAPC  H20R 4793   3.937   6.494   8.840 -1.6258 -0.3928  3.5226
   61SAPC  H20S 4794   3.921   6.673   8.857  1.4526 -1.7576  1.3015
   61SAPC  H20T 4795   3.911   6.607   8.695 -1.0650  0.3481 -0.5339
   61SAPC   C33 4796   3.339   6.468  10.306 -0.4992 -0.3843  0.0830
   61SAPC   H3X 4797   3.343   6.400  10.219 -1.9175 -0.0103 -0.3018
   61SAPC   H3Y 4798   3.427   6.447  10.370  1.0904  1.9873 -1.2130
   61SAPC   C34 4799   3.368   6.614  10.266  0.5109 -0.1420 -0.0603
   61SAPC   H4X 4800   3.367   6.683  10.353  0.8501  1.3412 -1.1988
   61SAPC   H4Y 4801   3.294   6.646  10.189  1.5535 -1.3483 -1.6125
   61SAPC   C35 4802   3.510   6.626  10.190 -0.0521  0.1229 -0.0759
   61SAPC   H5X 4803   3.584   6.576  10.255 -1.1163  0.1158  1.1507
   61SAPC   H5Y 4804   3.543   6.732  10.199 -0.9745  0.1838  3.4483
   61SAPC   C36 4805   3.500   6.581  10.043 -0.1154  0.0374 -0.9767
   61SAPC   H6X 4806   3.438   6.658   9.991 -0.5726  0.9313  0.8587
   61SAPC   H6Y 4807   3.447   6.483  10.044  2.8142 -1.5908 -1.4608
   61SAPC   C37 4808   3.630   6.554   9.975 -0.7715 -0.4054 -0.4530
   61SAPC   H7X 4809   3.686   6.475  10.030  0.1053  1.2224  1.0116
   61SAPC   H7Y 4810   3.682   6.652   9.969  1.2597 -1.4529 -0.4004
   61SAPC   C38 4811   3.626   6.513   9.833  0.9016 -0.1426  0.3248
   61SAPC   H8X 4812   3.566   6.588   9.777 -0.8976 -1.2038  0.8057
   61SAPC   H8Y 4813   3.566   6.420   9.824  0.4037  0.2962 -1.0116
   61SAPC   C39 4814   3.760   6.468   9.763 -0.1686  0.2098 -0.3497
   61SAPC   H9X 4815   3.794   6.377   9.817  1.5569 -0.1677 -2.0246
   61SAPC   H9Y 4816   3.837   6.542   9.794  0.6688 -1.4896  1.7733
   61SAPC  C310 4817   3.751   6.449   9.614  0.1817 -0.0376 -0.3762
   61SAPC  H10X 4818   3.735   6.550   9.572  0.0805  0.2875  0.4215
   61SAPC  H10Y 4819   3.680   6.373   9.575 -1.2680  0.9795  0.2390
   61SAPC  C311 4820   3.880   6.396   9.545 -1.0050 -0.3506 -0.4663
   61SAPC  H11X 4821   3.921   6.302   9.590  0.3757  0.5555  0.2086
   61SAPC  H11Y 4822   3.956   6.473   9.568 -1.1584 -0.3354  0.0114
   61SAPC  C312 4823   3.846   6.365   9.395 -0.0029  0.2219 -0.5391
   61SAPC  H12X 4824   3.806   6.461   9.355  2.3678  1.1626 -0.7794
   61SAPC  H12Y 4825   3.778   6.279   9.381 -0.9254  0.6533  1.1440
   61SAPC  C313 4826   3.978   6.307   9.333 -0.3381  0.0834 -0.2827
   61SAPC  H13X 4827   4.007   6.223   9.399 -0.4889 -0.2516 -0.6460
   61SAPC  H13Y 4828   4.060   6.381   9.348  0.8645 -1.6817  2.1596
   61SAPC  C314 4829   3.947   6.269   9.193 -0.1803 -0.3889 -0.5455
   61SAPC  H14X 4830   3.905   6.363   9.151  0.9462  0.2431 -0.2759
   61SAPC  H14Y 4831   3.870   6.189   9.196  1.4026 -2.0749 -3.2677
   61SAPC  C315 4832   4.070   6.223   9.119 -0.4488 -0.2474 -0.0107
   61SAPC  H15X 4833   4.092   6.120   9.155  2.0006  0.2270 -0.0499
   61SAPC  H15Y 4834   4.157   6.287   9.148 -0.1192 -0.1219 -1.2587
   61SAPC  C316 4835   4.056   6.224   8.970 -0.1107  0.7366  0.2186
   61SAPC  H16X 4836   4.066   6.329   8.936 -0.3414  0.4950 -0.6045
   61SAPC  H16Y 4837   3.957   6.185   8.939  0.7085 -2.2038  1.1572
   61SAPC  C317 4838   4.164   6.133   8.908  1.0417 -0.0584 -0.3380
   61SAPC  H17X 4839   4.142   6.137   8.799  1.3887  0.3973 -0.3924
   61SAPC  H17Y 4840   4.155   6.033   8.955  0.3185  0.4039  0.5093
   61SAPC  C318 4841   4.318   6.177   8.928 -0.1526  0.4046  0.2127
   61SAPC  H18X 4842   4.384   6.115   8.864  0.2474  1.9941 -0.9453
   61SAPC  H18Y 4843   4.357   6.159   9.030  1.7759  2.8828 -0.0606
   61SAPC  H18Z 4844   4.331   6.282   8.894  1.1861  0.3698  0.6238
   62SAPC     N 4845   1.847   5.995  10.981  0.3310  0.0932 -0.2806
   62SAPC   C12 4846   1.897   6.089  10.870  0.3386  0.2911 -0.1852
   62SAPC  H12A 4847   2.004   6.075  10.861  0.1458 -1.4453  0.0784
   62SAPC  H12B 4848   1.881   6.188  10.908 -0.5111 -0.3628  1.1813
   62SAPC   C13 4849   1.704   6.014  11.025  0.4042 -0.3620 -0.5150
   62SAPC  H13A 4850   1.671   5.942  11.099 -0.4715 -1.4374 -1.9174
   62SAPC  H13B 4851   1.686   6.112  11.065  0.8038  0.0918 -1.4411
   62SAPC  H13C 4852   1.639   6.003  10.940  0.6861  1.2182 -0.9504
   62SAPC   C14 4853   1.858   5.856  10.935 -1.1783 -0.7842 -0.0658
   62SAPC  H14A 4854   1.807   5.856  10.839 -0.3482 -1.6099 -0.5111
   62SAPC  H14B 4855   1.959   5.823  10.917  0.5779  3.8558  0.7170
   62SAPC  H14C 4856   1.811   5.786  11.002 -1.3647  0.7692  1.4666
   62SAPC   C15 4857   1.944   6.014  11.087  0.7860  0.1400 -0.3259
   62SAPC  H15A 4858   2.045   5.997  11.055  0.3197 -1.9318 -0.7788
   62SAPC  H15B 4859   1.927   6.111  11.131  0.9662  1.1434 -2.4360
   62SAPC  H15C 4860   1.912   5.947  11.166  1.0365 -1.5828 -1.6556
   62SAPC   C11 4861   1.832   6.069  10.735 -0.4875 -0.0152 -0.9412
   62SAPC  H11A 4862   1.841   6.155  10.665  0.8884  0.4868 -0.1565
   62SAPC  H11B 4863   1.724   6.049  10.749 -0.3166 -1.0690 -1.0667
   62SAPC     P 4864   2.036   5.974  10.603 -0.4635  0.3471  0.4305
   62SAPC   O13 4865   2.117   6.090  10.655 -0.0381 -0.2586  0.1805
   62SAPC   O14 4866   2.104   5.842  10.613 -0.3346 -0.3186 -0.1679
   62SAPC   O12 4867   1.891   5.961  10.661 -0.0512  0.3304 -0.0679
   62SAPC   O11 4868   2.000   6.006  10.457 -0.2743 -0.3893 -0.0271
   62SAPC    C1 4869   2.046   5.930  10.341  0.6478 -0.7494 -0.3704
   62SAPC    HA 4870   2.023   5.821  10.346  0.0976 -0.6509 -0.6975
   62SAPC    HB 4871   1.991   5.969  10.253 -2.2579  0.6291  1.9596
   62SAPC    C2 4872   2.200   5.940  10.320  0.3652 -0.4856 -0.3317
   62SAPC    HS 4873   2.245   5.879  10.401 -2.0141 -1.1568  0.5457
   62SAPC   O21 4874   2.246   6.076  10.321 -0.2123 -0.4895 -0.5278
   62SAPC   C21 4875   2.361   6.100  10.382 -0.4954 -0.4875  0.6144
   62SAPC   O22 4876   2.417   6.031  10.464 -0.0389 -0.0488 -0.2718
   62SAPC   C22 4877   2.403   6.252  10.353 -0.0691  0.0586  0.3979
   62SAPC   H2R 4878   2.311   6.304  10.319  0.3602 -1.2246 -2.9442
   62SAPC   H2S 4879   2.439   6.305  10.444 -0.5636  2.4687 -0.7832
   62SAPC    C3 4880   2.220   5.877  10.178 -0.6847  0.2837 -0.2042
   62SAPC    HX 4881   2.212   5.767  10.171 -1.6352  0.3109  0.3383
   62SAPC    HY 4882   2.325   5.906  10.160 -1.1880  1.6387 -1.0895
   62SAPC   O31 4883   2.131   5.936  10.079  0.0589  0.0199 -0.5224
   62SAPC   C31 4884   2.191   5.952   9.953  0.2033 -0.6589  0.2130
   62SAPC   O32 4885   2.294   5.900   9.919 -0.0167 -0.4263 -0.0181
   62SAPC   C32 4886   2.096   6.024   9.859 -0.0165 -0.0825 -0.1539
   62SAPC   H2X 4887   2.062   6.114   9.914  3.0033  1.0825 -0.0684
   62SAPC   H2Y 4888   2.006   5.964   9.837 -0.4308  0.0855  1.0458
   62SAPC   C23 4889   2.521   6.239  10.249  0.4700  0.7712  0.2530
   62SAPC   H3R 4890   2.502   6.178  10.158  0.1708 -0.0021  0.8285
   62SAPC   H3S 4891   2.605   6.189  10.302  2.3356  0.5446 -2.8096
   62SAPC   C24 4892   2.558   6.381  10.213 -0.3544 -0.1683 -0.5011
   62SAPC   H4R 4893   2.604   6.418  10.307 -0.4837 -0.2689 -0.3983
   62SAPC   H4S 4894   2.465   6.441  10.198 -1.5799 -2.0837 -0.7216
   62SAPC   C25 4895   2.659   6.371  10.099  0.2024 -0.1257 -0.3899
   62SAPC   H5R 4896   2.763   6.399  10.122  0.2377 -0.6145  0.0558
   62SAPC   C26 4897   2.637   6.343   9.966  0.3022 -0.0011  0.2878
   62SAPC   H6R 4898   2.727   6.344   9.903  0.2359  3.1884  0.1154
   62SAPC   C27 4899   2.507   6.319   9.895  0.2289  0.2065  0.3062
   62SAPC   H7R 4900   2.469   6.417   9.858  2.0796 -0.2197 -2.8331
   62SAPC   H7S 4901   2.424   6.284   9.961  0.1766  1.2107  0.7869
   62SAPC   C28 4902   2.523   6.223   9.781 -0.1619  0.4722 -0.5660
   62SAPC   H8R 4903   2.500   6.118   9.807  1.9456  0.5504  1.7697
   62SAPC   C29 4904   2.546   6.254   9.651 -0.7864 -0.3229 -0.8254
   62SAPC   H9R 4905   2.569   6.165   9.591  0.3011 -2.1871  2.2566
   62SAPC  C210 4906   2.552   6.384   9.577  0.3882 -0.2388 -0.0428
   62SAPC  H10R 4907   2.518   6.465   9.645 -2.4612 -1.6106  0.2450
   62SAPC  H10S 4908   2.486   6.374   9.488  0.9099  0.4580 -0.5174
   62SAPC  C211 4909   2.690   6.424   9.523  0.3467 -0.3811  0.5243
   62SAPC  H11R 4910   2.767   6.448   9.597  0.7658 -1.7760  0.5495
   62SAPC  C212 4911   2.724   6.434   9.398  0.5431 -0.0456 -0.1264
   62SAPC  H12R 4912   2.830   6.453   9.373  0.8890 -1.6779  0.0141
   62SAPC  C213 4913   2.630   6.405   9.277 -0.2476 -0.1138 -0.6551
   62SAPC  H13R 4914   2.653   6.474   9.193 -1.4521  1.2977  0.1438
   62SAPC  H13S 4915   2.521   6.415   9.296 -0.1689  0.4617 -0.4989
   62SAPC  C214 4916   2.662   6.268   9.228 -0.6731 -0.1826 -0.0769
   62SAPC  H14R 4917   2.646   6.186   9.300 -0.1218 -0.0169  0.2350
   62SAPC  C215 4918   2.708   6.228   9.111 -0.3641 -0.0477  1.3779
   62SAPC  H15R 4919   2.740   6.123   9.109 -1.6509 -0.4574  1.5811
   62SAPC  C216 4920   2.744   6.309   8.987  0.0021 -0.5018 -0.3906
   62SAPC  H16R 4921   2.853   6.332   8.988  0.2692 -1.5593 -2.2870
   62SAPC  H16S 4922   2.696   6.409   8.984 -1.4886 -1.1766  0.3439
   62SAPC  C217 4923   2.718   6.236   8.853  0.3829  0.1254 -0.2912
   62SAPC  H17R 4924   2.611   6.229   8.820  0.5505  0.1977 -0.8651
   62SAPC  H17S 4925   2.764   6.136   8.849  2.2294  1.0280 -2.9449
   62SAPC  C218 4926   2.792   6.310   8.740  0.5110  0.0175  0.5110
   62SAPC  H18R 4927   2.899   6.317   8.770  0.5467 -0.2483  0.4432
   62SAPC  H18S 4928   2.750   6.412   8.724  1.9809  0.5426 -0.0324
   62SAPC  C219 4929   2.784   6.244   8.602  0.1015  0.1203 -0.0039
   62SAPC  H19R 4930   2.678   6.244   8.569 -0.6085 -0.0239  2.1934
   62SAPC  H19S 4931   2.801   6.136   8.622  0.0727 -0.0996 -1.1562
   62SAPC  C220 4932   2.885   6.300   8.506  0.2629 -0.3579 -0.1878
   62SAPC  H20R 4933   2.989   6.308   8.543 -0.0528 -1.1953  0.8935
   62SAPC  H20S 4934   2.862   6.404   8.474  1.5706  0.6535  2.0719
   62SAPC  H20T 4935   2.895   6.232   8.418  0.2620 -1.9076  0.9948
   62SAPC   C33 4936   2.171   6.061   9.726  0.0813  0.6959 -0.0783
   62SAPC   H3X 4937   2.271   6.104   9.749  0.5535 -0.0531 -0.7127
   62SAPC   H3Y 4938   2.108   6.143   9.684  0.6743  0.3149 -1.7605
   62SAPC   C34 4939   2.191   5.934   9.630  0.6246  0.0101 -0.5095
   62SAPC   H4X 4940   2.091   5.889   9.649 -0.4963  1.6126 -2.2888
   62SAPC   H4Y 4941   2.281   5.873   9.653  1.1893  0.5226 -1.3453
   62SAPC   C35 4942   2.202   5.960   9.477  0.3888  0.2900 -0.2623
   62SAPC   H5X 4943   2.117   6.030   9.460  0.8265  0.7624 -0.5174
   62SAPC   H5Y 4944   2.178   5.866   9.422 -2.5354  0.9078 -0.1483
   62SAPC   C36 4945   2.314   6.041   9.428  0.5420  0.0605 -0.3626
   62SAPC   H6X 4946   2.396   5.967   9.421  0.0362 -0.6797  1.2494
   62SAPC   H6Y 4947   2.338   6.127   9.495  0.8239  0.2014 -0.6425
   62SAPC   C37 4948   2.297   6.094   9.285 -0.5077  0.0683  0.9674
   62SAPC   H7X 4949   2.328   6.201   9.285  1.9848 -0.5946  2.0768
   62SAPC   H7Y 4950   2.190   6.093   9.259  0.2428  1.7699 -2.4539
   62SAPC   C38 4951   2.373   6.016   9.170  0.8860 -0.3342 -0.2698
   62SAPC   H8X 4952   2.354   5.907   9.161 -0.1592 -0.0646 -1.4067
   62SAPC   H8Y 4953   2.481   6.020   9.194  0.9255 -2.1801 -0.0717
   62SAPC   C39 4954   2.343   6.065   9.030 -0.5334  1.0151 -0.9047
   62SAPC   H9X 4955   2.357   6.172   9.005  0.7250  0.3902 -3.0595
   62SAPC   H9Y 4956   2.235   6.047   9.011 -0.3825  1.2483 -2.0160
   62SAPC  C310 4957   2.435   5.993   8.935 -0.5127 -0.2410  1.1743
   62SAPC  H10X 4958   2.410   5.886   8.952  0.0418 -0.4449  0.6979
   62SAPC  H10Y 4959   2.540   6.019   8.958 -0.1017  0.2131 -1.1152
   62SAPC  C311 4960   2.405   6.031   8.786  0.6135 -0.7900 -0.5411
   62SAPC  H11X 4961   2.433   6.137   8.770 -1.1557 -0.1338  0.6218
   62SAPC  H11Y 4962   2.294   6.024   8.784  0.5006 -0.3914  2.5614
   62SAPC  C312 4963   2.483   5.937   8.690  0.0602  0.0562 -0.8889
   62SAPC  H12X 4964   2.451   5.832   8.706  0.5227  0.3535  2.2561
   62SAPC  H12Y 4965   2.593   5.932   8.706 -0.4091 -1.4517  2.2198
   62SAPC  C313 4966   2.467   5.976   8.541  0.0717  0.1366  0.0296
   62SAPC  H13X 4967   2.529   5.909   8.478  0.9235  1.8452 -0.9808
   62SAPC  H13Y 4968   2.521   6.072   8.526 -0.9736  0.6038 -0.8688
   62SAPC  C314 4969   2.336   6.007   8.486  0.5864  0.2769  0.6329
   62SAPC  H14X 4970   2.283   6.088   8.541 -0.1398  0.8394 -0.8650
   62SAPC  H14Y 4971   2.270   5.919   8.475  0.7407  0.3084 -0.6444
   62SAPC  C315 4972   2.364   6.061   8.335  0.5664  0.4063  0.3124
   62SAPC  H15X 4973   2.422   5.980   8.287 -0.5537 -0.0176 -0.3547
   62SAPC  H15Y 4974   2.417   6.159   8.338 -1.5197  1.6832 -2.2603
   62SAPC  C316 4975   2.231   6.065   8.259 -0.6612  0.0456  1.2876
   62SAPC  H16X 4976   2.163   6.146   8.295 -2.7190 -0.3021 -1.5911
   62SAPC  H16Y 4977   2.166   5.975   8.262 -1.1704  0.4521  2.6388
   62SAPC  C317 4978   2.250   6.084   8.107 -0.6018  0.8129  0.7608
   62SAPC  H17X 4979   2.308   6.177   8.093  1.4091 -0.1486  2.3949
   62SAPC  H17Y 4980   2.148   6.104   8.068 -0.6711 -1.4005 -0.3055
   62SAPC  C318 4981   2.323   5.976   8.036 -0.3495  0.5197 -0.1277
   62SAPC  H18X 4982   2.336   5.997   7.927 -1.1384  0.4658 -0.2374
   62SAPC  H18Y 4983   2.252   5.891   8.040  0.7809 -0.3327  2.7331
   62SAPC  H18Z 4984   2.418   5.934   8.075 -0.7713  1.5207  2.0811
   63SAPC     N 4985   6.625   4.123   6.339 -0.2798  0.1299 -0.1444
   63SAPC   C12 4986   6.746   4.104   6.246 -0.1431 -0.2404 -0.6017
   63SAPC  H12A 4987   6.721   4.047   6.158  0.4605  0.8361 -1.4738
   63SAPC  H12B 4988   6.827   4.059   6.301 -0.1661  1.9389  1.2943
   63SAPC   C13 4989   6.543   4.246   6.292 -0.2778  0.0523  0.4474
   63SAPC  H13A 4990   6.472   4.275   6.367 -0.8347 -0.1995  0.0215
   63SAPC  H13B 4991   6.613   4.327   6.277  0.1900 -0.4212  0.0325
   63SAPC  H13C 4992   6.493   4.209   6.203 -0.3160  1.3946 -0.0890
   63SAPC   C14 4993   6.539   3.999   6.348 -0.6036 -1.0135  0.0192
   63SAPC  H14A 4994   6.449   4.025   6.401 -0.6938 -1.5740  0.1421
   63SAPC  H14B 4995   6.513   3.959   6.251  1.1908  1.3113 -1.4705
   63SAPC  H14C 4996   6.594   3.915   6.388 -0.4721  0.4703  3.0867
   63SAPC   C15 4997   6.676   4.161   6.474  0.0620 -0.5045 -0.2642
   63SAPC  H15A 4998   6.591   4.187   6.535 -0.3057  0.3744 -1.1414
   63SAPC  H15B 4999   6.734   4.084   6.523  1.6609  0.7829 -0.1076
   63SAPC  H15C 5000   6.744   4.243   6.455  1.3339 -1.8701 -1.7820
   63SAPC   C11 5001   6.804   4.239   6.191  0.2578 -0.1319  0.7255
   63SAPC  H11A 5002   6.727   4.276   6.120  0.8953 -0.6274 -0.2354
   63SAPC  H11B 5003   6.896   4.226   6.131 -1.4668  5.8310 -3.7415
   63SAPC     P 5004   6.841   4.476   6.269  0.1966  0.2322 -0.0992
   63SAPC   O13 5005   6.957   4.515   6.188 -0.1337 -0.3425  0.4157
   63SAPC   O14 5006   6.704   4.520   6.222 -0.4966 -0.2262  0.0042
   63SAPC   O12 5007   6.844   4.316   6.300  0.3619  0.2349  0.2598
   63SAPC   O11 5008   6.864   4.546   6.412 -0.5525 -0.5199 -0.1576
   63SAPC    C1 5009   6.767   4.523   6.513 -0.0526  0.1828 -0.1415
   63SAPC    HA 5010   6.669   4.563   6.479 -0.2027  0.6620  0.8427
   63SAPC    HB 5011   6.754   4.415   6.536  4.2888 -0.5081 -0.5929
   63SAPC    C2 5012   6.810   4.587   6.647 -0.2913 -0.0339  0.5617
   63SAPC    HS 5013   6.747   4.549   6.730 -1.1632 -0.7269 -0.4107
   63SAPC   O21 5014   6.792   4.738   6.643 -0.6004  0.3335 -0.0403
   63SAPC   C21 5015   6.664   4.775   6.655  0.2648  0.5765  0.1048
   63SAPC   O22 5016   6.576   4.694   6.688 -0.0097 -0.0725 -0.0323
   63SAPC   C22 5017   6.651   4.919   6.613 -0.0672 -0.8079 -0.4111
   63SAPC   H2R 5018   6.717   4.980   6.679  1.6729 -2.7202 -0.3005
   63SAPC   H2S 5019   6.699   4.916   6.513  0.9381 -0.3579  0.0391
   63SAPC    C3 5020   6.961   4.546   6.670 -0.9130 -0.4203 -0.4714
   63SAPC    HX 5021   7.024   4.586   6.589  1.5931 -1.8125  0.7230
   63SAPC    HY 5022   6.969   4.435   6.674  2.0092 -0.2339 -0.0434
   63SAPC   O31 5023   7.002   4.614   6.793 -0.1081  0.0416  0.3504
   63SAPC   C31 5024   7.136   4.620   6.805  1.0149 -0.1678  0.5937
   63SAPC   O32 5025   7.215   4.555   6.734  0.0355 -0.0309  0.1104
   63SAPC   C32 5026   7.164   4.705   6.926 -0.7456 -0.2558 -0.2292
   63SAPC   H2X 5027   7.127   4.807   6.903  1.4188  0.5545 -0.2784
   63SAPC   H2Y 5028   7.275   4.705   6.935 -0.6976 -0.6601 -0.8461
   63SAPC   C23 5029   6.507   4.980   6.633 -1.2392 -0.1135  0.7378
   63SAPC   H3R 5030   6.431   4.908   6.596 -0.8915  0.0031 -0.2313
   63SAPC   H3S 5031   6.500   5.068   6.566 -1.0188  0.5220  1.5452
   63SAPC   C24 5032   6.473   5.045   6.767 -0.3489 -0.4385 -0.2685
   63SAPC   H4R 5033   6.488   4.981   6.857 -0.0684  2.3155  1.7161
   63SAPC   H4S 5034   6.365   5.067   6.773 -0.1721  0.7935 -1.5311
   63SAPC   C25 5035   6.530   5.183   6.788  0.4951 -0.5787 -0.3015
   63SAPC   H5R 5036   6.502   5.257   6.711 -0.7277 -0.2491  0.4492
   63SAPC   C26 5037   6.618   5.226   6.888  0.7852  0.8494  0.3486
   63SAPC   H6R 5038   6.648   5.332   6.884 -1.0386  1.4026  0.5423
   63SAPC   C27 5039   6.682   5.144   6.999  0.6026  1.0986  0.5115
   63SAPC   H7R 5040   6.596   5.110   7.062  0.5171  2.0475  0.9230
   63SAPC   H7S 5041   6.737   5.211   7.069  2.8128 -0.4247  0.2881
   63SAPC   C28 5042   6.761   5.021   6.948  0.2576 -0.2285  0.4181
   63SAPC   H8R 5043   6.844   5.039   6.878  0.6161  1.2208  1.2170
   63SAPC   C29 5044   6.756   4.893   6.988 -0.6634  0.3009  0.4719
   63SAPC   H9R 5045   6.828   4.828   6.937 -3.4120 -0.2958 -2.8537
   63SAPC  C210 5046   6.677   4.834   7.104  0.5946 -0.5535 -0.1243
   63SAPC  H10R 5047   6.663   4.725   7.088  1.1069 -0.4995 -0.9929
   63SAPC  H10S 5048   6.573   4.871   7.098 -0.2735 -2.4974  2.1754
   63SAPC  C211 5049   6.727   4.878   7.233 -0.1842  0.1603  0.2617
   63SAPC  H11R 5050   6.742   4.987   7.240 -0.1435  0.0996  1.2146
   63SAPC  C212 5051   6.741   4.815   7.345  0.3514 -0.0206 -0.1528
   63SAPC  H12R 5052   6.791   4.866   7.428 -0.5782  0.9347 -0.1613
   63SAPC  C213 5053   6.716   4.671   7.364  0.0687  1.0412  0.3318
   63SAPC  H13R 5054   6.804   4.614   7.402  0.1008  1.0313  0.2401
   63SAPC  H13S 5055   6.690   4.620   7.269  0.2296 -0.0318  0.8512
   63SAPC  C214 5056   6.603   4.656   7.462  0.1663  0.3644  0.1965
   63SAPC  H14R 5057   6.509   4.710   7.444  0.5414  0.9469 -0.0415
   63SAPC  C215 5058   6.609   4.576   7.574 -0.2956  0.6322 -0.0108
   63SAPC  H15R 5059   6.512   4.565   7.626 -0.7453 -2.1794 -1.3355
   63SAPC  C216 5060   6.730   4.496   7.622  0.7594 -0.3970  0.0061
   63SAPC  H16R 5061   6.816   4.562   7.648 -1.5787  1.9569  2.0866
   63SAPC  H16S 5062   6.765   4.442   7.532  3.0437  2.9808 -1.2459
   63SAPC  C217 5063   6.692   4.399   7.742 -0.0520  0.1784 -0.3337
   63SAPC  H17R 5064   6.768   4.319   7.759 -1.7914 -0.9858  2.3315
   63SAPC  H17S 5065   6.596   4.348   7.718  1.1526 -2.5532  0.4041
   63SAPC  C218 5066   6.666   4.490   7.868  0.7543  0.3461 -0.1136
   63SAPC  H18R 5067   6.579   4.558   7.854 -0.9752 -1.2420  2.5875
   63SAPC  H18S 5068   6.744   4.568   7.879 -0.4952  1.5511  0.4731
   63SAPC  C219 5069   6.639   4.416   7.999  0.0268 -0.7082  0.5585
   63SAPC  H19R 5070   6.726   4.347   8.003  0.2727 -0.5020 -0.8755
   63SAPC  H19S 5071   6.547   4.353   7.991 -0.4489  0.0821 -0.3534
   63SAPC  C220 5072   6.644   4.510   8.126 -0.4203  0.3478 -0.5306
   63SAPC  H20R 5073   6.743   4.561   8.127  0.9561 -2.2432  0.6416
   63SAPC  H20S 5074   6.617   4.453   8.218 -1.6766  0.6114 -0.7313
   63SAPC  H20T 5075   6.568   4.590   8.123  0.9114  1.6169 -0.8588
   63SAPC   C33 5076   7.096   4.655   7.057 -0.6926 -0.0065  0.2190
   63SAPC   H3X 5077   7.120   4.548   7.075  0.9537  0.2967 -0.1123
   63SAPC   H3Y 5078   6.987   4.676   7.058  0.0392  4.3179 -1.0225
   63SAPC   C34 5079   7.154   4.730   7.186  0.2819 -0.3037  0.6640
   63SAPC   H4X 5080   7.258   4.694   7.197  1.4609  2.5276 -0.9340
   63SAPC   H4Y 5081   7.098   4.688   7.273 -0.9249  0.1159  0.0980
   63SAPC   C35 5082   7.137   4.882   7.186 -0.7018 -0.3241  0.1732
   63SAPC   H5X 5083   7.032   4.917   7.202 -0.5864  0.4365 -0.6713
   63SAPC   H5Y 5084   7.176   4.929   7.093 -0.9253 -1.1384 -0.3308
   63SAPC   C36 5085   7.203   4.944   7.305 -0.2097  0.2015 -0.4585
   63SAPC   H6X 5086   7.189   5.054   7.298 -0.1011  0.3136  0.9482
   63SAPC   H6Y 5087   7.312   4.926   7.303 -0.6294 -2.5401 -0.0932
   63SAPC   C37 5088   7.150   4.883   7.440 -0.0344  0.0021 -0.0552
   63SAPC   H7X 5089   7.204   4.789   7.460  0.2753  0.2423  0.2415
   63SAPC   H7Y 5090   7.042   4.864   7.423  0.1499 -0.1771 -1.0694
   63SAPC   C38 5091   7.184   4.975   7.559  0.0872  0.1208  0.3149
   63SAPC   H8X 5092   7.126   5.070   7.554 -1.4362 -0.7346  1.5716
   63SAPC   H8Y 5093   7.294   4.988   7.550  0.3082 -0.8424  1.4727
   63SAPC   C39 5094   7.157   4.912   7.700  0.2614  0.3752  0.0329
   63SAPC   H9X 5095   7.191   4.979   7.782 -0.9427 -0.1355  0.9692
   63SAPC   H9Y 5096   7.216   4.818   7.697  1.0057  0.7934  1.2675
   63SAPC  C310 5097   7.011   4.886   7.734  0.1707 -0.5895  0.5196
   63SAPC  H10X 5098   6.966   4.812   7.664  2.1515  0.6463 -2.1805
   63SAPC  H10Y 5099   6.959   4.984   7.718 -0.1496 -0.5989  1.5082
   63SAPC  C311 5100   6.997   4.851   7.883 -0.4983 -0.3284 -0.8216
   63SAPC  H11X 5101   6.889   4.845   7.908 -0.0261 -0.8479  1.1917
   63SAPC  H11Y 5102   7.043   4.927   7.950  1.9509 -2.5139  0.0479
   63SAPC  C312 5103   7.074   4.723   7.917  0.0028 -0.5392  0.0881
   63SAPC  H12X 5104   7.184   4.738   7.909  0.2878 -1.9911  0.9840
   63SAPC  H12Y 5105   7.035   4.642   7.851 -0.1825 -0.4037  0.0294
   63SAPC  C313 5106   7.057   4.682   8.067 -0.0031 -0.2466  0.3784
   63SAPC  H13X 5107   6.949   4.664   8.088 -0.7201  0.7967 -2.1326
   63SAPC  H13Y 5108   7.098   4.760   8.134 -0.8807  0.4416  0.1272
   63SAPC  C314 5109   7.136   4.555   8.102  0.2863 -0.2525  0.6410
   63SAPC  H14X 5110   7.243   4.558   8.074 -0.1074 -1.5670 -1.1398
   63SAPC  H14Y 5111   7.091   4.476   8.037  0.7953 -0.6078  0.7198
   63SAPC  C315 5112   7.134   4.524   8.251  0.6004 -0.1448 -0.2190
   63SAPC  H15X 5113   7.027   4.526   8.282  0.1217  1.4626 -1.8485
   63SAPC  H15Y 5114   7.194   4.591   8.316  1.4343 -1.3378  0.2441
   63SAPC  C316 5115   7.200   4.387   8.282  0.3814 -0.3066 -0.0294
   63SAPC  H16X 5116   7.304   4.379   8.244  1.3697 -1.3186  2.7409
   63SAPC  H16Y 5117   7.135   4.312   8.231  0.8529 -0.3964 -0.4908
   63SAPC  C317 5118   7.216   4.358   8.434 -0.2888 -0.5769  0.5592
   63SAPC  H17X 5119   7.121   4.381   8.487 -0.7928 -1.6684  0.1517
   63SAPC  H17Y 5120   7.295   4.423   8.475 -0.5728 -1.0250  1.8523
   63SAPC  C318 5121   7.253   4.217   8.462  0.2581  0.4014  0.2831
   63SAPC  H18X 5122   7.338   4.178   8.402  0.0084 -0.4383  0.4582
   63SAPC  H18Y 5123   7.172   4.153   8.420  1.3598  0.6617 -2.2915
   63SAPC  H18Z 5124   7.271   4.197   8.570 -0.4015 -0.0466  0.3161
   64SAPC     N 5125   1.969   5.129   5.859 -0.6981 -0.2777  0.4304
   64SAPC   C12 5126   1.954   5.089   6.001 -0.2741 -0.6017 -0.0168
   64SAPC  H12A 5127   2.042   5.116   6.058 -0.1812 -1.5848  0.3236
   64SAPC  H12B 5128   1.958   4.981   6.007  2.0695 -0.4845  1.3012
   64SAPC   C13 5129   2.115   5.125   5.826  0.1767  0.2266  0.1009
   64SAPC  H13A 5130   2.150   5.026   5.850 -2.7061 -1.0291 -0.6148
   64SAPC  H13B 5131   2.127   5.136   5.719 -2.2168 -1.7445 -0.4323
   64SAPC  H13C 5132   2.171   5.194   5.887  0.7146 -1.9208  2.0734
   64SAPC   C14 5133   1.891   5.042   5.765 -0.2829 -0.2034 -0.1794
   64SAPC  H14A 5134   1.785   5.048   5.788 -0.4447 -2.2985 -0.2755
   64SAPC  H14B 5135   1.904   5.079   5.664  0.2019  0.4477  0.1174
   64SAPC  H14C 5136   1.923   4.941   5.785  0.9238  0.2239  0.0416
   64SAPC   C15 5137   1.929   5.273   5.832  0.1984  0.2389 -0.2333
   64SAPC  H15A 5138   1.982   5.334   5.903  0.2459  0.1407 -0.1854
   64SAPC  H15B 5139   1.953   5.302   5.731  0.7004 -0.5451 -0.3398
   64SAPC  H15C 5140   1.826   5.291   5.859  0.2946  0.7826 -0.2338
   64SAPC   C11 5141   1.833   5.127   6.087 -0.0694  0.8254 -0.1993
   64SAPC  H11A 5142   1.839   5.238   6.083  2.9124  0.7589  0.6681
   64SAPC  H11B 5143   1.843   5.095   6.193  0.1770 -1.2521 -0.8329
   64SAPC     P 5144   1.633   4.963   6.090 -0.5596 -0.2100 -0.2317
   64SAPC   O13 5145   1.509   4.935   6.014 -0.1589  0.9303  0.1123
   64SAPC   O14 5146   1.725   4.850   6.131 -0.0995 -0.3053 -1.0149
   64SAPC   O12 5147   1.714   5.077   6.023 -0.1719 -0.1627  0.4394
   64SAPC   O11 5148   1.585   5.031   6.229  0.1979  0.0316  0.2853
   64SAPC    C1 5149   1.498   5.148   6.225  0.4584  0.5295 -0.5169
   64SAPC    HA 5150   1.433   5.156   6.135 -2.1059 -2.9434  0.9238
   64SAPC    HB 5151   1.432   5.138   6.313 -0.4946 -1.9154 -1.4756
   64SAPC    C2 5152   1.575   5.282   6.245 -0.1659 -0.4256 -0.7684
   64SAPC    HS 5153   1.636   5.286   6.153  1.3054  2.7237  0.2582
   64SAPC   O21 5154   1.666   5.266   6.361 -0.0333 -0.2893 -0.1723
   64SAPC   C21 5155   1.774   5.332   6.366  0.5039 -0.6345 -0.2255
   64SAPC   O22 5156   1.822   5.408   6.283  0.3452 -0.0926 -0.2616
   64SAPC   C22 5157   1.845   5.289   6.492  0.0533 -0.4582 -0.3889
   64SAPC   H2R 5158   1.949   5.258   6.469 -0.4038 -3.2673  1.0742
   64SAPC   H2S 5159   1.848   5.378   6.558  1.2569  0.8369 -2.1720
   64SAPC    C3 5160   1.482   5.399   6.272 -0.0904  0.2192 -0.0902
   64SAPC    HX 5161   1.417   5.384   6.361 -1.2808  0.3528 -0.9259
   64SAPC    HY 5162   1.409   5.410   6.189  1.3767 -1.0059 -1.5812
   64SAPC   O31 5163   1.558   5.524   6.278  0.1928 -0.6009 -0.3350
   64SAPC   C31 5164   1.524   5.608   6.363 -0.0347  0.4365 -0.6582
   64SAPC   O32 5165   1.408   5.617   6.409  0.4726  0.1646 -0.8760
   64SAPC   C32 5166   1.649   5.680   6.416  0.4774  0.2934 -0.4207
   64SAPC   H2X 5167   1.725   5.673   6.335  0.3053  1.2317 -0.6715
   64SAPC   H2Y 5168   1.670   5.614   6.502 -0.8719  0.0209 -0.2901
   64SAPC   C23 5169   1.781   5.182   6.583  0.2496 -0.4597 -0.1636
   64SAPC   H3R 5170   1.766   5.086   6.528  0.8709  0.2642 -1.6333
   64SAPC   H3S 5171   1.681   5.225   6.608 -0.2704 -2.4686  1.3210
   64SAPC   C24 5172   1.852   5.154   6.714  0.5564 -0.1878 -0.4955
   64SAPC   H4R 5173   1.953   5.112   6.695  0.2715 -1.6030  1.0181
   64SAPC   H4S 5174   1.795   5.081   6.777  1.2233  1.5922  2.2757
   64SAPC   C25 5175   1.876   5.283   6.792 -0.2280 -0.4743  0.1647
   64SAPC   H5R 5176   1.946   5.350   6.740 -1.3273 -0.2533 -1.0489
   64SAPC   C26 5177   1.833   5.315   6.912  0.4329 -0.5783  0.3702
   64SAPC   H6R 5178   1.868   5.412   6.951  0.4799  0.2369 -1.6294
   64SAPC   C27 5179   1.743   5.235   6.991  0.4770  0.1288 -1.5394
   64SAPC   H7R 5180   1.807   5.183   7.066 -2.2120  0.4252  1.0646
   64SAPC   H7S 5181   1.687   5.172   6.918 -1.2145  1.0324 -1.0596
   64SAPC   C28 5182   1.634   5.316   7.057  0.2020  0.4581  0.0107
   64SAPC   H8R 5183   1.580   5.384   6.989  0.8000  0.1285 -0.7981
   64SAPC   C29 5184   1.599   5.322   7.189 -0.3627 -0.3863 -0.4198
   64SAPC   H9R 5185   1.513   5.384   7.218 -0.1791 -0.1358 -0.4069
   64SAPC  C210 5186   1.664   5.254   7.302 -0.0521 -0.3459  0.2153
   64SAPC  H10R 5187   1.740   5.180   7.271 -0.4273 -0.1589 -1.1878
   64SAPC  H10S 5188   1.578   5.198   7.345 -2.3165  0.1849 -3.4303
   64SAPC  C211 5189   1.727   5.349   7.402  0.2530  0.5890  0.3623
   64SAPC  H11R 5190   1.810   5.409   7.361 -0.9133  2.3417  0.4989
   64SAPC  C212 5191   1.680   5.374   7.526  0.1336  0.3140  0.2055
   64SAPC  H12R 5192   1.734   5.449   7.585 -1.0954  1.5860 -0.2571
   64SAPC  C213 5193   1.569   5.305   7.593  1.1425  0.3631 -0.9362
   64SAPC  H13R 5194   1.599   5.200   7.610  1.0239  0.7807  2.2027
   64SAPC  H13S 5195   1.479   5.307   7.529  0.5106 -0.3219 -0.0667
   64SAPC  C214 5196   1.520   5.355   7.733 -0.3093 -0.0191 -0.1182
   64SAPC  H14R 5197   1.436   5.424   7.719 -0.7419 -1.0897 -3.4545
   64SAPC  C215 5198   1.576   5.343   7.860  0.5569 -0.3248 -0.4080
   64SAPC  H15R 5199   1.530   5.399   7.943  0.5568  2.6185 -2.3141
   64SAPC  C216 5200   1.698   5.257   7.895 -0.2334  0.3418 -0.6428
   64SAPC  H16R 5201   1.788   5.321   7.905  0.1897  0.2381 -3.3172
   64SAPC  H16S 5202   1.721   5.180   7.819  0.9839  0.5237 -0.4672
   64SAPC  C217 5203   1.680   5.176   8.024 -0.2867 -0.0154  0.0586
   64SAPC  H17R 5204   1.639   5.237   8.108 -1.4361 -0.5276 -0.1189
   64SAPC  H17S 5205   1.779   5.143   8.060 -0.3439 -1.2993 -0.9073
   64SAPC  C218 5206   1.590   5.046   8.001  0.0201  0.0551 -0.2465
   64SAPC  H18R 5207   1.648   4.971   7.944 -0.3474 -0.4361  0.0318
   64SAPC  H18S 5208   1.507   5.083   7.937  1.1838  0.3642 -1.6112
   64SAPC  C219 5209   1.549   4.985   8.133  0.0487  0.4384  0.0196
   64SAPC  H19R 5210   1.498   4.891   8.103 -0.5777  0.9508 -0.5285
   64SAPC  H19S 5211   1.469   5.045   8.181 -1.0201 -0.1685 -0.9667
   64SAPC  C220 5212   1.664   4.944   8.227  0.4780  0.1774  0.0933
   64SAPC  H20R 5213   1.716   4.856   8.183  1.2939  1.8164 -2.3363
   64SAPC  H20S 5214   1.624   4.907   8.324 -0.2541  0.3986 -0.1179
   64SAPC  H20T 5215   1.735   5.027   8.244  1.3280 -0.4852 -0.1775
   64SAPC   C33 5216   1.620   5.824   6.462  1.2311  0.0454  0.4332
   64SAPC   H3X 5217   1.533   5.866   6.407  0.2727 -2.7586 -0.2610
   64SAPC   H3Y 5218   1.707   5.893   6.452  3.2313 -2.2789  1.2240
   64SAPC   C34 5219   1.582   5.842   6.610 -0.1914 -1.0161 -0.6487
   64SAPC   H4X 5220   1.679   5.820   6.660 -0.7713 -2.3581 -0.0777
   64SAPC   H4Y 5221   1.494   5.775   6.626 -2.1159  1.5321 -0.3011
   64SAPC   C35 5222   1.548   5.982   6.648  0.1547 -0.0078 -0.0306
   64SAPC   H5X 5223   1.449   6.000   6.600 -1.7009 -2.6124  2.6632
   64SAPC   H5Y 5224   1.620   6.054   6.604 -0.2148 -0.6557 -1.7129
   64SAPC   C36 5225   1.543   6.007   6.802  0.4090 -0.6398 -0.0775
   64SAPC   H6X 5226   1.643   5.985   6.844 -0.5696 -0.3128  2.4587
   64SAPC   H6Y 5227   1.483   5.932   6.857  2.1715 -1.3918  0.8410
   64SAPC   C37 5228   1.495   6.151   6.836 -0.1189 -0.7486 -0.2207
   64SAPC   H7X 5229   1.398   6.183   6.792  0.5991  2.8143  0.5737
   64SAPC   H7Y 5230   1.563   6.225   6.790  1.9809 -2.5073  0.0032
   64SAPC   C38 5231   1.487   6.174   6.985  0.1556  0.3366  0.0665
   64SAPC   H8X 5232   1.429   6.267   7.003  1.8225  1.4571 -0.2612
   64SAPC   H8Y 5233   1.587   6.184   7.033 -0.6506 -1.4539  2.2301
   64SAPC   C39 5234   1.401   6.061   7.056  0.1559  0.6423 -0.3921
   64SAPC   H9X 5235   1.465   5.973   7.077 -0.5767  0.7175  2.3396
   64SAPC   H9Y 5236   1.309   6.035   6.998 -0.3007 -1.2264  1.1257
   64SAPC  C310 5237   1.356   6.095   7.201  0.2132 -0.6432  0.8791
   64SAPC  H10X 5238   1.292   6.008   7.226  0.9524 -1.9817 -1.6654
   64SAPC  H10Y 5239   1.300   6.191   7.193  0.2774 -0.6959 -0.2703
   64SAPC  C311 5240   1.471   6.088   7.301 -0.2690  0.4953 -0.2423
   64SAPC  H11X 5241   1.535   6.178   7.289  2.9538 -1.7783 -0.7981
   64SAPC  H11Y 5242   1.538   6.001   7.280 -0.1400 -0.0191  2.1617
   64SAPC  C312 5243   1.426   6.077   7.448  0.1720  0.3063 -0.3990
   64SAPC  H12X 5244   1.399   5.971   7.467  0.5454  0.2678 -0.0776
   64SAPC  H12Y 5245   1.333   6.139   7.446 -0.4103 -0.5787 -1.0536
   64SAPC  C313 5246   1.523   6.132   7.548 -0.4394  0.7962 -0.6133
   64SAPC  H13X 5247   1.512   6.243   7.544  0.6836  0.8357 -3.7733
   64SAPC  H13Y 5248   1.630   6.114   7.523 -0.5203 -0.6939  0.0807
   64SAPC  C314 5249   1.499   6.086   7.689 -0.5387 -0.8852 -0.4663
   64SAPC  H14X 5250   1.588   6.122   7.744 -2.0977  3.1666 -0.4157
   64SAPC  H14Y 5251   1.506   5.976   7.680  3.2969 -0.5936 -1.6937
   64SAPC  C315 5252   1.368   6.132   7.758 -0.0802 -0.0893 -0.5412
   64SAPC  H15X 5253   1.286   6.067   7.721 -0.2257 -0.2430  0.0439
   64SAPC  H15Y 5254   1.353   6.241   7.739  1.2562  0.4141  1.1881
   64SAPC  C316 5255   1.383   6.118   7.912  0.0389 -0.3216  0.6832
   64SAPC  H16X 5256   1.464   6.184   7.951 -0.0993  0.4862 -0.3623
   64SAPC  H16Y 5257   1.397   6.011   7.939 -0.7663 -0.2018  1.6044
   64SAPC  C317 5258   1.257   6.170   7.982  0.4378  0.0541  0.0791
   64SAPC  H17X 5259   1.169   6.105   7.963  0.6578 -0.5236  1.0249
   64SAPC  H17Y 5260   1.224   6.271   7.948 -2.1121 -0.3669  1.2212
   64SAPC  C318 5261   1.275   6.166   8.134  0.0441  0.2682  0.0607
   64SAPC  H18X 5262   1.339   6.250   8.170 -2.5565  1.5752  1.7383
   64SAPC  H18Y 5263   1.320   6.069   8.165 -0.6442 -0.5186 -1.3304
   64SAPC  H18Z 5264   1.172   6.170   8.175  0.1149  1.4636  0.1313
   65SAPC     N 5265   2.150   6.782   5.832  0.1024 -0.1182 -0.5724
   65SAPC   C12 5266   2.137   6.786   5.984 -0.3074 -0.2988 -0.4912
   65SAPC  H12A 5267   2.148   6.890   6.011  1.5050  0.1673 -2.8350
   65SAPC  H12B 5268   2.224   6.733   6.021 -0.0474 -1.3003 -2.4807
   65SAPC   C13 5269   2.294   6.819   5.802  0.5294  0.2580 -0.0258
   65SAPC  H13A 5270   2.315   6.825   5.696  0.5013  2.0391  0.0653
   65SAPC  H13B 5271   2.313   6.916   5.844 -3.1299 -0.2986  3.2025
   65SAPC  H13C 5272   2.364   6.750   5.847 -0.6560  0.5684  2.3678
   65SAPC   C14 5273   2.119   6.651   5.776  0.3577 -0.1331 -0.0225
   65SAPC  H14A 5274   2.189   6.571   5.795 -0.3860 -0.7085  0.3022
   65SAPC  H14B 5275   2.025   6.615   5.814 -0.0477  1.2298  0.3009
   65SAPC  H14C 5276   2.102   6.657   5.670  2.0382 -1.8831 -0.4156
   65SAPC   C15 5277   2.067   6.890   5.770 -0.0310  0.7888 -0.5846
   65SAPC  H15A 5278   2.087   6.985   5.817  0.0465  0.4198  0.1382
   65SAPC  H15B 5279   2.086   6.889   5.664 -1.5730  0.8136 -0.8800
   65SAPC  H15C 5280   1.960   6.878   5.779  0.0312  0.3576 -0.4133
   65SAPC   C11 5281   2.010   6.725   6.058 -0.8836  0.0296 -0.0420
   65SAPC  H11A 5282   2.029   6.716   6.167  1.3496  1.0944 -0.3084
   65SAPC  H11B 5283   1.994   6.619   6.027 -3.3094  0.3292  0.0914
   65SAPC     P 5284   1.849   6.935   6.080  0.1341 -0.2376 -0.0540
   65SAPC   O13 5285   1.920   7.051   6.015  0.0551  0.1623 -0.0318
   65SAPC   O14 5286   1.702   6.942   6.090  0.2520  0.0187  0.7328
   65SAPC   O12 5287   1.896   6.801   6.033 -0.2551  0.6936 -0.0805
   65SAPC   O11 5288   1.903   6.940   6.235 -1.0995  0.1852 -0.2136
   65SAPC    C1 5289   1.810   6.892   6.332  0.6055  0.4425  0.2392
   65SAPC    HA 5290   1.730   6.966   6.354 -1.7165 -1.2857 -2.1069
   65SAPC    HB 5291   1.768   6.797   6.295 -1.7796  1.0717  1.2293
   65SAPC    C2 5292   1.882   6.861   6.465 -0.0284 -0.1438  0.8158
   65SAPC    HS 5293   1.956   6.942   6.478 -1.6836  1.1484  2.4744
   65SAPC   O21 5294   1.965   6.741   6.444  0.0689  0.2283  0.2665
   65SAPC   C21 5295   2.052   6.707   6.532  0.3356 -0.2417 -0.3081
   65SAPC   O22 5296   2.070   6.765   6.642  0.7384 -0.3801 -0.0345
   65SAPC   C22 5297   2.143   6.600   6.476 -0.1893  0.0029  0.2760
   65SAPC   H2R 5298   2.096   6.499   6.479  0.7508 -0.5027 -1.6452
   65SAPC   H2S 5299   2.170   6.620   6.370  2.0570  0.1397  0.8539
   65SAPC    C3 5300   1.785   6.853   6.585 -0.4772 -0.0013 -0.3282
   65SAPC    HX 5301   1.843   6.849   6.680 -1.2522 -2.9031  0.0928
   65SAPC    HY 5302   1.728   6.757   6.579 -0.4552 -0.1180  1.1631
   65SAPC   O31 5303   1.711   6.974   6.600 -0.2067  0.4440  0.0631
   65SAPC   C31 5304   1.574   6.965   6.586 -0.6667  0.1356 -0.1566
   65SAPC   O32 5305   1.516   6.868   6.534 -0.7422 -0.1320 -0.8559
   65SAPC   C32 5306   1.516   7.103   6.641 -1.1356  0.6475 -0.4290
   65SAPC   H2X 5307   1.575   7.188   6.600 -1.6421  1.1458 -0.1239
   65SAPC   H2Y 5308   1.530   7.103   6.752 -0.1387 -0.6342 -0.5368
   65SAPC   C23 5309   2.284   6.587   6.552  0.2529  0.1731 -0.2422
   65SAPC   H3R 5310   2.269   6.550   6.656 -0.1749  1.3619  0.1314
   65SAPC   H3S 5311   2.333   6.686   6.563  0.6247 -0.2453  2.1089
   65SAPC   C24 5312   2.360   6.485   6.466  0.8781  0.3379 -0.3302
   65SAPC   H4R 5313   2.339   6.499   6.358  1.4373 -0.2065 -0.5128
   65SAPC   H4S 5314   2.336   6.383   6.504 -0.9598  1.4999  1.7246
   65SAPC   C25 5315   2.505   6.503   6.508  0.0208  0.0464  0.3539
   65SAPC   H5R 5316   2.554   6.594   6.469  0.7394 -0.2773  0.4863
   65SAPC   C26 5317   2.574   6.436   6.605  0.4742 -0.3338 -0.1125
   65SAPC   H6R 5318   2.676   6.469   6.628  0.9849  0.0049 -2.7315
   65SAPC   C27 5319   2.523   6.317   6.681  0.6783 -0.0221 -0.2492
   65SAPC   H7R 5320   2.430   6.350   6.733  2.4107  0.2673  2.7323
   65SAPC   H7S 5321   2.598   6.290   6.758  1.6882  1.1513 -0.8055
   65SAPC   C28 5322   2.497   6.190   6.607  0.2964  0.4444  0.4889
   65SAPC   H8R 5323   2.515   6.190   6.498 -4.3125 -0.9745 -0.3934
   65SAPC   C29 5324   2.463   6.077   6.668  0.3825  0.4131 -0.2388
   65SAPC   H9R 5325   2.449   5.992   6.600 -0.2676  1.3254 -1.2509
   65SAPC  C210 5326   2.420   6.046   6.811  0.2279  0.0643 -0.6179
   65SAPC  H10R 5327   2.504   6.087   6.871 -1.2866  1.9766  0.2351
   65SAPC  H10S 5328   2.411   5.935   6.814 -1.0580  0.1901  4.4908
   65SAPC  C211 5329   2.283   6.091   6.855 -0.4827 -0.0383 -0.5893
   65SAPC  H11R 5330   2.211   6.117   6.776 -0.1027  0.7716 -0.6696
   65SAPC  C212 5331   2.239   6.088   6.978  1.0109  0.7580 -0.3632
   65SAPC  H12R 5332   2.137   6.121   7.001  1.1270  1.8222 -1.3378
   65SAPC  C213 5333   2.318   6.035   7.100  0.1074 -0.0499  0.5766
   65SAPC  H13R 5334   2.388   5.958   7.060  0.9082 -0.8528  3.3431
   65SAPC  H13S 5335   2.254   5.968   7.162  0.2599  0.5048  1.3482
   65SAPC  C214 5336   2.397   6.133   7.174 -0.2442 -0.5697  0.2206
   65SAPC  H14R 5337   2.459   6.194   7.107 -1.0353 -0.3669 -0.3472
   65SAPC  C215 5338   2.399   6.146   7.306  0.4281 -0.5114  0.2770
   65SAPC  H15R 5339   2.470   6.222   7.344 -1.9524  2.0442 -0.2068
   65SAPC  C216 5340   2.329   6.065   7.414  0.1310  0.6832 -0.4338
   65SAPC  H16R 5341   2.407   6.008   7.468 -0.0387  0.7275 -0.1413
   65SAPC  H16S 5342   2.268   5.983   7.371 -0.7293  0.8543  0.4376
   65SAPC  C217 5343   2.246   6.133   7.513  0.4284 -0.2689 -0.1243
   65SAPC  H17R 5344   2.172   6.189   7.451 -0.6807 -1.2252  0.3187
   65SAPC  H17S 5345   2.314   6.206   7.562  1.7594 -0.9982 -0.8658
   65SAPC  C218 5346   2.167   6.045   7.606 -0.2573  0.1804 -0.1785
   65SAPC  H18R 5347   2.230   5.966   7.652  1.3705  0.5798 -1.6942
   65SAPC  H18S 5348   2.091   5.990   7.547 -0.9940  1.1248 -0.1378
   65SAPC  C219 5349   2.088   6.134   7.704  0.7413 -0.2225  0.1341
   65SAPC  H19R 5350   2.021   6.204   7.649  1.6234 -0.4893 -1.3045
   65SAPC  H19S 5351   2.156   6.200   7.763  0.8460 -0.1409 -0.0773
   65SAPC  C220 5352   1.996   6.055   7.801  0.9942 -0.1012 -0.1784
   65SAPC  H20R 5353   1.897   6.030   7.756  1.1858  0.6533 -1.0074
   65SAPC  H20S 5354   1.982   6.098   7.903  2.3859 -0.9122  0.3723
   65SAPC  H20T 5355   2.038   5.953   7.816  0.9205  0.2446  2.6366
   65SAPC   C33 5356   1.363   7.125   6.614 -0.0862 -0.2421 -0.0305
   65SAPC   H3X 5357   1.348   7.092   6.509 -2.8399  1.7148 -0.2918
   65SAPC   H3Y 5358   1.340   7.233   6.628 -0.2525  0.2564 -3.7615
   65SAPC   C34 5359   1.267   7.043   6.700 -0.9080  0.2075 -0.5103
   65SAPC   H4X 5360   1.299   6.936   6.698  0.3697  0.5924 -2.8949
   65SAPC   H4Y 5361   1.168   7.046   6.651 -0.3062 -0.4548 -1.8103
   65SAPC   C35 5362   1.264   7.073   6.848 -0.2836  1.0382  0.6705
   65SAPC   H5X 5363   1.246   7.182   6.851 -1.1186  0.9373 -0.3267
   65SAPC   H5Y 5364   1.361   7.051   6.897  0.3642  2.1518 -0.0913
   65SAPC   C36 5365   1.154   6.997   6.925  0.1554  0.3327  0.2255
   65SAPC   H6X 5366   1.190   6.892   6.928  0.7531  0.5089 -0.7329
   65SAPC   H6Y 5367   1.063   7.024   6.867  0.0995 -0.2513  0.0389
   65SAPC   C37 5368   1.145   7.040   7.076 -0.3946 -0.1392  0.8222
   65SAPC   H7X 5369   1.133   7.151   7.082  2.5426  0.2725 -0.1223
   65SAPC   H7Y 5370   1.241   7.017   7.126 -0.0704 -2.1627 -0.7194
   65SAPC   C38 5371   1.035   6.966   7.144  0.0565 -0.5792 -0.6993
   65SAPC   H8X 5372   1.035   6.858   7.119  0.1934 -1.1915  1.8403
   65SAPC   H8Y 5373   0.939   7.017   7.122  1.2706  1.0644 -2.3506
   65SAPC   C39 5374   1.053   6.975   7.297  0.7488 -0.4020  0.6308
   65SAPC   H9X 5375   1.074   7.079   7.330  0.8426 -0.7605  1.7147
   65SAPC   H9Y 5376   1.147   6.925   7.330 -0.7220 -2.6466  1.5403
   65SAPC  C310 5377   0.950   6.911   7.386 -0.3620 -0.0643 -0.1861
   65SAPC  H10X 5378   0.907   6.822   7.336 -1.3505  0.2516  0.0737
   65SAPC  H10Y 5379   0.857   6.972   7.394 -1.1184 -1.1078 -0.8457
   65SAPC  C311 5380   0.981   6.864   7.529 -0.0432 -0.3598 -0.0255
   65SAPC  H11X 5381   1.031   6.949   7.580  1.6247 -2.4006  1.8292
   65SAPC  H11Y 5382   1.057   6.784   7.538  0.7708  0.5498  1.4835
   65SAPC  C312 5383   0.852   6.809   7.599  0.3459 -0.0558  0.7973
   65SAPC  H12X 5384   0.806   6.726   7.541  2.3755  0.4950 -1.7204
   65SAPC  H12Y 5385   0.768   6.882   7.609 -0.5311 -1.1651  1.6080
   65SAPC  C313 5386   0.882   6.744   7.730 -0.0013  0.4900  0.0884
   65SAPC  H13X 5387   0.938   6.822   7.786  5.0098 -0.1570 -3.6427
   65SAPC  H13Y 5388   0.949   6.665   7.690  0.1548  1.3212 -1.3400
   65SAPC  C314 5389   0.761   6.690   7.808  0.6098  0.5830 -0.2919
   65SAPC  H14X 5390   0.730   6.602   7.748  4.8143 -0.8694 -0.5361
   65SAPC  H14Y 5391   0.682   6.766   7.823 -0.3311 -0.8754  2.4719
   65SAPC  C315 5392   0.796   6.644   7.947  0.2008 -1.2477  0.3077
   65SAPC  H15X 5393   0.869   6.561   7.950 -0.9983 -2.5771 -3.8207
   65SAPC  H15Y 5394   0.711   6.580   7.980  0.5606 -3.0350 -2.0389
   65SAPC  C316 5395   0.824   6.748   8.054 -0.0342 -0.0006  0.2513
   65SAPC  H16X 5396   0.921   6.797   8.035  0.6105 -0.8462  1.3237
   65SAPC  H16Y 5397   0.819   6.683   8.144 -0.7065 -1.3630 -0.7470
   65SAPC  C317 5398   0.710   6.844   8.066 -0.2456  0.3172  0.3502
   65SAPC  H17X 5399   0.618   6.784   8.078 -0.0771 -0.4030 -1.7712
   65SAPC  H17Y 5400   0.691   6.914   7.981  0.7523 -0.2734 -0.3728
   65SAPC  C318 5401   0.711   6.918   8.198  0.7846  0.3307 -0.0437
   65SAPC  H18X 5402   0.607   6.950   8.222  0.7901  0.8618 -0.7251
   65SAPC  H18Y 5403   0.772   7.010   8.187  0.6764  0.5593  1.1442
   65SAPC  H18Z 5404   0.755   6.852   8.276  1.8037  0.3189 -0.6257
   66SAPC     N 5405   6.666   6.075   5.892 -0.2952 -0.1491 -0.5497
   66SAPC   C12 5406   6.726   6.111   6.027  1.0085  0.5467  0.6232
   66SAPC  H12A 5407   6.834   6.120   6.027  1.0929  0.2168 -3.2571
   66SAPC  H12B 5408   6.698   6.037   6.101  1.7074 -0.4417 -0.0821
   66SAPC   C13 5409   6.525   6.041   5.905 -0.0587 -0.5250  0.3364
   66SAPC  H13A 5410   6.484   5.979   5.827  1.0797 -2.9315  1.5895
   66SAPC  H13B 5411   6.511   5.995   6.001  1.7161  0.6012  1.1690
   66SAPC  H13C 5412   6.470   6.134   5.898  0.5813 -0.2204 -0.7008
   66SAPC   C14 5413   6.678   6.188   5.790 -0.8901  0.6404  0.5888
   66SAPC  H14A 5414   6.783   6.213   5.780 -0.5140 -1.7788 -2.2307
   66SAPC  H14B 5415   6.639   6.149   5.697  3.1967 -1.5359 -0.3396
   66SAPC  H14C 5416   6.620   6.273   5.821  0.9001  2.7987 -1.7228
   66SAPC   C15 5417   6.728   5.954   5.833  0.6858 -0.2347 -0.0661
   66SAPC  H15A 5418   6.667   5.923   5.749 -1.4296  0.2546  1.2407
   66SAPC  H15B 5419   6.825   5.981   5.795  0.6042 -0.3560 -0.3588
   66SAPC  H15C 5420   6.744   5.867   5.895  0.1277 -1.2945 -1.3774
   66SAPC   C11 5421   6.686   6.250   6.087 -0.2129  0.7056  0.0653
   66SAPC  H11A 5422   6.714   6.325   6.010 -1.9184  0.3044 -0.9608
   66SAPC  H11B 5423   6.732   6.261   6.188 -1.1894  0.7675  0.5134
   66SAPC     P 5424   6.468   6.188   6.230  0.2914 -0.1699 -0.1347
   66SAPC   O13 5425   6.323   6.210   6.230  0.0912 -0.2039  0.0148
   66SAPC   O14 5426   6.511   6.044   6.224  0.7669 -0.7504 -0.3120
   66SAPC   O12 5427   6.548   6.263   6.117 -0.1910  0.1517 -0.0819
   66SAPC   O11 5428   6.532   6.256   6.362  0.2465 -0.2418 -0.1985
   66SAPC    C1 5429   6.537   6.398   6.385  0.1819 -0.0890 -0.0860
   66SAPC    HA 5430   6.638   6.431   6.417  1.6934 -3.3294 -1.3690
   66SAPC    HB 5431   6.514   6.456   6.293  2.8105  1.0790 -0.0467
   66SAPC    C2 5432   6.433   6.442   6.498 -0.2690 -0.2749 -0.0944
   66SAPC    HS 5433   6.330   6.419   6.463  0.0656 -0.1310 -1.2115
   66SAPC   O21 5434   6.446   6.585   6.518  0.1674 -0.0868  0.0392
   66SAPC   C21 5435   6.383   6.658   6.422 -0.1484 -0.7999  0.5517
   66SAPC   O22 5436   6.310   6.606   6.336 -0.0083 -0.1688  0.5989
   66SAPC   C22 5437   6.428   6.802   6.431  0.4614 -0.1386  0.1607
   66SAPC   H2R 5438   6.487   6.837   6.344 -0.1124 -0.1036 -0.2146
   66SAPC   H2S 5439   6.334   6.859   6.414  1.0619  0.2090 -2.1541
   66SAPC    C3 5440   6.476   6.367   6.621  0.4207  0.4103  0.4386
   66SAPC    HX 5441   6.573   6.410   6.654  0.4510 -0.5683  1.6846
   66SAPC    HY 5442   6.481   6.260   6.589 -1.3411  0.2654  0.5894
   66SAPC   O31 5443   6.383   6.374   6.732  0.1572  0.3765 -0.1170
   66SAPC   C31 5444   6.267   6.309   6.726  0.0118  0.5671  0.3443
   66SAPC   O32 5445   6.226   6.235   6.640 -0.1723  0.3851  0.3412
   66SAPC   C32 5446   6.190   6.346   6.852  0.0437 -0.2315  0.5400
   66SAPC   H2X 5447   6.215   6.443   6.900  3.5141 -1.7637  2.0307
   66SAPC   H2Y 5448   6.226   6.266   6.920 -0.6783 -0.5308  0.5705
   66SAPC   C23 5449   6.491   6.840   6.569  0.1880 -0.1066 -0.1045
   66SAPC   H3R 5450   6.535   6.942   6.558  1.2366 -0.5371  0.0134
   66SAPC   H3S 5451   6.565   6.764   6.603 -1.5655 -1.3457  1.0371
   66SAPC   C24 5452   6.382   6.850   6.678  0.3285 -0.1907 -0.6976
   66SAPC   H4R 5453   6.319   6.759   6.671 -1.6964  0.7831  3.4133
   66SAPC   H4S 5454   6.310   6.927   6.643 -1.4000 -2.4508 -2.2437
   66SAPC   C25 5455   6.437   6.878   6.809 -0.1173 -0.0897  0.3569
   66SAPC   H5R 5456   6.464   6.985   6.814 -1.3596  0.1575  2.7616
   66SAPC   C26 5457   6.481   6.798   6.908 -0.8465  0.4315 -0.3625
   66SAPC   H6R 5458   6.527   6.856   6.989 -1.1724  0.7993 -0.4365
   66SAPC   C27 5459   6.480   6.646   6.912  0.0519  0.0950 -0.0330
   66SAPC   H7R 5460   6.524   6.599   6.821  0.6646 -0.4497  0.5367
   66SAPC   H7S 5461   6.374   6.612   6.906  0.5113 -1.6268  1.3141
   66SAPC   C28 5462   6.558   6.587   7.033 -0.1324 -0.0558 -0.0174
   66SAPC   H8R 5463   6.636   6.653   7.074  1.1416 -0.3270 -1.9516
   66SAPC   C29 5464   6.529   6.474   7.104 -0.0005  0.3675  0.2781
   66SAPC   H9R 5465   6.596   6.461   7.190 -1.0761  1.9575  1.3892
   66SAPC  C210 5466   6.416   6.372   7.084 -0.5326  0.1555 -0.5259
   66SAPC  H10R 5467   6.417   6.332   6.981  0.2632 -0.1271 -0.4149
   66SAPC  H10S 5468   6.324   6.431   7.104 -1.2898 -0.2173 -2.8467
   66SAPC  C211 5469   6.430   6.266   7.191  0.2712  0.3381 -0.6204
   66SAPC  H11R 5470   6.487   6.177   7.161  1.7148  1.1775 -0.3837
   66SAPC  C212 5471   6.369   6.262   7.313 -0.1038  0.8650 -0.0276
   66SAPC  H12R 5472   6.388   6.171   7.373 -0.1353  0.1026 -1.1714
   66SAPC  C213 5473   6.276   6.357   7.379  0.7200 -0.3687 -0.5073
   66SAPC  H13R 5474   6.183   6.309   7.416  1.4218  0.1602  2.1135
   66SAPC  H13S 5475   6.252   6.439   7.308  0.6177 -0.8635 -1.0494
   66SAPC  C214 5476   6.341   6.434   7.494  0.0237  0.1791  0.2318
   66SAPC  H14R 5477   6.448   6.412   7.503 -0.0236 -0.3600 -0.4705
   66SAPC  C215 5478   6.277   6.498   7.593 -0.1291 -0.0211 -0.0487
   66SAPC  H15R 5479   6.340   6.548   7.669 -1.1672 -1.4703  1.8253
   66SAPC  C216 5480   6.123   6.514   7.600  0.1367  0.1120 -0.4013
   66SAPC  H16R 5481   6.074   6.454   7.680 -2.2559  0.9629 -1.1878
   66SAPC  H16S 5482   6.070   6.488   7.506 -0.6387 -1.2851  0.4040
   66SAPC  C217 5483   6.068   6.651   7.629  0.1459 -0.1533  0.2453
   66SAPC  H17R 5484   5.966   6.653   7.585  0.5200  2.6087 -0.5861
   66SAPC  H17S 5485   6.123   6.734   7.579  0.1892 -0.1971  0.2212
   66SAPC  C218 5486   6.063   6.691   7.778  0.1787  0.0084  0.1191
   66SAPC  H18R 5487   6.156   6.663   7.830 -0.2539  0.1471  0.9685
   66SAPC  H18S 5488   5.990   6.621   7.824  0.0214  0.5606  0.7076
   66SAPC  C219 5489   6.041   6.838   7.807 -0.0087 -0.8297  0.1062
   66SAPC  H19R 5490   5.933   6.859   7.825 -0.0890 -0.5982 -0.6178
   66SAPC  H19S 5491   6.087   6.890   7.720  0.4344  0.0223  0.8401
   66SAPC  C220 5492   6.115   6.889   7.932  0.1388 -0.4249 -0.0972
   66SAPC  H20R 5493   6.221   6.854   7.930 -0.0651 -1.0029 -1.3121
   66SAPC  H20S 5494   6.060   6.841   8.016 -2.6546  1.4921 -0.7765
   66SAPC  H20T 5495   6.112   7.000   7.934  0.1178 -0.3840 -1.8727
   66SAPC   C33 5496   6.034   6.335   6.833 -0.4225 -0.3506  0.5379
   66SAPC   H3X 5497   6.000   6.238   6.790 -0.3403  0.0491 -0.4357
   66SAPC   H3Y 5498   5.996   6.411   6.761 -2.1458 -2.7716 -1.1789
   66SAPC   C34 5499   5.964   6.353   6.970 -0.1314  0.7026 -0.3099
   66SAPC   H4X 5500   5.857   6.335   6.947  0.5232 -1.8272 -1.5306
   66SAPC   H4Y 5501   5.993   6.450   7.015  1.5361 -0.9416  2.3203
   66SAPC   C35 5502   5.990   6.249   7.074  0.0722 -0.5743  0.3757
   66SAPC   H5X 5503   6.090   6.200   7.069  1.2643  1.7463  1.2028
   66SAPC   H5Y 5504   5.919   6.166   7.053 -1.8548  1.2688 -0.5485
   66SAPC   C36 5505   5.961   6.307   7.214  0.5272  0.3524  0.3429
   66SAPC   H6X 5506   6.003   6.410   7.222  0.1911  0.3381  2.5837
   66SAPC   H6Y 5507   6.005   6.246   7.295  1.5012  1.3144  0.5594
   66SAPC   C37 5508   5.813   6.315   7.254  0.2094 -0.0734  0.1682
   66SAPC   H7X 5509   5.753   6.221   7.253  0.7443 -0.4116 -0.8421
   66SAPC   H7Y 5510   5.779   6.389   7.179  0.7552 -0.5755 -0.5886
   66SAPC   C38 5511   5.785   6.372   7.391  0.5211 -0.0111 -0.1454
   66SAPC   H8X 5512   5.675   6.387   7.395  0.4629  1.4684 -4.5431
   66SAPC   H8Y 5513   5.840   6.463   7.422 -0.9939  1.2039 -0.9181
   66SAPC   C39 5514   5.819   6.288   7.507  0.0217  0.7597  0.1126
   66SAPC   H9X 5515   5.930   6.278   7.516 -0.0192 -1.3896 -1.5785
   66SAPC   H9Y 5516   5.787   6.185   7.481 -0.3756  0.3922  1.9352
   66SAPC  C310 5517   5.751   6.315   7.639  0.5220 -0.2381  0.2162
   66SAPC  H10X 5518   5.763   6.242   7.723  5.1676 -1.1067 -1.0809
   66SAPC  H10Y 5519   5.645   6.314   7.607  0.4025  1.5493  0.5382
   66SAPC  C311 5520   5.774   6.455   7.714 -0.1668  0.3947 -0.0591
   66SAPC  H11X 5521   5.796   6.526   7.631  0.8422 -2.0970 -1.9967
   66SAPC  H11Y 5522   5.862   6.431   7.778  0.6081  0.3586 -1.1281
   66SAPC  C312 5523   5.656   6.497   7.804 -0.9142  0.7924  0.0046
   66SAPC  H12X 5524   5.633   6.414   7.875 -0.6854  1.6215  1.0599
   66SAPC  H12Y 5525   5.566   6.495   7.739 -1.1904 -2.0644  0.4301
   66SAPC  C313 5526   5.670   6.638   7.865 -0.1662 -0.3219 -0.2604
   66SAPC  H13X 5527   5.712   6.697   7.781 -1.1146 -0.3759 -0.7810
   66SAPC  H13Y 5528   5.737   6.630   7.953  1.4497  2.3903 -1.1941
   66SAPC  C314 5529   5.541   6.698   7.918 -0.4204 -0.3024 -0.0106
   66SAPC  H14X 5530   5.463   6.671   7.844 -2.0498 -0.1273  1.5949
   66SAPC  H14Y 5531   5.557   6.807   7.909 -0.4810 -0.4358 -1.8193
   66SAPC  C315 5532   5.510   6.669   8.064  0.0002  1.3575 -0.6936
   66SAPC  H15X 5533   5.602   6.673   8.125  0.7298  0.4850 -1.7411
   66SAPC  H15Y 5534   5.480   6.563   8.055  2.6272  0.6999 -2.0978
   66SAPC  C316 5535   5.381   6.745   8.107 -0.3559 -0.4642  1.1225
   66SAPC  H16X 5536   5.330   6.740   8.008  1.6803 -1.2829  0.0904
   66SAPC  H16Y 5537   5.423   6.847   8.113 -0.6835 -0.2223 -0.3806
   66SAPC  C317 5538   5.296   6.685   8.219 -1.2615  0.3103 -0.5674
   66SAPC  H17X 5539   5.265   6.585   8.184 -0.6141  1.2621 -4.0347
   66SAPC  H17Y 5540   5.211   6.753   8.241  0.3462  1.1827  3.5820
   66SAPC  C318 5541   5.382   6.684   8.353  0.6768  0.5211  0.1926
   66SAPC  H18X 5542   5.466   6.612   8.341 -0.2285 -0.3399 -1.0364
   66SAPC  H18Y 5543   5.332   6.648   8.445 -3.1641 -1.1750 -2.4389
   66SAPC  H18Z 5544   5.435   6.781   8.363  1.6787 -0.0443  0.4162
   67SAPC     N 5545   1.881   1.192   6.083 -0.2070  0.7065  0.2975
   67SAPC   C12 5546   1.820   1.087   6.174 -0.0517 -0.9426  0.7871
   67SAPC  H12A 5547   1.792   1.003   6.113 -2.6785  0.5198 -0.1120
   67SAPC  H12B 5548   1.728   1.117   6.221 -1.3466  0.7955 -2.6875
   67SAPC   C13 5549   1.908   1.316   6.154 -0.5272 -0.2543  0.3693
   67SAPC  H13A 5550   1.963   1.388   6.095 -0.7693 -0.6272 -0.3248
   67SAPC  H13B 5551   1.817   1.356   6.196 -0.6321 -0.1526  0.0493
   67SAPC  H13C 5552   1.969   1.284   6.237 -2.2315 -1.8111  1.0429
   67SAPC   C14 5553   2.016   1.142   6.034  0.5510 -0.2463 -0.4307
   67SAPC  H14A 5554   2.005   1.058   5.967  1.6912  0.8771 -2.0607
   67SAPC  H14B 5555   2.066   1.219   5.976  2.0533  1.1298  2.5534
   67SAPC  H14C 5556   2.081   1.113   6.116  0.1255 -1.6941 -0.5903
   67SAPC   C15 5557   1.790   1.216   5.970 -0.5725  0.1774 -0.0880
   67SAPC  H15A 5558   1.773   1.120   5.924  1.0471 -0.9075  1.5439
   67SAPC  H15B 5559   1.693   1.252   6.002 -1.2059 -1.2285 -0.4079
   67SAPC  H15C 5560   1.832   1.269   5.885  3.1530 -1.2221  0.7904
   67SAPC   C11 5561   1.908   1.019   6.285 -0.8410 -0.1804 -0.4889
   67SAPC  H11A 5562   1.962   0.926   6.255  2.1086  1.1864  0.3239
   67SAPC  H11B 5563   1.838   0.990   6.366  1.1185 -0.2454  1.2463
   67SAPC     P 5564   2.142   1.122   6.368 -0.8758  0.0172  0.0453
   67SAPC   O13 5565   2.197   1.019   6.276  0.7705 -0.4366 -0.7498
   67SAPC   O14 5566   2.181   1.255   6.330  0.7425  0.8964 -0.1486
   67SAPC   O12 5567   1.987   1.115   6.357  0.1232 -0.1873  1.1739
   67SAPC   O11 5568   2.176   1.093   6.513  0.1528 -0.1755 -0.6603
   67SAPC    C1 5569   2.076   1.117   6.610 -0.1437  0.3429  0.0090
   67SAPC    HA 5570   2.045   1.224   6.610  0.4333  0.5122 -0.2787
   67SAPC    HB 5571   1.978   1.065   6.597  0.7508 -1.5057  0.4868
   67SAPC    C2 5572   2.129   1.074   6.749  0.3502 -0.6729  0.2060
   67SAPC    HS 5573   2.055   1.085   6.832  0.0187 -0.6019 -0.0984
   67SAPC   O21 5574   2.250   1.135   6.784  0.4336 -0.1346  0.9021
   67SAPC   C21 5575   2.244   1.267   6.796  0.1365  0.1840  0.1416
   67SAPC   O22 5576   2.147   1.339   6.779 -0.0639 -0.0543  0.0519
   67SAPC   C22 5577   2.384   1.311   6.849 -0.1760 -0.6605  0.6369
   67SAPC   H2R 5578   2.411   1.260   6.944  0.1104 -0.0651  0.8824
   67SAPC   H2S 5579   2.464   1.295   6.774 -0.1080  2.6817 -0.0868
   67SAPC    C3 5580   2.147   0.918   6.739 -0.3884 -0.0383 -0.4545
   67SAPC    HX 5581   2.236   0.891   6.678 -1.6347 -1.2514 -1.7618
   67SAPC    HY 5582   2.062   0.878   6.680  0.6713 -0.3325 -1.8192
   67SAPC   O31 5583   2.159   0.870   6.875  0.4372 -0.8062 -0.1936
   67SAPC   C31 5584   2.046   0.849   6.926  0.2962  0.3247  0.4756
   67SAPC   O32 5585   1.936   0.845   6.869  0.5818 -0.0143  0.1241
   67SAPC   C32 5586   2.061   0.825   7.077 -0.0112 -0.4211  0.2062
   67SAPC   H2X 5587   1.957   0.814   7.116  0.4008 -0.6261  1.2651
   67SAPC   H2Y 5588   2.111   0.914   7.119  1.5655 -0.6327 -1.2156
   67SAPC   C23 5589   2.399   1.458   6.896 -0.2280 -0.8393 -0.5557
   67SAPC   H3R 5590   2.308   1.483   6.954  0.4911 -1.5564  0.9190
   67SAPC   H3S 5591   2.395   1.527   6.809 -0.1482  0.3370  0.3656
   67SAPC   C24 5592   2.535   1.479   6.959 -0.0227 -0.1756 -0.0394
   67SAPC   H4R 5593   2.616   1.452   6.887 -1.2951 -2.4549 -0.6604
   67SAPC   H4S 5594   2.543   1.408   7.044 -0.4965  0.4147  0.5086
   67SAPC   C25 5595   2.548   1.628   7.009  0.0727 -0.2942  0.0893
   67SAPC   H5R 5596   2.559   1.707   6.934 -0.0218  1.2265  1.6672
   67SAPC   C26 5597   2.551   1.662   7.137  0.3101 -0.3263 -0.0240
   67SAPC   H6R 5598   2.548   1.767   7.168 -0.6919  0.1856 -1.7662
   67SAPC   C27 5599   2.533   1.573   7.256  0.0750 -0.7413 -0.0906
   67SAPC   H7R 5600   2.588   1.617   7.342  2.0458 -0.7431 -1.3144
   67SAPC   H7S 5601   2.586   1.478   7.232 -0.6429 -1.4705  1.1742
   67SAPC   C28 5602   2.392   1.543   7.304  0.0436 -0.3228  0.1748
   67SAPC   H8R 5603   2.362   1.443   7.271 -3.5839  0.4709  0.8215
   67SAPC   C29 5604   2.310   1.621   7.381  0.3492 -0.3351 -0.1127
   67SAPC   H9R 5605   2.207   1.599   7.410 -0.1001  1.7630 -0.0454
   67SAPC  C210 5606   2.346   1.755   7.434  0.5777 -0.0549  0.7990
   67SAPC  H10R 5607   2.452   1.763   7.468  0.6851 -1.9844  0.9391
   67SAPC  H10S 5608   2.277   1.774   7.519 -1.3694 -1.6760 -0.3709
   67SAPC  C211 5609   2.323   1.862   7.328  0.3080 -0.3110  0.1664
   67SAPC  H11R 5610   2.348   1.833   7.225  0.3125 -2.1068  0.6617
   67SAPC  C212 5611   2.267   1.979   7.348  0.4665 -0.2528  0.4214
   67SAPC  H12R 5612   2.252   2.050   7.266  2.2617  1.2565  1.3647
   67SAPC  C213 5613   2.223   2.040   7.480 -1.0586 -0.2550 -0.4754
   67SAPC  H13R 5614   2.258   2.145   7.483  1.1607 -0.9661 -0.4128
   67SAPC  H13S 5615   2.293   1.998   7.556 -0.3385  3.5829  1.1089
   67SAPC  C214 5616   2.075   2.019   7.507 -0.1107  0.6725  0.1175
   67SAPC  H14R 5617   2.016   2.040   7.417 -1.0581 -0.0164  0.5729
   67SAPC  C215 5618   2.003   1.974   7.617 -0.0915 -0.3157  0.2338
   67SAPC  H15R 5619   1.894   1.967   7.604  0.1154 -0.6007 -1.3672
   67SAPC  C216 5620   2.061   1.937   7.749 -0.6698 -0.0937 -0.2637
   67SAPC  H16R 5621   2.167   1.970   7.757 -0.3632 -0.3785 -2.8002
   67SAPC  H16S 5622   2.077   1.828   7.758 -0.3632 -0.0490 -0.2567
   67SAPC  C217 5623   1.979   1.990   7.869  0.2301  0.0528  1.1554
   67SAPC  H17R 5624   1.874   1.980   7.833  0.2699  0.7822  0.8370
   67SAPC  H17S 5625   2.002   2.097   7.889 -1.3074  0.8619 -1.2092
   67SAPC  C218 5626   2.012   1.907   7.996 -0.6106  0.0545 -1.3467
   67SAPC  H18R 5627   2.122   1.902   8.007 -0.6970 -0.1795 -0.5794
   67SAPC  H18S 5628   1.979   1.802   7.986 -1.2653  0.0132  0.8936
   67SAPC  C219 5629   1.952   1.946   8.131 -0.0715  0.1615 -1.0323
   67SAPC  H19R 5630   1.843   1.926   8.123 -0.3656  0.5242  1.7663
   67SAPC  H19S 5631   1.979   2.052   8.150  1.4900 -0.8203  2.5665
   67SAPC  C220 5632   1.998   1.862   8.254 -0.9665 -0.4506  0.7757
   67SAPC  H20R 5633   2.108   1.855   8.265 -0.7018  1.9485 -0.0925
   67SAPC  H20S 5634   1.952   1.762   8.238 -0.8233 -0.4419  0.3093
   67SAPC  H20T 5635   1.965   1.913   8.348  1.9953  0.0265  1.5911
   67SAPC   C33 5636   2.130   0.692   7.118  0.5697  0.0362 -0.4526
   67SAPC   H3X 5637   2.229   0.680   7.069  1.4971 -1.1464  1.6292
   67SAPC   H3Y 5638   2.069   0.607   7.081  0.7706 -0.4364  0.2859
   67SAPC   C34 5639   2.144   0.663   7.265 -0.0723  0.7545  0.0786
   67SAPC   H4X 5640   2.191   0.562   7.264 -2.0194 -0.1797 -1.8582
   67SAPC   H4Y 5641   2.042   0.658   7.307  1.2344  1.0607  3.4507
   67SAPC   C35 5642   2.228   0.766   7.338  0.6079 -0.6962  0.7637
   67SAPC   H5X 5643   2.200   0.873   7.329  2.0956 -0.4072 -0.6957
   67SAPC   H5Y 5644   2.333   0.745   7.308  1.0505  1.4655  0.7236
   67SAPC   C36 5645   2.228   0.732   7.486 -0.1125  0.2300 -0.2413
   67SAPC   H6X 5646   2.264   0.629   7.508  0.7986  0.6620  0.2928
   67SAPC   H6Y 5647   2.123   0.733   7.523 -1.5474 -3.3081 -3.8006
   67SAPC   C37 5648   2.319   0.815   7.576  0.1500 -1.0526 -0.5668
   67SAPC   H7X 5649   2.305   0.918   7.538  0.8620 -1.1000 -0.9680
   67SAPC   H7Y 5650   2.428   0.797   7.560  0.2080 -0.0053 -1.3696
   67SAPC   C38 5651   2.295   0.802   7.725 -0.1466  0.1983 -0.1323
   67SAPC   H8X 5652   2.378   0.837   7.789 -0.4273  0.3697  0.1416
   67SAPC   H8Y 5653   2.295   0.697   7.760  1.9475  0.1026 -0.3925
   67SAPC   C39 5654   2.158   0.860   7.764 -0.0042  0.1250 -0.5978
   67SAPC   H9X 5655   2.069   0.805   7.727  0.3541 -0.4293 -0.6512
   67SAPC   H9Y 5656   2.148   0.961   7.720  1.0353  0.5738  0.1834
   67SAPC  C310 5657   2.131   0.862   7.916 -0.4852 -0.6556 -0.0039
   67SAPC  H10X 5658   2.222   0.905   7.964 -2.2241  0.2863  2.5823
   67SAPC  H10Y 5659   2.130   0.757   7.951  0.6086 -0.4537  0.6812
   67SAPC  C311 5660   2.006   0.944   7.959  0.7782 -0.2484 -0.3672
   67SAPC  H11X 5661   1.915   0.935   7.897  0.9912  0.1095 -0.7296
   67SAPC  H11Y 5662   2.046   1.047   7.947 -0.5549  0.4818  1.1997
   67SAPC  C312 5663   1.963   0.918   8.106  0.1280 -0.1648  0.4399
   67SAPC  H12X 5664   1.882   0.989   8.131 -1.7965 -2.4824  1.0227
   67SAPC  H12Y 5665   2.050   0.941   8.171  0.4435  0.7037 -0.2848
   67SAPC  C313 5666   1.901   0.778   8.135 -0.0525  0.0114  0.1138
   67SAPC  H13X 5667   1.984   0.708   8.114  0.7902  0.8691  0.5489
   67SAPC  H13Y 5668   1.824   0.767   8.056 -0.2782 -1.8226  0.5757
   67SAPC  C314 5669   1.832   0.773   8.273 -0.7136 -0.3065 -0.2444
   67SAPC  H14X 5670   1.734   0.822   8.256 -1.1266 -1.2161 -0.5270
   67SAPC  H14Y 5671   1.887   0.832   8.350  0.1297  0.1278 -1.1639
   67SAPC  C315 5672   1.838   0.630   8.314  0.0887 -0.8749  0.1527
   67SAPC  H15X 5673   1.944   0.599   8.324  0.6522  0.5596 -1.1244
   67SAPC  H15Y 5674   1.802   0.559   8.237 -1.5408 -0.1745  0.2543
   67SAPC  C316 5675   1.770   0.599   8.447 -0.5908 -0.2773  0.3296
   67SAPC  H16X 5676   1.802   0.673   8.523  0.8422  0.5540 -1.0388
   67SAPC  H16Y 5677   1.820   0.500   8.458 -0.4412 -0.1385  0.8864
   67SAPC  C317 5678   1.614   0.571   8.451 -0.7538  0.1556  0.4707
   67SAPC  H17X 5679   1.570   0.673   8.457 -0.1221  0.3935  1.1646
   67SAPC  H17Y 5680   1.585   0.522   8.547 -2.2381 -1.1519 -0.6237
   67SAPC  C318 5681   1.550   0.498   8.339 -0.1145  0.1279  0.4263
   67SAPC  H18X 5682   1.446   0.476   8.371  0.7459 -1.3705  2.2855
   67SAPC  H18Y 5683   1.609   0.406   8.324 -1.2476 -0.3421 -1.3588
   67SAPC  H18Z 5684   1.548   0.546   8.239  1.7792  0.4672  0.5366
   68SAPC     N 5685   6.499   0.973   6.103  0.3068 -0.0677 -0.3605
   68SAPC   C12 5686   6.572   0.923   6.220 -0.2019 -0.5955 -0.4505
   68SAPC  H12A 5687   6.499   0.888   6.292 -0.5808 -1.3193 -1.1900
   68SAPC  H12B 5688   6.599   1.018   6.264 -2.5949  0.1579 -0.5316
   68SAPC   C13 5689   6.402   0.872   6.051  0.5229  0.2543 -0.0529
   68SAPC  H13A 5690   6.456   0.786   6.015 -1.7085 -0.6038 -1.4550
   68SAPC  H13B 5691   6.346   0.834   6.136  0.9356  2.5141  1.2734
   68SAPC  H13C 5692   6.342   0.916   5.973 -0.1899  1.6595  1.2536
   68SAPC   C14 5693   6.422   1.103   6.141  0.3528  0.6087 -0.5836
   68SAPC  H14A 5694   6.368   1.138   6.055 -0.9366 -0.9865 -0.4517
   68SAPC  H14B 5695   6.347   1.097   6.219  2.3742  2.2645  1.5861
   68SAPC  H14C 5696   6.483   1.184   6.178  1.5437 -1.4292  2.1411
   68SAPC   C15 5697   6.596   1.001   5.992  0.5716  1.0264  0.3380
   68SAPC  H15A 5698   6.544   1.020   5.899  1.6993 -0.6045 -0.6365
   68SAPC  H15B 5699   6.660   1.080   6.027 -0.1079  1.0668  1.5423
   68SAPC  H15C 5700   6.654   0.912   5.972  0.2386  1.0320 -0.6716
   68SAPC   C11 5701   6.687   0.823   6.214 -0.2259 -0.2557  0.1706
   68SAPC  H11A 5702   6.745   0.816   6.309 -1.7501 -0.9255  1.0814
   68SAPC  H11B 5703   6.751   0.865   6.134  0.9906 -0.5526  0.9706
   68SAPC     P 5704   6.573   0.590   6.257 -0.1128  0.1435  0.4222
   68SAPC   O13 5705   6.444   0.646   6.305  0.3940  0.2263 -0.6128
   68SAPC   O14 5706   6.567   0.471   6.172  0.0285 -0.2814  0.1050
   68SAPC   O12 5707   6.645   0.692   6.167 -0.5523  1.1086  0.2498
   68SAPC   O11 5708   6.668   0.567   6.379 -0.2220  0.0939 -0.9863
   68SAPC    C1 5709   6.758   0.455   6.379 -0.0556 -0.6896  0.6105
   68SAPC    HA 5710   6.705   0.357   6.390  1.4849 -1.6531 -0.3647
   68SAPC    HB 5711   6.806   0.451   6.279  2.1920  1.8504  1.5260
   68SAPC    C2 5712   6.870   0.463   6.483  0.2228  0.1903  0.0941
   68SAPC    HS 5713   6.932   0.372   6.481 -0.8835 -0.6104  1.1492
   68SAPC   O21 5714   6.811   0.480   6.611 -0.1974 -0.2446 -0.0317
   68SAPC   C21 5715   6.762   0.379   6.671  0.2763  0.2139 -0.1858
   68SAPC   O22 5716   6.770   0.265   6.631  0.4674 -0.1855 -0.0456
   68SAPC   C22 5717   6.671   0.424   6.791  0.0930  0.2635  0.7071
   68SAPC   H2R 5718   6.682   0.531   6.817  0.0796  0.3033  0.5515
   68SAPC   H2S 5719   6.566   0.418   6.756  0.1605  0.9736  0.3760
   68SAPC    C3 5720   6.978   0.572   6.449  0.0709  0.2285 -0.0444
   68SAPC    HX 5721   6.928   0.669   6.426  2.1793  1.0670 -1.2402
   68SAPC    HY 5722   7.026   0.541   6.353 -0.5346  0.2264 -0.3534
   68SAPC   O31 5723   7.084   0.595   6.544  0.3173 -0.0074  0.7051
   68SAPC   C31 5724   7.168   0.499   6.578 -0.1852 -0.0261 -0.7014
   68SAPC   O32 5725   7.175   0.390   6.525  0.8475 -0.5581  0.7211
   68SAPC   C32 5726   7.270   0.557   6.677 -0.7349 -0.0443 -0.2041
   68SAPC   H2X 5727   7.288   0.659   6.636  1.8289 -1.2172 -2.1800
   68SAPC   H2Y 5728   7.359   0.490   6.671 -1.2117 -0.8633  1.7390
   68SAPC   C23 5729   6.702   0.332   6.908  0.2388 -0.2964  0.3485
   68SAPC   H3R 5730   6.812   0.327   6.921  0.0615 -0.8847  1.7211
   68SAPC   H3S 5731   6.661   0.230   6.891  0.3026 -0.5519  1.7183
   68SAPC   C24 5732   6.657   0.394   7.041 -0.7003 -0.2523 -0.0558
   68SAPC   H4R 5733   6.681   0.502   7.053 -2.1546  0.5364 -3.5246
   68SAPC   H4S 5734   6.706   0.348   7.128 -0.7240 -0.9869 -0.4274
   68SAPC   C25 5735   6.510   0.372   7.045 -0.5718 -0.2547 -0.2762
   68SAPC   H5R 5736   6.460   0.431   6.967  1.4319  0.4077 -1.0886
   68SAPC   C26 5737   6.432   0.310   7.141  0.0164  0.4419  0.0930
   68SAPC   H6R 5738   6.324   0.315   7.121  0.2287 -0.8240 -1.4717
   68SAPC   C27 5739   6.478   0.241   7.272 -0.5977 -0.1433  0.6666
   68SAPC   H7R 5740   6.468   0.314   7.355 -0.3735  1.5628 -0.7948
   68SAPC   H7S 5741   6.588   0.222   7.271 -0.6338 -0.2966 -0.2336
   68SAPC   C28 5742   6.397   0.116   7.298 -0.8259 -0.4834  0.1498
   68SAPC   H8R 5743   6.366   0.061   7.208 -0.4069  1.5392 -1.2370
   68SAPC   C29 5744   6.375   0.060   7.415  0.1193  0.1246 -0.5817
   68SAPC   H9R 5745   6.321  -0.036   7.422 -1.6307  1.1625  0.3450
   68SAPC  C210 5746   6.416   0.110   7.553 -0.9369  0.2803  1.1936
   68SAPC  H10R 5747   6.339   0.089   7.631 -0.7875  0.4560  1.3886
   68SAPC  H10S 5748   6.420   0.221   7.549 -2.6763  0.3863  1.9052
   68SAPC  C211 5749   6.555   0.049   7.576 -0.8205 -0.1111 -0.1828
   68SAPC  H11R 5750   6.614   0.037   7.484  0.2642 -0.5226  0.5577
   68SAPC  C212 5751   6.586  -0.010   7.696 -0.4979  0.4288 -0.3459
   68SAPC  H12R 5752   6.688  -0.048   7.713  0.1164  0.6705 -3.2476
   68SAPC  C213 5753   6.500  -0.018   7.824  0.2139 -0.2830 -0.1002
   68SAPC  H13R 5754   6.401  -0.064   7.803 -0.3942  0.8336  0.3080
   68SAPC  H13S 5755   6.473   0.085   7.852  0.8284 -0.2621  0.4394
   68SAPC  C214 5756   6.576  -0.078   7.942 -0.4683  0.6389 -0.3751
   68SAPC  H14R 5757   6.685  -0.074   7.924 -0.2101  2.9667  1.3127
   68SAPC  C215 5758   6.540  -0.138   8.056  0.5851  0.0443  0.3173
   68SAPC  H15R 5759   6.613  -0.195   8.115  1.5040 -0.0626 -0.9109
   68SAPC  C216 5760   6.400  -0.144   8.106 -0.3538  0.0443 -0.7668
   68SAPC  H16R 5761   6.341  -0.071   8.047 -2.0357  0.6307  1.5843
   68SAPC  H16S 5762   6.399  -0.110   8.212  0.4555  2.3515 -1.4781
   68SAPC  C217 5763   6.319  -0.283   8.101  0.7779 -0.0919  0.3530
   68SAPC  H17R 5764   6.375  -0.365   8.150 -0.4955 -0.5192  1.0950
   68SAPC  H17S 5765   6.313  -0.320   7.996 -0.3039  0.9501  0.0370
   68SAPC  C218 5766   6.183  -0.264   8.158 -0.2195 -0.0334 -0.9820
   68SAPC  H18R 5767   6.132  -0.188   8.095  2.1090  1.3600 -1.2363
   68SAPC  H18S 5768   6.188  -0.214   8.257  0.9208 -0.6750 -0.7089
   68SAPC  C219 5769   6.106  -0.391   8.171 -0.6971  0.7158  0.0769
   68SAPC  H19R 5770   6.024  -0.366   8.241  0.4558  0.2896  1.5912
   68SAPC  H19S 5771   6.174  -0.463   8.221  0.2029  1.0034 -0.7130
   68SAPC  C220 5772   6.050  -0.452   8.044  0.2739 -0.2110  0.3625
   68SAPC  H20R 5773   6.121  -0.501   7.974  0.9362  0.5349  0.4977
   68SAPC  H20S 5774   6.003  -0.368   7.989 -0.4841 -1.6575 -1.2409
   68SAPC  H20T 5775   5.972  -0.523   8.078  0.2507 -1.3891 -2.0332
   68SAPC   C33 5776   7.211   0.569   6.823  0.4802 -0.2281  0.1274
   68SAPC   H3X 5777   7.298   0.604   6.883  1.8258 -2.3075 -0.5368
   68SAPC   H3Y 5778   7.183   0.467   6.857  0.9197 -0.0957  0.9020
   68SAPC   C34 5779   7.093   0.660   6.855 -0.2747  0.0058  0.1895
   68SAPC   H4X 5780   7.007   0.638   6.789  0.0600 -2.0452  0.4277
   68SAPC   H4Y 5781   7.117   0.765   6.828  1.0027 -0.0598  1.0228
   68SAPC   C35 5782   7.030   0.637   6.999  0.3029 -0.3163 -0.5424
   68SAPC   H5X 5783   6.982   0.537   6.999  2.7415 -1.5136 -0.3900
   68SAPC   H5Y 5784   6.948   0.711   7.007  1.0374  0.4065  0.2893
   68SAPC   C36 5785   7.139   0.649   7.107  0.4871  0.3701  0.7626
   68SAPC   H6X 5786   7.216   0.723   7.076 -0.7660  0.6802 -1.6922
   68SAPC   H6Y 5787   7.195   0.554   7.099 -1.1235 -0.5218 -0.1755
   68SAPC   C37 5788   7.092   0.677   7.246 -0.1861 -0.0675  0.2700
   68SAPC   H7X 5789   7.057   0.782   7.255 -0.0293 -0.0976  1.3159
   68SAPC   H7Y 5790   7.174   0.669   7.321  0.4145  2.5586 -0.0550
   68SAPC   C38 5791   6.987   0.575   7.280 -0.3163 -0.2288 -0.2666
   68SAPC   H8X 5792   7.016   0.469   7.270  2.7140  0.2755  2.2934
   68SAPC   H8Y 5793   6.901   0.587   7.210 -1.8657 -0.9627  1.4658
   68SAPC   C39 5794   6.925   0.585   7.419  0.2329 -0.0523  0.1409
   68SAPC   H9X 5795   6.848   0.663   7.434 -0.5031 -1.0517  1.7418
   68SAPC   H9Y 5796   6.996   0.587   7.504 -0.5320 -2.6407  0.8865
   68SAPC  C310 5797   6.850   0.448   7.459  0.2634  0.2778 -0.0103
   68SAPC  H10X 5798   6.927   0.369   7.456  0.0722  0.1385 -2.4133
   68SAPC  H10Y 5799   6.777   0.419   7.380 -1.4166  2.2707  0.7523
   68SAPC  C311 5800   6.792   0.456   7.602  0.4956 -0.0913 -0.2755
   68SAPC  H11X 5801   6.723   0.543   7.607 -2.0006 -2.0567  0.1137
   68SAPC  H11Y 5802   6.881   0.477   7.666  0.3946  0.0711 -0.1881
   68SAPC  C312 5803   6.715   0.335   7.653  0.1128 -0.2570 -0.4302
   68SAPC  H12X 5804   6.775   0.246   7.626  0.3121 -0.4682  0.6524
   68SAPC  H12Y 5805   6.629   0.319   7.584 -1.1547 -2.3970  1.5545
   68SAPC  C313 5806   6.660   0.352   7.794 -0.7851  0.1981  0.0245
   68SAPC  H13X 5807   6.601   0.261   7.815 -0.0103 -0.1901  0.5317
   68SAPC  H13Y 5808   6.604   0.447   7.811  1.4991  1.3320  1.4811
   68SAPC  C314 5809   6.764   0.367   7.906 -0.1520 -0.4753 -0.5244
   68SAPC  H14X 5810   6.823   0.461   7.899  1.4732 -1.4288  0.0235
   68SAPC  H14Y 5811   6.833   0.280   7.898 -2.0917 -2.1644  0.6818
   68SAPC  C315 5812   6.710   0.369   8.052  0.0397 -0.0336 -0.0990
   68SAPC  H15X 5813   6.673   0.270   8.088  0.0970 -0.4637 -1.2005
   68SAPC  H15Y 5814   6.622   0.435   8.040  0.3947  0.9905  2.4953
   68SAPC  C316 5815   6.805   0.434   8.146 -0.5033 -0.2187 -0.4376
   68SAPC  H16X 5816   6.870   0.512   8.098  0.4048 -0.2234  0.7625
   68SAPC  H16Y 5817   6.865   0.351   8.189 -1.0969 -0.7038 -0.5410
   68SAPC  C317 5818   6.728   0.507   8.257 -0.4780 -0.6241  0.3675
   68SAPC  H17X 5819   6.669   0.426   8.305 -0.5074 -0.4496  0.6329
   68SAPC  H17Y 5820   6.651   0.576   8.218 -0.5173 -1.3077 -0.7718
   68SAPC  C318 5821   6.816   0.576   8.364  0.4515 -0.0501 -0.2385
   68SAPC  H18X 5822   6.860   0.667   8.318  0.6336 -0.4550 -0.8665
   68SAPC  H18Y 5823   6.897   0.504   8.389 -0.2265 -0.4089  0.9378
   68SAPC  H18Z 5824   6.756   0.608   8.452 -0.6391  0.0141 -0.9896
   69SLPC     N 5825   4.483   4.464  11.164  0.8475 -0.0576  0.2494
   69SLPC   C13 5826   4.336   4.440  11.188 -0.2825 -0.1137  0.4502
   69SLPC  H13A 5827   4.303   4.350  11.137 -0.5230 -0.9126  2.0029
   69SLPC  H13B 5828   4.321   4.420  11.293 -1.6698 -0.4535  0.1938
   69SLPC  H13C 5829   4.278   4.525  11.155 -0.7022 -0.6768 -0.2701
   69SLPC   C14 5830   4.547   4.347  11.212 -1.0224 -0.2122  0.6083
   69SLPC  H14A 5831   4.505   4.257  11.169 -1.3415  0.3953 -0.3799
   69SLPC  H14B 5832   4.653   4.343  11.190 -1.3635 -1.8080 -0.8895
   69SLPC  H14C 5833   4.549   4.344  11.320  2.0317 -0.1365  0.5831
   69SLPC   C15 5834   4.537   4.582  11.243  0.8223 -0.0577 -0.0179
   69SLPC  H15A 5835   4.559   4.556  11.345  1.0591  0.3720  0.0421
   69SLPC  H15B 5836   4.631   4.616  11.202 -0.5202  2.8043 -0.8711
   69SLPC  H15C 5837   4.457   4.655  11.240  0.8256  0.1357  2.8937
   69SLPC   C12 5838   4.509   4.492  11.018 -0.4173 -0.1148 -0.5163
   69SLPC  H12A 5839   4.444   4.427  10.962 -1.7613  1.8592 -1.2803
   69SLPC  H12B 5840   4.612   4.470  10.995 -1.0018 -1.4809 -1.9653
   69SLPC   C11 5841   4.469   4.630  10.967 -0.0866  0.2697  0.3868
   69SLPC  H11A 5842   4.494   4.629  10.859  1.7677 -1.2313  0.7863
   69SLPC  H11B 5843   4.531   4.715  11.004 -0.7114  1.0389 -0.3330
   69SLPC     P 5844   4.274   4.799  10.970 -0.3278 -0.1435  0.0331
   69SLPC   O13 5845   4.133   4.792  10.997 -0.7287 -0.5680 -0.0677
   69SLPC   O14 5846   4.349   4.894  11.050  0.3935 -0.6188 -0.1135
   69SLPC   O12 5847   4.338   4.659  10.999  0.0318  0.1392 -0.3302
   69SLPC   O11 5848   4.305   4.815  10.812  0.0276 -0.2274  0.5670
   69SLPC    C1 5849   4.233   4.719  10.727 -0.5638  0.1963  0.5262
   69SLPC    HA 5850   4.264   4.615  10.752 -0.9908 -0.0584 -0.0075
   69SLPC    HB 5851   4.124   4.731  10.745 -1.0594 -2.0924 -0.7499
   69SLPC    C2 5852   4.247   4.744  10.574  0.5849 -0.3848  0.1913
   69SLPC    HS 5853   4.353   4.771  10.555  1.0502 -1.2642  1.4945
   69SLPC   O21 5854   4.155   4.855  10.553  0.3708 -0.2058  0.1389
   69SLPC   C21 5855   4.172   4.930  10.445 -0.2073  1.0240  0.9592
   69SLPC   O22 5856   4.269   4.932  10.376 -0.3403  0.0878  0.2197
   69SLPC   C22 5857   4.047   5.014  10.421  0.7436 -0.4225  0.5041
   69SLPC   H2R 5858   3.956   4.963  10.459 -0.6923  0.5002 -1.6111
   69SLPC   H2S 5859   4.057   5.098  10.493  1.2478 -0.2311  0.2061
   69SLPC    C3 5860   4.220   4.617  10.489  1.2411  0.0495  0.3271
   69SLPC    HX 5861   4.118   4.579  10.515  2.4626 -0.6381  4.4387
   69SLPC    HY 5862   4.299   4.542  10.507  1.4442 -0.2421 -1.6436
   69SLPC   O31 5863   4.213   4.650  10.350  0.3563  0.0002 -0.7665
   69SLPC   C31 5864   4.325   4.642  10.283 -0.3617  0.0888 -0.3038
   69SLPC   O32 5865   4.432   4.602  10.322 -0.1312 -0.0030  0.4865
   69SLPC   C32 5866   4.313   4.712  10.148  0.8350 -0.0451  0.7205
   69SLPC   H2X 5867   4.303   4.822  10.165  1.6034  0.0560  0.5199
   69SLPC   H2Y 5868   4.221   4.670  10.101  0.2472 -0.3955  2.1570
   69SLPC   C23 5869   4.023   5.063  10.265  1.5441  0.2294 -0.4560
   69SLPC   H3R 5870   4.121   5.091  10.222  1.4632  0.4230 -0.5157
   69SLPC   H3S 5871   3.952   5.149  10.261 -0.1826 -1.1379  0.0929
   69SLPC   C24 5872   3.955   4.952  10.187  0.0980 -0.4987  0.9118
   69SLPC   H4R 5873   3.866   4.917  10.243 -0.5452  1.1333  0.9390
   69SLPC   H4S 5874   4.025   4.866  10.178 -0.7523 -1.1410  0.3841
   69SLPC   C25 5875   3.920   5.006  10.051 -0.0291 -0.7801  0.3739
   69SLPC   H5R 5876   3.994   5.085  10.025  0.4375 -1.1621  0.5386
   69SLPC   H5S 5877   3.825   5.063  10.054 -0.2696 -1.0425 -1.5524
   69SLPC   C26 5878   3.910   4.887   9.957  0.8732 -0.3645 -0.3176
   69SLPC   H6R 5879   3.817   4.830   9.979  0.6657  0.3338  0.6471
   69SLPC   H6S 5880   3.989   4.810   9.967  0.4383 -1.0840 -2.1770
   69SLPC   C27 5881   3.918   4.932   9.812  0.5879 -0.3204 -0.2823
   69SLPC   H7R 5882   4.018   4.982   9.805  0.5800  0.1147  2.3528
   69SLPC   H7S 5883   3.834   5.003   9.801 -2.8976 -4.1984  0.3356
   69SLPC   C28 5884   3.917   4.827   9.699  0.0965 -0.4091  0.1826
   69SLPC   H8R 5885   3.986   4.746   9.731 -1.8698 -2.0303  0.3844
   69SLPC   H8S 5886   3.949   4.883   9.608 -0.9493  1.7036  1.0666
   69SLPC   C29 5887   3.779   4.780   9.683  0.1795 -0.7847 -0.0917
   69SLPC   H9R 5888   3.737   4.736   9.774 -0.0001  0.2418  0.3237
   69SLPC  C210 5889   3.713   4.784   9.569 -0.3179 -0.2140 -0.3723
   69SLPC  H10R 5890   3.619   4.727   9.564 -1.0360  1.1568 -3.9175
   69SLPC  C211 5891   3.752   4.833   9.434 -0.2663  0.2444 -0.2185
   69SLPC  H11R 5892   3.788   4.939   9.433 -0.4684  0.3167 -1.2388
   69SLPC  H11S 5893   3.665   4.856   9.368 -2.7244 -2.1687  2.0797
   69SLPC  C212 5894   3.850   4.738   9.362 -0.3016  0.0139  0.3273
   69SLPC  H12R 5895   3.918   4.686   9.431  0.5224 -1.9199 -1.9043
   69SLPC  C213 5896   3.860   4.712   9.229 -0.8008 -0.0020  0.0642
   69SLPC  H13R 5897   3.936   4.637   9.201 -0.6957  0.0871  0.1131
   69SLPC  C214 5898   3.786   4.758   9.112 -0.2312 -0.3937  0.3037
   69SLPC  H14R 5899   3.846   4.845   9.077  1.2805 -1.6569 -0.2642
   69SLPC  H14S 5900   3.685   4.794   9.144 -0.5959 -1.8718  0.8674
   69SLPC  C215 5901   3.778   4.657   8.997 -0.5910  0.8851  0.6240
   69SLPC  H15R 5902   3.689   4.591   8.995 -0.4880  0.7631 -0.4899
   69SLPC  H15S 5903   3.871   4.595   8.995 -0.4811  1.0632  0.1461
   69SLPC  C216 5904   3.777   4.720   8.851 -0.0697 -0.2925  0.0705
   69SLPC  H16R 5905   3.859   4.793   8.835 -0.6916 -0.0486 -2.2373
   69SLPC  H16S 5906   3.688   4.785   8.841 -1.3806 -1.9271  0.9867
   69SLPC  C217 5907   3.768   4.622   8.729 -0.3127  0.4399 -0.4824
   69SLPC  H17R 5908   3.707   4.677   8.654 -0.2251  0.9775 -0.1664
   69SLPC  H17S 5909   3.701   4.536   8.750 -1.2603  1.2283 -0.2217
   69SLPC  C218 5910   3.906   4.590   8.668  0.1586 -0.0327  0.5623
   69SLPC  H18R 5911   3.894   4.529   8.576 -0.7098  2.0308 -0.7488
   69SLPC  H18S 5912   3.969   4.532   8.738  1.1251  1.4015  0.8969
   69SLPC  H18T 5913   3.953   4.685   8.633 -1.7612  0.4968 -0.6765
   69SLPC   C33 5914   4.428   4.695  10.055  0.2843  0.1029 -0.1143
   69SLPC   H3X 5915   4.525   4.722  10.101 -0.1606  2.1189 -0.3169
   69SLPC   H3Y 5916   4.410   4.763   9.969  0.0277  1.0445  0.6926
   69SLPC   C34 5917   4.410   4.560   9.988  0.5327 -0.1544  0.1682
   69SLPC   H4X 5918   4.321   4.504  10.022  1.4042  0.0922  2.9687
   69SLPC   H4Y 5919   4.502   4.507  10.021  2.1397  1.6936 -1.1797
   69SLPC   C35 5920   4.406   4.566   9.828 -0.5303 -0.4750  0.6235
   69SLPC   H5X 5921   4.504   4.611   9.801 -1.9791  3.1470  1.2017
   69SLPC   H5Y 5922   4.318   4.622   9.792  1.1851  0.7212 -1.8584
   69SLPC   C36 5923   4.402   4.420   9.768 -0.9374  0.7265 -0.7134
   69SLPC   H6X 5924   4.307   4.371   9.797 -0.0026 -1.8819 -1.9132
   69SLPC   H6Y 5925   4.484   4.359   9.810 -0.3766  2.0072  0.0880
   69SLPC   C37 5926   4.403   4.410   9.613 -0.0774 -0.3486 -0.4817
   69SLPC   H7X 5927   4.481   4.479   9.573  0.2535 -0.3054  0.2175
   69SLPC   H7Y 5928   4.316   4.460   9.565 -0.5013 -2.7040 -2.2454
   69SLPC   C38 5929   4.410   4.269   9.556 -0.5971 -0.1537 -0.7609
   69SLPC   H8X 5930   4.326   4.209   9.596  0.2709 -0.3003  0.8792
   69SLPC   H8Y 5931   4.502   4.217   9.591  1.2640  2.7442 -1.0945
   69SLPC   C39 5932   4.407   4.248   9.406 -0.0668  0.3795 -0.1374
   69SLPC   H9X 5933   4.505   4.278   9.364 -0.6986  0.5318 -1.5546
   69SLPC   H9Y 5934   4.322   4.301   9.357 -2.7837 -1.1682  2.7560
   69SLPC  C310 5935   4.381   4.095   9.376  0.6951 -0.2864 -0.7039
   69SLPC  H10X 5936   4.280   4.071   9.415  0.2170  2.3473 -0.2617
   69SLPC  H10Y 5937   4.454   4.029   9.427  1.4282  1.0823  0.0384
   69SLPC  C311 5938   4.393   4.083   9.225  0.2865 -0.4000  0.7939
   69SLPC  H11X 5939   4.503   4.073   9.214  0.1642  0.2831 -1.2709
   69SLPC  H11Y 5940   4.354   4.174   9.175  0.7143  0.8745  2.6900
   69SLPC  C312 5941   4.322   3.960   9.168 -0.0190 -0.0597  0.1515
   69SLPC  H12X 5942   4.377   3.929   9.077  0.6456  1.8068 -0.1030
   69SLPC  H12Y 5943   4.221   3.992   9.133  0.1705 -0.4288 -0.7516
   69SLPC  C313 5944   4.312   3.836   9.260 -0.8122 -0.2090 -0.1001
   69SLPC  H13X 5945   4.237   3.860   9.338 -2.6412 -1.0211 -1.5865
   69SLPC  H13Y 5946   4.410   3.801   9.301 -1.0042  0.3549  0.8618
   69SLPC  C314 5947   4.254   3.712   9.181 -0.3826 -1.3448  0.3537
   69SLPC  H14X 5948   4.269   3.732   9.072  0.7309  1.6611  1.0081
   69SLPC  H14Y 5949   4.144   3.718   9.196 -0.1746  0.4528  1.2956
   69SLPC  C315 5950   4.321   3.581   9.228 -0.7556  0.4230  0.1721
   69SLPC  H15X 5951   4.262   3.491   9.202 -3.5596  1.9747  0.9987
   69SLPC  H15Y 5952   4.329   3.585   9.339 -0.4146  1.8731  0.1031
   69SLPC  C316 5953   4.462   3.573   9.172 -0.3948  0.7517  0.6524
   69SLPC  H16X 5954   4.516   3.670   9.178 -1.0554  1.0310  2.5112
   69SLPC  H16Y 5955   4.461   3.543   9.065 -1.6547  5.0637 -0.6353
   69SLPC  C317 5956   4.549   3.475   9.244 -0.1735  0.3561  0.0967
   69SLPC  H17X 5957   4.629   3.451   9.172  0.7575  0.6237  1.0306
   69SLPC  H17Y 5958   4.477   3.393   9.263 -1.0510  0.9954 -0.4240
   69SLPC  C318 5959   4.622   3.545   9.354 -0.1406  0.6272  0.0018
   69SLPC  H18X 5960   4.558   3.603   9.423  0.0075  1.1324 -0.2825
   69SLPC  H18Y 5961   4.690   3.624   9.314 -0.2730  1.9452  2.3223
   69SLPC  H18Z 5962   4.676   3.466   9.411 -1.3939 -0.9482 -0.9576
   70SLPC     N 5963   4.859   2.678  11.140 -0.0300  0.1553 -0.1776
   70SLPC   C13 5964   4.838   2.763  11.262  0.2485  0.3717  0.4087
   70SLPC  H13A 5965   4.853   2.698  11.347  1.7778 -1.6823 -1.3416
   70SLPC  H13B 5966   4.914   2.840  11.255  0.5711  0.0592  0.4219
   70SLPC  H13C 5967   4.746   2.817  11.256  0.5378  0.8069 -0.1829
   70SLPC   C14 5968   4.738   2.599  11.119 -0.0633  0.0043 -0.1230
   70SLPC  H14A 5969   4.734   2.520  11.192 -0.0796  0.3612  0.2695
   70SLPC  H14B 5970   4.652   2.653  11.156 -0.7260 -0.9818 -0.2138
   70SLPC  H14C 5971   4.723   2.570  11.016 -1.4732 -0.6074  0.2452
   70SLPC   C15 5972   4.969   2.589  11.158 -0.8791 -0.6690 -0.2043
   70SLPC  H15A 5973   4.965   2.512  11.235  1.4929 -0.8217 -0.1954
   70SLPC  H15B 5974   4.979   2.545  11.060 -2.5233  0.5401 -0.9474
   70SLPC  H15C 5975   5.061   2.642  11.179 -1.1391 -1.0452  2.0939
   70SLPC   C12 5976   4.878   2.777  11.022  0.3153  0.3522 -0.4988
   70SLPC  H12A 5977   4.951   2.852  11.046  0.7240  0.5999 -2.4096
   70SLPC  H12B 5978   4.795   2.846  11.015  2.2480  2.7543 -0.0533
   70SLPC   C11 5979   4.906   2.709  10.892 -0.5685  0.7663 -0.0715
   70SLPC  H11A 5980   4.901   2.788  10.813 -1.8630  0.0962 -0.6730
   70SLPC  H11B 5981   4.822   2.637  10.877 -3.5530  3.7672  1.5933
   70SLPC     P 5982   5.161   2.718  10.850 -0.1721  0.3491  0.4688
   70SLPC   O13 5983   5.167   2.856  10.898  0.0109  0.2321 -0.1132
   70SLPC   O14 5984   5.271   2.625  10.885  0.6441 -0.0974 -0.2548
   70SLPC   O12 5985   5.030   2.641  10.884 -0.6813  0.5221 -0.2283
   70SLPC   O11 5986   5.149   2.730  10.688 -0.0865  0.1045  0.1349
   70SLPC    C1 5987   5.061   2.657  10.610  1.0262 -0.6526 -0.3126
   70SLPC    HA 5988   5.065   2.553  10.649  1.6706 -0.6005 -0.2328
   70SLPC    HB 5989   4.958   2.696  10.623  1.0987 -0.9349  1.1422
   70SLPC    C2 5990   5.101   2.645  10.459  0.0736  0.5890 -0.0876
   70SLPC    HS 5991   5.051   2.559  10.411  0.2377 -0.1008  0.9768
   70SLPC   O21 5992   5.248   2.633  10.454  0.6080  0.3637 -0.3484
   70SLPC   C21 5993   5.289   2.508  10.485  0.4643  0.3932 -0.5052
   70SLPC   O22 5994   5.216   2.412  10.502 -0.0217  0.1877  0.5812
   70SLPC   C22 5995   5.437   2.501  10.480  0.4385 -0.1991 -0.4968
   70SLPC   H2R 5996   5.469   2.522  10.584 -1.9754  2.4551 -0.2194
   70SLPC   H2S 5997   5.478   2.402  10.450  1.0834  0.2919 -1.2557
   70SLPC    C3 5998   5.050   2.760  10.365 -0.4438  0.2244 -0.3719
   70SLPC    HX 5999   5.081   2.748  10.259 -2.4534  0.1027 -0.9725
   70SLPC    HY 6000   5.103   2.851  10.400 -1.0481  0.0933  0.9023
   70SLPC   O31 6001   4.910   2.774  10.368 -0.1682  0.4126  0.0609
   70SLPC   C31 6002   4.845   2.689  10.287  0.3603  0.8959  0.5301
   70SLPC   O32 6003   4.896   2.604  10.216  0.8220  0.0336  0.5770
   70SLPC   C32 6004   4.695   2.723  10.288 -0.3027  0.3171  0.9083
   70SLPC   H2X 6005   4.645   2.686  10.380 -0.6664 -3.4291 -0.6896
   70SLPC   H2Y 6006   4.651   2.678  10.197  0.0931  1.1709  0.2899
   70SLPC   C23 6007   5.502   2.615  10.388 -0.2068 -0.1375 -0.3822
   70SLPC   H3R 6008   5.612   2.608  10.407  0.1251 -1.4451 -2.5742
   70SLPC   H3S 6009   5.474   2.714  10.431 -0.8040  0.3268 -1.7903
   70SLPC   C24 6010   5.473   2.609  10.238 -0.2628 -0.2044 -0.2639
   70SLPC   H4R 6011   5.365   2.628  10.223 -0.4877 -1.4207 -0.2531
   70SLPC   H4S 6012   5.496   2.506  10.203 -0.1552 -0.5031  0.6895
   70SLPC   C25 6013   5.555   2.707  10.151 -0.4600 -0.0495  0.1404
   70SLPC   H5R 6014   5.658   2.720  10.193 -0.6288  0.5139  0.3816
   70SLPC   H5S 6015   5.500   2.804  10.152 -0.4799 -0.0672  0.6087
   70SLPC   C26 6016   5.579   2.663   9.999  0.1376 -0.2636 -0.1403
   70SLPC   H6R 6017   5.481   2.671   9.948  0.4581 -2.0958 -1.0606
   70SLPC   H6S 6018   5.611   2.557   9.998  2.0959  0.3030 -0.8263
   70SLPC   C27 6019   5.686   2.751   9.932 -0.5766  0.5279  0.2410
   70SLPC   H7R 6020   5.772   2.764  10.001  0.6725  1.0317 -1.3965
   70SLPC   H7S 6021   5.651   2.856   9.922 -0.2729  0.7344  1.2637
   70SLPC   C28 6022   5.737   2.687   9.800  0.9173 -0.6855 -0.1289
   70SLPC   H8R 6023   5.786   2.592   9.829  3.5275  0.5549 -0.3675
   70SLPC   H8S 6024   5.816   2.761   9.775 -0.7204  1.7391  1.7264
   70SLPC   C29 6025   5.633   2.670   9.693  0.9152 -0.7823 -0.2373
   70SLPC   H9R 6026   5.544   2.610   9.718  0.8755 -0.2718  0.8962
   70SLPC  C210 6027   5.623   2.744   9.580  0.5307 -0.6176 -0.0468
   70SLPC  H10R 6028   5.548   2.725   9.502 -0.3777  0.8090  0.4543
   70SLPC  C211 6029   5.726   2.849   9.539  0.0772 -0.7607  0.3441
   70SLPC  H11R 6030   5.711   2.852   9.429 -1.6599 -1.1658  0.5684
   70SLPC  H11S 6031   5.833   2.817   9.545  0.0003 -0.6185  2.7497
   70SLPC  C212 6032   5.711   2.987   9.591  0.1967  0.4396 -0.1279
   70SLPC  H12R 6033   5.721   2.985   9.700  0.5762  0.0837 -0.1667
   70SLPC  C213 6034   5.698   3.101   9.519  0.3592 -0.2724 -0.0587
   70SLPC  H13R 6035   5.678   3.195   9.573 -1.1323 -1.5207  1.6039
   70SLPC  C214 6036   5.712   3.113   9.369 -0.2616 -0.4001 -0.2221
   70SLPC  H14R 6037   5.624   3.170   9.335  0.5448  1.8834  1.4370
   70SLPC  H14S 6038   5.716   3.013   9.320 -0.6044 -0.0054 -1.0518
   70SLPC  C215 6039   5.853   3.174   9.336 -0.2408 -0.0656  0.2508
   70SLPC  H15R 6040   5.936   3.100   9.332 -0.2454 -0.1359  1.3056
   70SLPC  H15S 6041   5.876   3.244   9.419  1.5821 -1.5753  1.0523
   70SLPC  C216 6042   5.858   3.256   9.209  0.0684  0.0969  0.3032
   70SLPC  H16R 6043   5.859   3.361   9.244  1.0475  0.4868 -0.8592
   70SLPC  H16S 6044   5.762   3.235   9.156 -0.2245 -0.7926  1.1618
   70SLPC  C217 6045   5.978   3.222   9.126  0.7552 -0.2543 -0.4423
   70SLPC  H17R 6046   6.066   3.224   9.194 -0.0045  0.8669  0.5220
   70SLPC  H17S 6047   5.981   3.297   9.043  0.0071 -2.3399 -2.3972
   70SLPC  C218 6048   5.988   3.077   9.065 -0.3669 -0.4049 -0.1362
   70SLPC  H18R 6049   5.981   2.999   9.145  0.5763 -1.4154 -1.0253
   70SLPC  H18S 6050   6.073   3.073   8.994 -0.3527  1.0386 -0.2142
   70SLPC  H18T 6051   5.902   3.059   8.998 -0.8659  0.4720  0.2596
   70SLPC   C33 6052   4.669   2.872  10.299  0.1654 -0.0813 -0.2454
   70SLPC   H3X 6053   4.708   2.912  10.395 -0.2104 -0.6365  0.1410
   70SLPC   H3Y 6054   4.560   2.886  10.320  0.0216 -0.7069 -0.5577
   70SLPC   C34 6055   4.715   2.947  10.168 -0.0626 -0.2667  0.2131
   70SLPC   H4X 6056   4.826   2.939  10.163 -0.0353 -0.0985  0.5252
   70SLPC   H4Y 6057   4.687   3.054  10.169 -0.9684 -0.5057  1.6332
   70SLPC   C35 6058   4.653   2.889  10.033 -0.1132  0.1999  0.5734
   70SLPC   H5X 6059   4.543   2.884  10.046 -0.4481 -0.1604 -2.2845
   70SLPC   H5Y 6060   4.693   2.787  10.014 -0.8887 -0.1441  0.7529
   70SLPC   C36 6061   4.686   2.978   9.914  1.0066 -0.9109 -0.5510
   70SLPC   H6X 6062   4.796   2.976   9.894  1.1912  2.6758 -0.1005
   70SLPC   H6Y 6063   4.669   3.085   9.936  1.0946 -1.5244  2.8622
   70SLPC   C37 6064   4.629   2.922   9.778 -0.0872  1.0007 -0.6311
   70SLPC   H7X 6065   4.518   2.911   9.786 -0.0993  1.2792 -0.4058
   70SLPC   H7Y 6066   4.674   2.821   9.777  2.0743  1.9497 -0.9547
   70SLPC   C38 6067   4.672   3.011   9.666  0.0814 -0.0312 -0.8015
   70SLPC   H8X 6068   4.782   3.006   9.650  0.5532  1.5486  1.6324
   70SLPC   H8Y 6069   4.653   3.119   9.684  3.0123  0.0639  2.1464
   70SLPC   C39 6070   4.609   2.991   9.523  0.0445  0.4798  0.1271
   70SLPC   H9X 6071   4.513   3.042   9.498 -0.8554 -0.1275  2.2034
   70SLPC   H9Y 6072   4.600   2.881   9.506  1.3856  0.4556 -0.4268
   70SLPC  C310 6073   4.708   3.029   9.405 -0.0165  0.0390  0.4649
   70SLPC  H10X 6074   4.807   2.978   9.405 -0.9487 -1.8091 -0.8655
   70SLPC  H10Y 6075   4.719   3.139   9.396  0.5850 -0.1142 -0.8338
   70SLPC  C311 6076   4.655   2.983   9.268 -0.6598 -0.3020 -0.2320
   70SLPC  H11X 6077   4.708   3.041   9.189 -0.1240 -1.8782 -1.0683
   70SLPC  H11Y 6078   4.546   3.004   9.261 -0.9418 -2.0378 -1.3956
   70SLPC  C312 6079   4.669   2.837   9.241  0.0029 -0.2292 -0.3953
   70SLPC  H12X 6080   4.592   2.793   9.308 -2.7574  3.0634 -1.2992
   70SLPC  H12Y 6081   4.771   2.797   9.262 -1.0449 -2.5544  0.3488
   70SLPC  C313 6082   4.630   2.797   9.098 -0.3304 -1.0090 -0.2704
   70SLPC  H13X 6083   4.521   2.813   9.083 -0.3213 -1.0563 -0.3860
   70SLPC  H13Y 6084   4.643   2.688   9.077 -0.6945 -1.2596  0.7516
   70SLPC  C314 6085   4.702   2.877   8.978 -0.2841  0.4942  0.4366
   70SLPC  H14X 6086   4.682   2.986   8.991  1.2306  0.7845  0.4286
   70SLPC  H14Y 6087   4.655   2.843   8.883  1.7468 -0.1566 -0.3466
   70SLPC  C315 6088   4.858   2.849   8.968 -0.6904 -0.1091  0.3636
   70SLPC  H15X 6089   4.905   2.876   9.064 -1.7949 -1.1587  1.2160
   70SLPC  H15Y 6090   4.893   2.921   8.891 -1.4810  0.8163  0.8591
   70SLPC  C316 6091   4.894   2.707   8.909  0.3206  0.0146  0.2335
   70SLPC  H16X 6092   4.838   2.691   8.815 -1.3761 -0.1768  1.2612
   70SLPC  H16Y 6093   4.877   2.641   8.997 -3.4321 -1.4916 -1.5161
   70SLPC  C317 6094   5.041   2.700   8.858 -0.7555  0.4283  0.0945
   70SLPC  H17X 6095   5.060   2.603   8.808  0.6856  0.9660 -0.4313
   70SLPC  H17Y 6096   5.109   2.700   8.946 -1.1334 -0.4379  0.3849
   70SLPC  C318 6097   5.093   2.802   8.759  0.2044 -0.1270  0.0760
   70SLPC  H18X 6098   5.182   2.772   8.702  0.0304  1.7786 -1.2623
   70SLPC  H18Y 6099   5.121   2.894   8.815 -0.8753 -1.3756  2.7467
   70SLPC  H18Z 6100   5.011   2.832   8.690 -0.5395 -0.1969  0.9088
   71SLPC     N 6101   4.542   0.940  11.094 -0.2575 -0.3586 -0.8651
   71SLPC   C13 6102   4.468   0.897  11.218  0.3391  0.8459 -1.0594
   71SLPC  H13A 6103   4.383   0.960  11.237  0.8434  1.2263 -0.0280
   71SLPC  H13B 6104   4.432   0.797  11.203 -1.4357  0.8900  2.5054
   71SLPC  H13C 6105   4.528   0.897  11.308 -1.1453  2.1436 -0.0424
   71SLPC   C14 6106   4.655   0.842  11.094 -0.8312  0.1769 -0.3195
   71SLPC  H14A 6107   4.621   0.746  11.059 -2.0694  1.1670 -1.9185
   71SLPC  H14B 6108   4.737   0.883  11.036 -0.5981  1.1187  0.6502
   71SLPC  H14C 6109   4.704   0.842  11.190  0.6778  0.6663 -1.0659
   71SLPC   C15 6110   4.581   1.090  11.105 -0.1342 -0.0983  0.3258
   71SLPC  H15A 6111   4.658   1.104  11.180  0.2438 -3.7615  0.7106
   71SLPC  H15B 6112   4.622   1.123  11.010  1.0781 -1.7163  0.2801
   71SLPC  H15C 6113   4.499   1.152  11.138 -1.6679 -1.6408 -0.5317
   71SLPC   C12 6114   4.452   0.928  10.978  0.6547  0.4272  0.4946
   71SLPC  H12A 6115   4.361   0.980  11.000  0.3115 -0.5564  1.4225
   71SLPC  H12B 6116   4.411   0.828  10.972  0.7920  0.4440 -1.2968
   71SLPC   C11 6117   4.507   0.969  10.837  0.1167  0.5832  0.0926
   71SLPC  H11A 6118   4.523   1.079  10.842  2.3519  0.2140  1.9908
   71SLPC  H11B 6119   4.433   0.939  10.760  1.2734 -1.8466 -0.0980
   71SLPC     P 6120   4.696   0.877  10.673  0.1138  0.0510  0.0187
   71SLPC   O13 6121   4.842   0.889  10.688 -0.0083  0.7767  0.4584
   71SLPC   O14 6122   4.646   0.748  10.625 -0.1086 -0.3197  0.1258
   71SLPC   O12 6123   4.630   0.910  10.810 -0.5186  0.0452  0.5837
   71SLPC   O11 6124   4.645   0.989  10.574 -0.3042 -0.5702  0.1547
   71SLPC    C1 6125   4.670   1.128  10.575  0.3470 -0.0482  0.3072
   71SLPC    HA 6126   4.723   1.151  10.669  1.7921 -0.6178 -0.3503
   71SLPC    HB 6127   4.739   1.143  10.490  0.8434 -0.7986  0.5712
   71SLPC    C2 6128   4.539   1.209  10.563 -0.4375  0.2073 -0.3994
   71SLPC    HS 6129   4.470   1.170  10.641  1.6005 -0.9013  0.9075
   71SLPC   O21 6130   4.484   1.201  10.429 -0.4833  0.0103 -0.0028
   71SLPC   C21 6131   4.369   1.251  10.412 -0.6152 -0.6804 -0.1247
   71SLPC   O22 6132   4.298   1.298  10.501  0.2996  0.0705 -0.1625
   71SLPC   C22 6133   4.329   1.230  10.269 -0.4000 -0.4520 -0.0023
   71SLPC   H2R 6134   4.398   1.157  10.221  2.3785  2.2314 -0.2280
   71SLPC   H2S 6135   4.224   1.191  10.270  0.6475 -3.4031  0.1842
   71SLPC    C3 6136   4.561   1.361  10.610  0.1460 -0.2444 -0.3329
   71SLPC    HX 6137   4.597   1.348  10.714  0.2023  1.3718 -0.1427
   71SLPC    HY 6138   4.471   1.422  10.628 -1.1789 -2.2424  0.0172
   71SLPC   O31 6139   4.668   1.433  10.539 -0.2559  0.1565  0.5626
   71SLPC   C31 6140   4.632   1.504  10.432 -0.8839 -0.0950 -0.5393
   71SLPC   O32 6141   4.515   1.524  10.396 -0.2281 -0.7117 -0.2666
   71SLPC   C32 6142   4.755   1.551  10.356  0.0387 -0.6464  0.1519
   71SLPC   H2X 6143   4.835   1.476  10.374  1.0880  0.7793  1.4911
   71SLPC   H2Y 6144   4.774   1.639  10.420  2.6370 -1.3798  0.4322
   71SLPC   C23 6145   4.328   1.353  10.170 -0.3245  0.1313  0.2283
   71SLPC   H3R 6146   4.419   1.416  10.177 -1.2107  1.5887 -1.0070
   71SLPC   H3S 6147   4.243   1.417  10.203 -0.9167 -1.3621  1.6663
   71SLPC   C24 6148   4.294   1.309  10.023  0.1790  0.0452 -0.2229
   71SLPC   H4R 6149   4.202   1.248  10.033 -0.2644  0.7466 -0.0251
   71SLPC   H4S 6150   4.377   1.250   9.979  0.8406  0.6568  0.1959
   71SLPC   C25 6151   4.249   1.429   9.926  0.4357 -0.1075  0.6289
   71SLPC   H5R 6152   4.311   1.514   9.963  1.0333 -1.8308  3.7896
   71SLPC   H5S 6153   4.143   1.458   9.947  0.4657  0.6267 -0.1957
   71SLPC   C26 6154   4.271   1.398   9.779 -0.3263  0.5144 -0.5837
   71SLPC   H6R 6155   4.374   1.357   9.767 -0.8781 -1.0979  0.1758
   71SLPC   H6S 6156   4.265   1.486   9.710  0.8044  0.5168 -0.6983
   71SLPC   C27 6157   4.178   1.289   9.725 -0.4526 -0.4910  0.5008
   71SLPC   H7R 6158   4.074   1.329   9.728 -0.1510  0.2292  1.7525
   71SLPC   H7S 6159   4.186   1.191   9.776  1.5356 -1.6258 -1.9325
   71SLPC   C28 6160   4.210   1.266   9.576 -0.1637 -0.0950 -0.4972
   71SLPC   H8R 6161   4.310   1.218   9.562 -0.3273 -0.1855 -1.4396
   71SLPC   H8S 6162   4.219   1.361   9.520  2.1066 -0.1080 -0.1958
   71SLPC   C29 6163   4.118   1.167   9.502 -0.1236  0.1557 -0.2458
   71SLPC   H9R 6164   4.115   1.077   9.564 -2.8870  1.5667  1.7804
   71SLPC  C210 6165   4.043   1.171   9.390  0.3566 -0.6447  0.3121
   71SLPC  H10R 6166   3.983   1.082   9.367 -1.5455 -0.3785  3.8607
   71SLPC  C211 6167   4.038   1.286   9.292 -0.9574  0.1589  0.0440
   71SLPC  H11R 6168   4.048   1.381   9.349 -2.2484  0.6856 -0.5955
   71SLPC  H11S 6169   3.942   1.290   9.238 -1.1603  2.1217  0.5019
   71SLPC  C212 6170   4.155   1.270   9.198  0.3689  0.4125 -0.3507
   71SLPC  H12R 6171   4.250   1.249   9.249  0.0492  0.5382  0.3103
   71SLPC  C213 6172   4.167   1.284   9.061  0.2818 -0.5450 -0.3646
   71SLPC  H13R 6173   4.266   1.265   9.018  0.1033 -3.1032  0.3016
   71SLPC  C214 6174   4.048   1.316   8.973  0.0304  0.2133 -0.0940
   71SLPC  H14R 6175   4.080   1.348   8.872 -0.4935  0.5249 -0.1635
   71SLPC  H14S 6176   3.991   1.395   9.027  0.4247 -1.5636  3.0552
   71SLPC  C215 6177   3.936   1.202   8.951 -0.0836 -0.2320 -0.4558
   71SLPC  H15R 6178   3.884   1.177   9.047 -0.5765  1.8450 -0.1576
   71SLPC  H15S 6179   3.991   1.112   8.917  0.7238  0.1026 -0.0563
   71SLPC  C216 6180   3.842   1.232   8.834  0.0616 -0.1267  0.0685
   71SLPC  H16R 6181   3.891   1.219   8.735 -0.4123  4.1871 -0.8729
   71SLPC  H16S 6182   3.801   1.336   8.833 -0.0122 -0.1606 -0.7592
   71SLPC  C217 6183   3.723   1.143   8.828  0.2161 -0.0203  0.1645
   71SLPC  H17R 6184   3.646   1.181   8.899  2.1503  2.2877  1.1153
   71SLPC  H17S 6185   3.752   1.044   8.869 -1.9766 -0.7828 -0.0826
   71SLPC  C218 6186   3.669   1.100   8.688  0.0317  0.6190 -0.1674
   71SLPC  H18R 6187   3.670   1.193   8.627 -0.2448  1.1923  0.7013
   71SLPC  H18S 6188   3.570   1.049   8.693  0.1790  0.0922 -2.0653
   71SLPC  H18T 6189   3.742   1.030   8.641  0.3426  0.0623  1.1171
   71SLPC   C33 6190   4.720   1.584  10.207 -0.1865 -0.0184  0.3232
   71SLPC   H3X 6191   4.687   1.690  10.213 -0.1553 -0.1123  2.6166
   71SLPC   H3Y 6192   4.646   1.525  10.149 -2.3737  1.9899  0.9820
   71SLPC   C34 6193   4.861   1.583  10.132 -0.1574 -0.3467  0.8155
   71SLPC   H4X 6194   4.888   1.476  10.116  0.6281 -0.0066 -0.1691
   71SLPC   H4Y 6195   4.941   1.621  10.198  0.0545 -1.7491  1.3802
   71SLPC   C35 6196   4.863   1.673  10.004  0.2417  0.1425  0.5266
   71SLPC   H5X 6197   4.897   1.774  10.035 -1.9896  1.8058 -2.1796
   71SLPC   H5Y 6198   4.763   1.698   9.961 -0.1408  0.3449  1.5260
   71SLPC   C36 6199   4.947   1.629   9.889  0.1881  0.8129  0.0503
   71SLPC   H6X 6200   4.940   1.518   9.884  0.5864  0.8141 -0.6556
   71SLPC   H6Y 6201   5.050   1.654   9.922 -1.0180  1.6303  3.3759
   71SLPC   C37 6202   4.895   1.695   9.760  0.8695  0.2764  0.5527
   71SLPC   H7X 6203   4.899   1.806   9.769  0.1912  0.2987  0.6342
   71SLPC   H7Y 6204   4.791   1.661   9.745  0.6265  0.7163  1.2257
   71SLPC   C38 6205   4.961   1.661   9.627  0.1119  0.0976  0.6859
   71SLPC   H8X 6206   4.938   1.558   9.591 -1.4716  0.8162 -0.4150
   71SLPC   H8Y 6207   5.071   1.678   9.634 -0.1337  2.2193 -0.1269
   71SLPC   C39 6208   4.905   1.755   9.517  0.2949 -0.6130  0.0744
   71SLPC   H9X 6209   4.918   1.863   9.537 -2.2152 -0.1953 -0.4397
   71SLPC   H9Y 6210   4.797   1.731   9.524  0.0254  0.6274  0.2359
   71SLPC  C310 6211   4.960   1.722   9.369 -0.3816 -0.2661  0.1927
   71SLPC  H10X 6212   4.899   1.784   9.299 -1.7781 -1.0161  0.7200
   71SLPC  H10Y 6213   4.960   1.616   9.338 -0.9442 -0.2130 -0.0092
   71SLPC  C311 6214   5.103   1.771   9.349  0.1378 -0.3895 -0.7795
   71SLPC  H11X 6215   5.178   1.698   9.388 -0.9889 -1.1118  0.0928
   71SLPC  H11Y 6216   5.114   1.867   9.405 -1.3228 -0.5537 -0.1767
   71SLPC  C312 6217   5.141   1.788   9.206 -0.2007  0.0041  0.1250
   71SLPC  H12X 6218   5.142   1.687   9.159  2.0374  0.2462 -0.4056
   71SLPC  H12Y 6219   5.248   1.816   9.205 -0.9554  3.0435 -1.2410
   71SLPC  C313 6220   5.052   1.885   9.122  0.0600  0.0057 -0.1730
   71SLPC  H13X 6221   5.048   1.983   9.173  1.2986  0.2851 -0.6194
   71SLPC  H13Y 6222   4.946   1.851   9.121  0.5496 -1.5854 -0.9299
   71SLPC  C314 6223   5.085   1.911   8.979 -0.0570 -0.1606 -0.2124
   71SLPC  H14X 6224   5.189   1.946   8.966  0.0659 -0.5421 -0.2519
   71SLPC  H14Y 6225   5.032   2.007   8.958  3.0938  1.7158  0.1902
   71SLPC  C315 6226   5.037   1.803   8.869  0.4506  0.0090 -0.1226
   71SLPC  H15X 6227   4.942   1.749   8.889 -0.1284  1.1725  0.3073
   71SLPC  H15Y 6228   5.113   1.722   8.869  0.1161 -0.3114  0.6944
   71SLPC  C316 6229   5.019   1.854   8.725  0.0064 -0.3116  0.1715
   71SLPC  H16X 6230   4.992   1.770   8.658  2.0288  0.2562 -1.4189
   71SLPC  H16Y 6231   5.109   1.914   8.700  0.1687 -0.1862  1.0167
   71SLPC  C317 6232   4.883   1.927   8.730 -0.4110 -0.3892 -0.1589
   71SLPC  H17X 6233   4.898   2.024   8.782 -2.3741  0.3251 -0.8592
   71SLPC  H17Y 6234   4.808   1.874   8.793  2.3809 -2.0671  1.8686
   71SLPC  C318 6235   4.835   1.966   8.591 -0.1763  0.2421 -0.2556
   71SLPC  H18X 6236   4.813   1.878   8.526  0.4122  0.0757 -0.2354
   71SLPC  H18Y 6237   4.913   2.027   8.541  1.1671 -1.1286  0.1285
   71SLPC  H18Z 6238   4.753   2.040   8.595  0.4900  0.9230  0.8473
   72SLPC     N 6239   5.902   6.423  10.653  0.2659  0.3129 -0.2024
   72SLPC   C13 6240   5.932   6.494  10.785  0.4299  0.0899  0.1776
   72SLPC  H13A 6241   5.850   6.545  10.834  1.5020  1.7629  0.2445
   72SLPC  H13B 6242   5.968   6.419  10.854  1.5121 -0.3865 -0.8866
   72SLPC  H13C 6243   6.011   6.566  10.770  1.2395 -0.7679  0.3009
   72SLPC   C14 6244   5.811   6.306  10.674  0.2020 -0.0237 -0.5837
   72SLPC  H14A 6245   5.721   6.339  10.725  1.4769  1.3827  0.8192
   72SLPC  H14B 6246   5.783   6.279  10.574 -1.7711  0.7813 -0.2774
   72SLPC  H14C 6247   5.861   6.227  10.727 -0.0747  0.2361  0.0765
   72SLPC   C15 6248   6.031   6.371  10.601 -0.2351 -0.0040 -0.1388
   72SLPC  H15A 6249   6.103   6.449  10.581  0.8623 -0.4226  1.9970
   72SLPC  H15B 6250   6.078   6.305  10.672 -1.5649  0.9081  1.6257
   72SLPC  H15C 6251   6.023   6.314  10.510 -0.0397 -0.0171 -0.1469
   72SLPC   C12 6252   5.830   6.519  10.564 -0.8508  0.2429 -1.0290
   72SLPC  H12A 6253   5.779   6.471  10.481 -1.1049  0.4273 -0.9802
   72SLPC  H12B 6254   5.899   6.591  10.522  0.4711  0.1838  1.0148
   72SLPC   C11 6255   5.721   6.612  10.629  0.6629  0.2382  0.2926
   72SLPC  H11A 6256   5.686   6.674  10.544 -0.9674  0.2664  0.9731
   72SLPC  H11B 6257   5.774   6.673  10.706  1.3443  0.8149 -0.6158
   72SLPC     P 6258   5.526   6.586  10.792 -0.4169  0.0498  0.2404
   72SLPC   O13 6259   5.531   6.497  10.909 -0.1123 -0.0960 -0.2611
   72SLPC   O14 6260   5.546   6.731  10.799  0.0675 -0.0361 -0.0520
   72SLPC   O12 6261   5.614   6.522  10.677  0.2796 -0.0929  0.7404
   72SLPC   O11 6262   5.380   6.573  10.721 -0.0975 -0.6391  0.0218
   72SLPC    C1 6263   5.353   6.481  10.616  0.1194  0.4799 -0.5302
   72SLPC    HA 6264   5.416   6.390  10.611  0.9579  0.9921  0.5570
   72SLPC    HB 6265   5.253   6.435  10.632  0.4761  0.3702  1.5528
   72SLPC    C2 6266   5.359   6.556  10.482  0.8048  0.2991 -0.3456
   72SLPC    HS 6267   5.456   6.611  10.489  1.3385 -0.5443 -0.9820
   72SLPC   O21 6268   5.241   6.636  10.462 -0.5562  0.1669  0.2248
   72SLPC   C21 6269   5.260   6.763  10.414  0.1610  0.7413 -0.0728
   72SLPC   O22 6270   5.369   6.812  10.397  0.4516 -0.6397 -0.5717
   72SLPC   C22 6271   5.120   6.830  10.393 -0.5740 -0.2754  0.1269
   72SLPC   H2R 6272   5.055   6.750  10.351 -2.1965  1.8178 -1.5095
   72SLPC   H2S 6273   5.082   6.850  10.496  0.4649  0.5939  0.3515
   72SLPC    C3 6274   5.374   6.459  10.360  0.0193  0.5355  0.3427
   72SLPC    HX 6275   5.298   6.379  10.361  0.7728 -0.2042 -0.5333
   72SLPC    HY 6276   5.470   6.402  10.358 -0.5707 -0.4275 -1.1464
   72SLPC   O31 6277   5.370   6.537  10.239  0.0102  0.2836 -0.2772
   72SLPC   C31 6278   5.481   6.607  10.190  0.0520 -0.4244 -0.3524
   72SLPC   O32 6279   5.577   6.624  10.253 -0.3226  0.2076  0.0308
   72SLPC   C32 6280   5.445   6.675  10.055 -0.4072 -0.2166 -0.1160
   72SLPC   H2X 6281   5.335   6.680  10.043 -0.4696 -1.7375 -0.2612
   72SLPC   H2Y 6282   5.500   6.617   9.978  1.6404  4.0758 -2.0235
   72SLPC   C23 6283   5.114   6.967  10.327  0.1982 -0.1369 -0.1708
   72SLPC   H3R 6284   5.156   7.052  10.386 -1.1861  0.5306 -0.1311
   72SLPC   H3S 6285   5.011   7.004  10.345  0.4731  0.0511  1.0922
   72SLPC   C24 6286   5.151   6.964  10.186 -0.4072  0.6900  0.6441
   72SLPC   H4R 6287   5.229   6.891  10.154  0.8280  2.2993 -0.0604
   72SLPC   H4S 6288   5.185   7.064  10.151  0.9843  0.2181  0.6047
   72SLPC   C25 6289   5.034   6.931  10.089 -0.1667 -0.6626 -0.0151
   72SLPC   H5R 6290   4.944   6.992  10.113 -0.3018 -2.0641  3.2598
   72SLPC   H5S 6291   5.000   6.831  10.123  0.7462 -1.3541 -1.1021
   72SLPC   C26 6292   5.068   6.930   9.943 -0.2630 -0.2702 -0.0219
   72SLPC   H6R 6293   5.146   6.853   9.924 -0.0834  0.0540 -0.6172
   72SLPC   H6S 6294   5.113   7.028   9.919 -1.3801  0.2159 -0.1591
   72SLPC   C27 6295   4.950   6.890   9.851 -0.9698  0.1227  0.5896
   72SLPC   H7R 6296   4.869   6.965   9.842 -1.0266 -0.0645 -0.5826
   72SLPC   H7S 6297   4.907   6.794   9.887  0.2854 -0.9291 -0.6359
   72SLPC   C28 6298   4.997   6.863   9.707 -0.1738 -0.0422  0.0301
   72SLPC   H8R 6299   4.915   6.799   9.667  0.1303  1.0021 -2.3877
   72SLPC   H8S 6300   5.079   6.790   9.722 -1.3837 -1.1938  1.1314
   72SLPC   C29 6301   5.022   6.989   9.625  1.4756 -0.0359 -0.5738
   72SLPC   H9R 6302   5.076   7.069   9.677 -0.4537  0.3508  0.8925
   72SLPC  C210 6303   4.990   7.011   9.500  0.1074 -0.2062  0.5910
   72SLPC  H10R 6304   5.012   7.109   9.457  2.3121 -1.3384 -0.9628
   72SLPC  C211 6305   4.901   6.924   9.414  0.2626 -0.4738 -0.0509
   72SLPC  H11R 6306   4.820   6.978   9.362 -2.2983 -4.0999 -0.0749
   72SLPC  H11S 6307   4.847   6.842   9.466  0.2712  1.8594  3.8091
   72SLPC  C212 6308   4.995   6.868   9.308 -0.7840 -0.4861  0.0092
   72SLPC  H12R 6309   5.094   6.834   9.343  0.0953 -0.5790 -2.4826
   72SLPC  C213 6310   4.972   6.864   9.172 -0.3970 -0.7136  0.2104
   72SLPC  H13R 6311   5.036   6.811   9.100 -1.3563 -0.8983 -0.5330
   72SLPC  C214 6312   4.839   6.905   9.100 -0.7476 -0.0624  0.0645
   72SLPC  H14R 6313   4.756   6.898   9.174  2.1600  2.0968  3.7726
   72SLPC  H14S 6314   4.824   6.830   9.020 -0.6002 -0.0583  0.0319
   72SLPC  C215 6315   4.843   7.038   9.017 -0.4175  0.2462 -0.2998
   72SLPC  H15R 6316   4.892   7.123   9.069  2.1384 -1.4670  0.1763
   72SLPC  H15S 6317   4.745   7.074   8.980 -1.4305  2.2590  4.0177
   72SLPC  C216 6318   4.934   7.002   8.894  0.3216 -0.3413  0.1296
   72SLPC  H16R 6319   4.890   6.930   8.822 -0.7237  0.6646 -0.2563
   72SLPC  H16S 6320   5.024   6.955   8.939  1.4266  2.2953  0.7527
   72SLPC  C217 6321   4.995   7.111   8.809 -0.2553  0.4547 -0.5899
   72SLPC  H17R 6322   5.053   7.052   8.735 -0.9066 -0.1274 -0.6411
   72SLPC  H17S 6323   5.074   7.167   8.864  0.1538 -0.6061 -0.0794
   72SLPC  C218 6324   4.902   7.203   8.723  0.0776  0.5297 -1.0091
   72SLPC  H18R 6325   4.962   7.275   8.664  2.4193  0.9810  1.7936
   72SLPC  H18S 6326   4.850   7.265   8.799 -1.4032 -0.7581 -0.9307
   72SLPC  H18T 6327   4.841   7.133   8.661  3.4699 -2.4962 -1.0892
   72SLPC   C33 6328   5.503   6.816  10.046  0.2719 -0.2895  0.0827
   72SLPC   H3X 6329   5.613   6.802  10.049  0.2549 -0.0727  2.2255
   72SLPC   H3Y 6330   5.473   6.869  10.139 -0.3534 -2.2671  1.0560
   72SLPC   C34 6331   5.465   6.899   9.917  0.1433 -0.0681  0.0340
   72SLPC   H4X 6332   5.509   7.001   9.927 -1.2654  0.6379 -0.8440
   72SLPC   H4Y 6333   5.354   6.899   9.914  0.1598  0.6956 -0.6548
   72SLPC   C35 6334   5.525   6.842   9.785 -0.2649  0.1728 -0.6680
   72SLPC   H5X 6335   5.476   6.745   9.762  1.0016 -0.9429  1.1878
   72SLPC   H5Y 6336   5.633   6.822   9.805 -0.0988 -0.2304 -1.9041
   72SLPC   C36 6337   5.505   6.940   9.672  0.8198 -0.1041 -0.1114
   72SLPC   H6X 6338   5.576   7.023   9.691 -0.1953  0.4367  1.3420
   72SLPC   H6Y 6339   5.405   6.987   9.673  1.1321  0.5742 -0.3040
   72SLPC   C37 6340   5.527   6.882   9.531 -0.3130  0.4257  0.6699
   72SLPC   H7X 6341   5.472   6.785   9.533  0.2361  0.0855 -0.1675
   72SLPC   H7Y 6342   5.635   6.857   9.522 -0.0881  2.0792 -1.9041
   72SLPC   C38 6343   5.474   6.971   9.411  0.2991  0.9088  0.2774
   72SLPC   H8X 6344   5.523   7.071   9.410 -0.3087  1.2094  0.5136
   72SLPC   H8Y 6345   5.368   6.982   9.441  0.3083  0.6815  0.4011
   72SLPC   C39 6346   5.492   6.905   9.272 -0.1037 -0.2384 -0.7163
   72SLPC   H9X 6347   5.502   6.795   9.282  0.5988 -0.3632 -2.6512
   72SLPC   H9Y 6348   5.594   6.924   9.231 -0.5750 -0.3055 -1.9433
   72SLPC  C310 6349   5.394   6.947   9.166  0.1592 -0.1555 -0.1218
   72SLPC  H10X 6350   5.387   7.058   9.163 -0.4708 -0.2108 -1.0579
   72SLPC  H10Y 6351   5.300   6.892   9.188  0.1978 -0.2121 -0.1000
   72SLPC  C311 6352   5.439   6.898   9.026  0.1153  0.8769  0.1123
   72SLPC  H11X 6353   5.349   6.882   8.963  1.1796 -0.0001 -1.2238
   72SLPC  H11Y 6354   5.490   6.799   9.037  1.7898  1.7667  0.5005
   72SLPC  C312 6355   5.537   6.991   8.955  0.4493  1.0323 -0.2250
   72SLPC  H12X 6356   5.575   6.931   8.870 -1.5524 -1.0717  0.3167
   72SLPC  H12Y 6357   5.616   7.024   9.026  0.0308 -0.1770  0.8094
   72SLPC  C313 6358   5.472   7.112   8.886 -0.3794 -0.0794 -0.1455
   72SLPC  H13X 6359   5.559   7.170   8.849 -0.1162 -1.3321 -1.5675
   72SLPC  H13Y 6360   5.427   7.179   8.962  0.5092  1.3063 -0.8077
   72SLPC  C314 6361   5.355   7.087   8.792 -0.1878  0.3841  0.1039
   72SLPC  H14X 6362   5.307   7.179   8.753  0.2408  0.4353 -0.3218
   72SLPC  H14Y 6363   5.278   7.023   8.838  0.3651 -0.1953  0.2372
   72SLPC  C315 6364   5.394   7.005   8.666  0.0016 -0.0915  0.3872
   72SLPC  H15X 6365   5.306   6.994   8.599  1.0191 -1.3120 -0.7755
   72SLPC  H15Y 6366   5.424   6.899   8.687 -0.3669 -0.5703 -1.4425
   72SLPC  C316 6367   5.518   7.053   8.586  0.2505  0.1706  0.4454
   72SLPC  H16X 6368   5.535   6.961   8.526 -0.0759  2.2641 -2.9624
   72SLPC  H16Y 6369   5.602   7.061   8.658  0.5500  1.2291 -0.0190
   72SLPC  C317 6370   5.486   7.170   8.498  0.0990  0.1352 -0.1076
   72SLPC  H17X 6371   5.450   7.252   8.563  1.2247  0.5319  0.0369
   72SLPC  H17Y 6372   5.403   7.140   8.431 -0.7845 -0.1396  1.1053
   72SLPC  C318 6373   5.598   7.234   8.407 -0.7126  0.3515 -0.8077
   72SLPC  H18X 6374   5.690   7.262   8.463 -0.6897 -1.3893  0.0727
   72SLPC  H18Y 6375   5.568   7.323   8.348 -1.5835 -0.7830 -2.1194
   72SLPC  H18Z 6376   5.624   7.152   8.337  0.7426 -1.7390  2.0734
   73SLPC     N 6377   6.175   5.604  10.775 -0.1113 -0.5985  0.0440
   73SLPC   C13 6378   6.129   5.731  10.700  0.7530 -0.1987  0.3499
   73SLPC  H13A 6379   6.211   5.764  10.638 -0.3423  0.4263 -0.7936
   73SLPC  H13B 6380   6.042   5.697  10.646  0.4810 -1.2793  1.4473
   73SLPC  H13C 6381   6.116   5.810  10.771  0.3084  0.2397 -0.2181
   73SLPC   C14 6382   6.070   5.564  10.871 -0.6023  0.2804 -0.6848
   73SLPC  H14A 6383   5.979   5.531  10.825 -1.5203  0.8443  0.6744
   73SLPC  H14B 6384   6.102   5.478  10.928 -0.3073  0.3107 -0.8022
   73SLPC  H14C 6385   6.043   5.647  10.934 -0.2805  1.4726 -2.0908
   73SLPC   C15 6386   6.301   5.634  10.851  0.4937  0.3222  0.0426
   73SLPC  H15A 6387   6.291   5.716  10.921  1.8518  1.1164 -0.6632
   73SLPC  H15B 6388   6.326   5.543  10.903  2.8452 -0.1724 -1.8608
   73SLPC  H15C 6389   6.387   5.658  10.790  1.0594 -3.3367 -0.6642
   73SLPC   C12 6390   6.197   5.489  10.669  0.8690 -0.2072  0.6364
   73SLPC  H12A 6391   6.114   5.500  10.601  1.1895 -0.4931  0.1977
   73SLPC  H12B 6392   6.197   5.392  10.717  0.1525 -0.1128  0.8241
   73SLPC   C11 6393   6.328   5.490  10.584 -0.5063  0.7309 -0.5472
   73SLPC  H11A 6394   6.348   5.587  10.534 -0.0062  0.2166 -1.3546
   73SLPC  H11B 6395   6.314   5.416  10.503  0.6721  0.4047 -0.4611
   73SLPC     P 6396   6.480   5.319  10.709 -0.1597 -0.0367  0.1402
   73SLPC   O13 6397   6.619   5.317  10.750 -0.4898  0.1410 -0.0251
   73SLPC   O14 6398   6.376   5.259  10.789 -0.0662 -0.4808 -0.4313
   73SLPC   O12 6399   6.439   5.465  10.671 -0.0638  0.6904  0.1905
   73SLPC   O11 6400   6.480   5.250  10.560 -0.4338 -0.1333  0.0668
   73SLPC    C1 6401   6.592   5.288  10.473 -0.6262 -0.0840 -0.2467
   73SLPC    HA 6402   6.582   5.391  10.433  0.5301  0.3022  0.4548
   73SLPC    HB 6403   6.692   5.280  10.520 -1.1043 -1.1184  0.6202
   73SLPC    C2 6404   6.612   5.201  10.347 -0.7512 -0.4343  0.3629
   73SLPC    HS 6405   6.678   5.253  10.273  0.0093 -0.1564  1.2254
   73SLPC   O21 6406   6.489   5.175  10.276 -0.0594  0.2078  0.3593
   73SLPC   C21 6407   6.435   5.278  10.223 -1.0453 -0.2086 -0.4026
   73SLPC   O22 6408   6.483   5.392  10.221  0.6779 -0.0384 -0.0744
   73SLPC   C22 6409   6.307   5.237  10.148 -0.3603 -0.2327  0.8869
   73SLPC   H2R 6410   6.265   5.144  10.191  1.3117 -1.3524  0.1856
   73SLPC   H2S 6411   6.227   5.310  10.170  1.9044  1.5736  3.4207
   73SLPC    C3 6412   6.678   5.068  10.374 -0.0566  0.2724  0.0874
   73SLPC    HX 6413   6.621   5.033  10.463  0.9217  0.4446  0.7926
   73SLPC    HY 6414   6.782   5.077  10.412 -0.5042 -1.7434  1.9395
   73SLPC   O31 6415   6.673   4.969  10.266  0.5266 -0.0998 -0.2548
   73SLPC   C31 6416   6.598   4.861  10.287  0.4358  0.3413  0.8477
   73SLPC   O32 6417   6.529   4.837  10.385  0.1802  0.7300  0.0827
   73SLPC   C32 6418   6.609   4.777  10.162 -0.0146 -0.0121 -0.6786
   73SLPC   H2X 6419   6.581   4.674  10.192 -2.2363  0.6560 -0.3635
   73SLPC   H2Y 6420   6.709   4.782  10.113  0.4163  1.5511  0.3039
   73SLPC   C23 6421   6.331   5.214   9.996  0.5446  0.4828 -0.1084
   73SLPC   H3R 6422   6.394   5.123   9.983  0.5855  0.2522  1.5918
   73SLPC   H3S 6423   6.383   5.305   9.959  0.8854  0.4401  0.2583
   73SLPC   C24 6424   6.215   5.191   9.903  0.6723  0.6127 -0.4142
   73SLPC   H4R 6425   6.131   5.263   9.916  1.6869  1.3229  2.4904
   73SLPC   H4S 6426   6.169   5.098   9.941  0.2979  0.8023 -0.4104
   73SLPC   C25 6427   6.260   5.179   9.763 -0.2741 -0.1209  0.2454
   73SLPC   H5R 6428   6.326   5.096   9.730 -1.6164 -0.6623 -1.1270
   73SLPC   H5S 6429   6.316   5.270   9.734  0.1471 -0.3555  0.3271
   73SLPC   C26 6430   6.139   5.173   9.669  0.6009  0.4178 -0.4289
   73SLPC   H6R 6431   6.102   5.277   9.663 -1.5429 -0.1900  1.6625
   73SLPC   H6S 6432   6.068   5.095   9.705  1.2610 -0.1888 -0.4252
   73SLPC   C27 6433   6.183   5.120   9.523  1.1428  0.3816  0.7327
   73SLPC   H7R 6434   6.236   5.023   9.534 -2.2197 -1.5916  0.1548
   73SLPC   H7S 6435   6.251   5.199   9.483 -0.2468  2.1087  1.6787
   73SLPC   C28 6436   6.065   5.098   9.431  0.1125  0.2058  0.3974
   73SLPC   H8R 6437   6.118   5.102   9.334 -0.4861 -1.1778 -0.0001
   73SLPC   H8S 6438   6.010   5.193   9.447  0.0825  0.0937  0.9761
   73SLPC   C29 6439   5.980   4.972   9.450  0.1537 -1.1410 -0.0638
   73SLPC   H9R 6440   5.917   4.975   9.540  0.2127  1.4659 -0.0875
   73SLPC  C210 6441   5.987   4.859   9.378  0.0899  0.1051  0.0126
   73SLPC  H10R 6442   5.906   4.787   9.398  2.9327 -3.2381 -0.0748
   73SLPC  C211 6443   6.082   4.832   9.262 -0.4946  0.3278  0.2689
   73SLPC  H11R 6444   6.089   4.923   9.199  0.5170  1.3471  1.8415
   73SLPC  H11S 6445   6.025   4.755   9.204 -1.1822  1.5492 -0.7140
   73SLPC  C212 6446   6.219   4.786   9.301 -0.3001 -0.1229 -0.2405
   73SLPC  H12R 6447   6.240   4.784   9.409  0.7784  1.8588 -0.3829
   73SLPC  C213 6448   6.311   4.735   9.213 -0.5367  0.5005  0.5345
   73SLPC  H13R 6449   6.409   4.701   9.250 -0.9472 -0.9705  0.3004
   73SLPC  C214 6450   6.289   4.741   9.068 -0.3162  0.8152 -0.3208
   73SLPC  H14R 6451   6.385   4.741   9.011 -0.7285 -0.9967 -1.0524
   73SLPC  H14S 6452   6.226   4.828   9.041  0.4671  1.4344 -0.1720
   73SLPC  C215 6453   6.224   4.614   9.024 -0.0885 -0.3213 -0.6476
   73SLPC  H15R 6454   6.142   4.587   9.094 -0.4957  1.8142 -0.2534
   73SLPC  H15S 6455   6.296   4.530   9.026  0.8167  0.4725  0.7562
   73SLPC  C216 6456   6.176   4.617   8.881  0.3451  0.8468 -0.2739
   73SLPC  H16R 6457   6.254   4.656   8.813  0.9721  1.4042  0.7530
   73SLPC  H16S 6458   6.094   4.691   8.873 -0.4926  0.2363  2.0747
   73SLPC  C217 6459   6.160   4.474   8.816  0.4169 -0.1537  0.6315
   73SLPC  H17R 6460   6.266   4.439   8.815  0.1705 -0.8923 -1.6712
   73SLPC  H17S 6461   6.137   4.495   8.710 -0.2590  1.6489  1.1130
   73SLPC  C218 6462   6.061   4.380   8.885 -0.3636 -0.2326 -0.1213
   73SLPC  H18R 6463   6.092   4.362   8.990  3.3890 -1.2378 -1.3294
   73SLPC  H18S 6464   6.049   4.279   8.840  2.4925  0.5618 -2.8424
   73SLPC  H18T 6465   5.956   4.417   8.887  0.2920  1.8804 -1.8775
   73SLPC   C33 6466   6.511   4.827  10.061  0.2536  0.6654  0.6106
   73SLPC   H3X 6467   6.514   4.937  10.044  2.1710  0.3674 -1.1817
   73SLPC   H3Y 6468   6.416   4.811  10.115  0.2967 -2.5175 -0.1900
   73SLPC   C34 6469   6.514   4.752   9.930  0.1809 -0.5436  0.2162
   73SLPC   H4X 6470   6.498   4.643   9.938  1.0985 -0.8407 -1.7211
   73SLPC   H4Y 6471   6.612   4.757   9.879  0.1048  1.8307  0.2294
   73SLPC   C35 6472   6.401   4.796   9.831  0.3992  0.1618  0.1673
   73SLPC   H5X 6473   6.410   4.905   9.811  0.8708 -0.1141 -1.1778
   73SLPC   H5Y 6474   6.301   4.791   9.881  0.3199 -0.6780 -0.0696
   73SLPC   C36 6475   6.396   4.696   9.707 -0.6104 -0.0552 -0.4989
   73SLPC   H6X 6476   6.504   4.680   9.685 -0.5442 -0.7818  0.3463
   73SLPC   H6Y 6477   6.343   4.741   9.620 -0.3638 -0.3264 -0.7908
   73SLPC   C37 6478   6.318   4.560   9.739  0.1698  0.4463  0.5480
   73SLPC   H7X 6479   6.227   4.581   9.798  0.0729  3.5828 -0.6061
   73SLPC   H7Y 6480   6.383   4.495   9.801 -0.8713 -0.2006  0.9561
   73SLPC   C38 6481   6.267   4.484   9.612 -0.4916  0.0487 -0.1350
   73SLPC   H8X 6482   6.217   4.555   9.542  0.1480 -0.7669 -1.4380
   73SLPC   H8Y 6483   6.192   4.408   9.642 -0.4046  0.0048 -0.0255
   73SLPC   C39 6484   6.384   4.415   9.538  0.0267  0.0888  0.3658
   73SLPC   H9X 6485   6.383   4.310   9.573  0.3070  0.3869  1.2671
   73SLPC   H9Y 6486   6.480   4.458   9.575  1.9842 -0.8667 -3.3319
   73SLPC  C310 6487   6.394   4.420   9.380  0.0430 -0.6375  0.2590
   73SLPC  H10X 6488   6.435   4.521   9.355 -0.9821 -0.2749 -0.0088
   73SLPC  H10Y 6489   6.289   4.411   9.342 -0.5243  1.5397  1.2442
   73SLPC  C311 6490   6.478   4.319   9.311  0.2972 -0.2753 -0.5050
   73SLPC  H11X 6491   6.463   4.229   9.373  1.9564  1.1653  2.0516
   73SLPC  H11Y 6492   6.585   4.342   9.333  0.0913  1.1826 -0.9221
   73SLPC  C312 6493   6.447   4.295   9.166 -0.1187  0.0046  0.2239
   73SLPC  H12X 6494   6.503   4.372   9.109  2.2470 -1.2429  0.8202
   73SLPC  H12Y 6495   6.338   4.302   9.142  0.2656  0.9209 -1.3489
   73SLPC  C313 6496   6.508   4.163   9.108 -0.0143  0.5007 -0.2047
   73SLPC  H13X 6497   6.482   4.079   9.176 -1.4303  0.6678 -0.5211
   73SLPC  H13Y 6498   6.618   4.177   9.108  0.3481 -2.1557 -0.6926
   73SLPC  C314 6499   6.454   4.142   8.961 -1.0535  0.1220 -0.2869
   73SLPC  H14X 6500   6.504   4.211   8.890  0.3904  1.2734  1.8017
   73SLPC  H14Y 6501   6.348   4.176   8.958 -0.6645  1.4827  0.9315
   73SLPC  C315 6502   6.462   3.999   8.915  0.6441 -0.5352 -0.4400
   73SLPC  H15X 6503   6.367   3.959   8.957 -0.7315  0.7734 -2.2098
   73SLPC  H15Y 6504   6.548   3.951   8.965  0.1827  1.4682  2.4483
   73SLPC  C316 6505   6.483   3.992   8.766 -0.3467 -0.0689 -0.4257
   73SLPC  H16X 6506   6.593   3.987   8.753 -0.0832 -2.6933  2.2256
   73SLPC  H16Y 6507   6.443   4.074   8.702  2.5323  0.9006 -1.0644
   73SLPC  C317 6508   6.445   3.853   8.711  0.5991  0.9401 -0.0292
   73SLPC  H17X 6509   6.344   3.833   8.753  0.5767  0.3228 -0.3666
   73SLPC  H17Y 6510   6.507   3.780   8.768  3.4717  1.0985 -2.8051
   73SLPC  C318 6511   6.459   3.822   8.558 -0.3178  0.1847 -0.0886
   73SLPC  H18X 6512   6.413   3.906   8.502  0.7244  0.0713 -1.1329
   73SLPC  H18Y 6513   6.413   3.724   8.531 -0.6767  0.4597 -0.4809
   73SLPC  H18Z 6514   6.569   3.813   8.543 -0.3671  0.0823 -0.3958
   74SLPC     N 6515   6.491   0.184  10.503 -0.0082 -0.3698 -0.2063
   74SLPC   C13 6516   6.522   0.329  10.484 -0.4247 -0.4986 -0.8010
   74SLPC  H13A 6517   6.623   0.361  10.506 -0.8100  0.9294 -1.0469
   74SLPC  H13B 6518   6.510   0.351  10.379 -2.8581 -0.3951 -0.5217
   74SLPC  H13C 6519   6.457   0.375  10.557 -0.1761 -1.5752  0.1172
   74SLPC   C14 6520   6.354   0.156  10.456 -0.8263 -0.2071 -0.1819
   74SLPC  H14A 6521   6.273   0.210  10.503 -1.0081  0.2428 -1.0033
   74SLPC  H14B 6522   6.336   0.166  10.350 -0.0023 -0.9759 -0.3945
   74SLPC  H14C 6523   6.316   0.058  10.483  0.1216 -1.3949 -2.9707
   74SLPC   C15 6524   6.507   0.155  10.653 -0.0573 -0.0285  0.5760
   74SLPC  H15A 6525   6.438   0.212  10.712  0.5240 -1.4442  2.6922
   74SLPC  H15B 6526   6.503   0.048  10.671 -1.6963 -0.1979 -0.7081
   74SLPC  H15C 6527   6.602   0.190  10.691  0.0123 -0.5489  0.8883
   74SLPC   C12 6528   6.591   0.103  10.428  0.3064 -0.0551  0.1175
   74SLPC  H12A 6529   6.607   0.156  10.335 -1.6680 -2.1328 -1.4711
   74SLPC  H12B 6530   6.538   0.011  10.405 -2.3184  1.4282  0.0578
   74SLPC   C11 6531   6.727   0.076  10.499  0.8321  0.1848  0.0323
   74SLPC  H11A 6532   6.768   0.164  10.553 -1.4616  0.7162  0.9797
   74SLPC  H11B 6533   6.803   0.059  10.421 -0.5069  0.0931 -1.2773
   74SLPC     P 6534   6.675  -0.183  10.527  0.2659  0.5096  0.2565
   74SLPC   O13 6535   6.640  -0.263  10.646 -0.1862 -0.4898 -0.0147
   74SLPC   O14 6536   6.580  -0.193  10.410  0.3943 -0.0768 -0.6341
   74SLPC   O12 6537   6.693  -0.039  10.586 -0.4525 -0.6542  0.1389
   74SLPC   O11 6538   6.825  -0.207  10.484  0.6758 -0.3374 -0.1367
   74SLPC    C1 6539   6.871  -0.345  10.474  0.2637 -0.5714 -0.0551
   74SLPC    HA 6540   6.977  -0.360  10.505  0.1675 -1.6047 -0.2128
   74SLPC    HB 6541   6.812  -0.414  10.538 -0.9237  2.1411  1.8611
   74SLPC    C2 6542   6.860  -0.393  10.322 -0.3139  0.0851 -0.3688
   74SLPC    HS 6543   6.939  -0.469  10.304 -0.4685 -0.6065  1.7102
   74SLPC   O21 6544   6.877  -0.280  10.230  0.6800  0.0342 -0.5084
   74SLPC   C21 6545   6.988  -0.215  10.221  0.5958  0.3590  0.5246
   74SLPC   O22 6546   7.095  -0.250  10.264 -0.0146  0.0843 -0.2791
   74SLPC   C22 6547   6.974  -0.082  10.150 -0.4348 -1.0512 -0.2504
   74SLPC   H2R 6548   6.869  -0.048  10.150 -0.3866 -0.8815  1.0839
   74SLPC   H2S 6549   7.024  -0.006  10.213 -0.0429 -1.2717 -0.2876
   74SLPC    C3 6550   6.724  -0.468  10.292  0.0883  0.7004 -0.4362
   74SLPC    HX 6551   6.640  -0.396  10.284 -0.6546 -0.2269 -1.0838
   74SLPC    HY 6552   6.697  -0.531  10.379  0.3056  1.7249  0.3828
   74SLPC   O31 6553   6.737  -0.535  10.162 -0.0169 -0.4966  0.0330
   74SLPC   C31 6554   6.624  -0.546  10.084  0.1021 -0.8127  0.4768
   74SLPC   O32 6555   6.513  -0.517  10.125 -0.2656 -0.6725 -0.0301
   74SLPC   C32 6556   6.654  -0.612   9.953 -0.4830 -0.0449  0.2450
   74SLPC   H2X 6557   6.594  -0.705   9.946 -1.5637  0.5642  1.3786
   74SLPC   H2Y 6558   6.761  -0.640   9.965 -0.4631  0.8325  2.3644
   74SLPC   C23 6559   7.048  -0.071  10.018 -0.1373  0.2534  1.1435
   74SLPC   H3R 6560   7.153  -0.091  10.047  0.0497  0.3706  0.5482
   74SLPC   H3S 6561   7.054   0.034   9.981  0.0246 -1.4211 -3.9932
   74SLPC   C24 6562   6.995  -0.168   9.920  0.5236 -0.1073 -0.2401
   74SLPC   H4R 6563   6.889  -0.134   9.914  0.5096 -0.3882 -1.8571
   74SLPC   H4S 6564   6.995  -0.271   9.962  2.1456  0.7734  2.0483
   74SLPC   C25 6565   7.055  -0.163   9.785 -0.8531  0.2969 -0.1005
   74SLPC   H5R 6566   7.153  -0.213   9.802 -1.0991 -0.0012  0.4700
   74SLPC   H5S 6567   7.084  -0.065   9.743 -1.3118 -0.3293 -1.9543
   74SLPC   C26 6568   6.971  -0.228   9.672  0.1677  1.5127 -0.2386
   74SLPC   H6R 6569   6.914  -0.144   9.629 -1.4988  0.7516  0.4462
   74SLPC   H6S 6570   6.893  -0.284   9.727  0.3049  2.1061  0.5654
   74SLPC   C27 6571   7.043  -0.313   9.573 -0.1604  0.1789 -0.0987
   74SLPC   H7R 6572   7.040  -0.413   9.621 -0.5391  0.6449  0.8596
   74SLPC   H7S 6573   7.153  -0.300   9.563 -0.6084  1.6716 -3.8541
   74SLPC   C28 6574   6.982  -0.317   9.432 -0.1460  0.4603 -0.4023
   74SLPC   H8R 6575   6.871  -0.305   9.430 -0.5312 -2.3018  1.8538
   74SLPC   H8S 6576   7.009  -0.417   9.392  0.5848  1.0086 -1.2799
   74SLPC   C29 6577   7.050  -0.217   9.345 -0.0938  0.2801  0.1933
   74SLPC   H9R 6578   7.086  -0.131   9.403 -0.8834  1.0238 -0.4097
   74SLPC  C210 6579   7.058  -0.222   9.211  0.1817  0.1530  0.3963
   74SLPC  H10R 6580   7.110  -0.137   9.165 -1.6502  1.0546 -0.0757
   74SLPC  C211 6581   6.985  -0.328   9.123 -0.3675  0.2394 -0.7533
   74SLPC  H11R 6582   6.932  -0.404   9.184  1.4303  0.5220  1.2041
   74SLPC  H11S 6583   7.067  -0.378   9.067 -0.2201  0.2527 -0.5497
   74SLPC  C212 6584   6.900  -0.268   9.017 -0.1122  0.5033 -0.0761
   74SLPC  H12R 6585   6.795  -0.300   9.014  0.6129 -2.2070  1.1254
   74SLPC  C213 6586   6.925  -0.179   8.924 -0.0400 -0.0696 -0.2870
   74SLPC  H13R 6587   6.849  -0.152   8.848 -0.7716  0.2579  0.5553
   74SLPC  C214 6588   7.058  -0.110   8.895 -0.5599  0.9263 -0.3927
   74SLPC  H14R 6589   7.147  -0.146   8.951 -0.0376 -1.1121 -2.4425
   74SLPC  H14S 6590   7.055  -0.004   8.927  3.3419  1.1646 -0.5335
   74SLPC  C215 6591   7.066  -0.125   8.748 -0.2470 -0.1866  0.1183
   74SLPC  H15R 6592   6.984  -0.075   8.694  0.2731  1.9069  1.2247
   74SLPC  H15S 6593   7.077  -0.224   8.699  0.7159  1.0682 -2.2576
   74SLPC  C216 6594   7.190  -0.052   8.699  0.6311  0.1953 -0.1591
   74SLPC  H16R 6595   7.281  -0.111   8.722 -0.0632 -1.2791 -1.1591
   74SLPC  H16S 6596   7.198   0.046   8.751  0.2691  0.1869 -0.0903
   74SLPC  C217 6597   7.174  -0.022   8.549 -0.5413  0.6911 -0.4732
   74SLPC  H17R 6598   7.073   0.017   8.524 -1.1175 -1.5848 -1.8395
   74SLPC  H17S 6599   7.183  -0.119   8.495  0.0878  1.3141 -1.5144
   74SLPC  C218 6600   7.284   0.061   8.493 -0.3752  0.1516 -0.3120
   74SLPC  H18R 6601   7.288   0.166   8.531 -1.3258  0.0885 -0.0153
   74SLPC  H18S 6602   7.284   0.070   8.382 -4.0007  0.2138 -0.3755
   74SLPC  H18T 6603   7.383   0.027   8.529 -0.6105  0.8269  1.0165
   74SLPC   C33 6604   6.652  -0.512   9.838  0.2040  0.3283  0.4463
   74SLPC   H3X 6605   6.711  -0.556   9.755  0.8126 -0.1753  1.1323
   74SLPC   H3Y 6606   6.710  -0.425   9.876  1.2663  0.5038 -1.5087
   74SLPC   C34 6607   6.511  -0.466   9.797 -0.1528  0.3538  0.6066
   74SLPC   H4X 6608   6.461  -0.419   9.885 -0.4143 -0.2385  0.7821
   74SLPC   H4Y 6609   6.448  -0.554   9.771 -1.9429  1.4977  0.9583
   74SLPC   C35 6610   6.514  -0.356   9.687  0.1010  0.0868  0.1512
   74SLPC   H5X 6611   6.568  -0.271   9.733 -0.5312  1.0925 -0.9636
   74SLPC   H5Y 6612   6.409  -0.321   9.679 -1.0029 -2.7009  1.4547
   74SLPC   C36 6613   6.581  -0.386   9.554 -0.5489 -0.2927  0.5274
   74SLPC   H6X 6614   6.691  -0.371   9.558 -0.5085  0.3214 -2.2957
   74SLPC   H6Y 6615   6.550  -0.302   9.488  4.4707 -0.9748 -2.9827
   74SLPC   C37 6616   6.537  -0.514   9.481 -0.7067 -0.3084  0.4923
   74SLPC   H7X 6617   6.427  -0.516   9.499 -0.5492 -2.9670  1.3771
   74SLPC   H7Y 6618   6.579  -0.600   9.537  0.8828  1.3518  1.9315
   74SLPC   C38 6619   6.566  -0.522   9.329 -0.1806  0.1281 -0.5225
   74SLPC   H8X 6620   6.495  -0.597   9.288  0.0278  0.4572 -1.5055
   74SLPC   H8Y 6621   6.668  -0.550   9.296 -0.3847 -1.1849 -0.0856
   74SLPC   C39 6622   6.539  -0.392   9.251  0.3516 -0.0113  0.0822
   74SLPC   H9X 6623   6.613  -0.315   9.282 -0.3140  1.0790 -0.9843
   74SLPC   H9Y 6624   6.440  -0.352   9.280  0.8682  1.2028  0.2220
   74SLPC  C310 6625   6.554  -0.417   9.105  0.1275 -0.1045  0.1138
   74SLPC  H10X 6626   6.505  -0.511   9.072 -0.4312  0.4695 -0.7239
   74SLPC  H10Y 6627   6.657  -0.449   9.080  0.3386 -1.8798  3.0047
   74SLPC  C311 6628   6.512  -0.304   9.007  0.2336  0.6422 -0.1437
   74SLPC  H11X 6629   6.579  -0.216   9.015  1.3484 -0.0690 -1.3636
   74SLPC  H11Y 6630   6.405  -0.278   9.018 -0.0110 -0.2963 -0.2216
   74SLPC  C312 6631   6.537  -0.339   8.855  0.6386  0.3830 -0.1874
   74SLPC  H12X 6632   6.457  -0.411   8.829  0.9482 -0.4555  1.1122
   74SLPC  H12Y 6633   6.632  -0.397   8.868  1.3614  1.3997 -0.8518
   74SLPC  C313 6634   6.535  -0.217   8.767 -0.7414 -0.3524  0.4397
   74SLPC  H13X 6635   6.593  -0.132   8.808  0.3512 -0.0194 -1.7255
   74SLPC  H13Y 6636   6.429  -0.182   8.764 -1.0965 -1.5710 -2.1874
   74SLPC  C314 6637   6.567  -0.249   8.618 -0.5746 -0.2559 -1.0454
   74SLPC  H14X 6638   6.540  -0.158   8.560  0.7678 -0.4652 -2.0258
   74SLPC  H14Y 6639   6.497  -0.320   8.570 -1.3709 -0.5615  0.5435
   74SLPC  C315 6640   6.714  -0.266   8.585  0.4058 -0.3503  0.0176
   74SLPC  H15X 6641   6.753  -0.361   8.627  0.8637 -0.4184 -0.5519
   74SLPC  H15Y 6642   6.783  -0.190   8.625 -1.0888  1.8465 -1.4609
   74SLPC  C316 6643   6.742  -0.265   8.435 -0.2212  0.8697 -0.0453
   74SLPC  H16X 6644   6.696  -0.178   8.383 -2.1407 -0.5460 -0.8214
   74SLPC  H16Y 6645   6.679  -0.346   8.391  0.3459 -1.2976  2.9957
   74SLPC  C317 6646   6.892  -0.282   8.409  0.3116  0.5738  0.5824
   74SLPC  H17X 6647   6.940  -0.343   8.487 -2.3115 -1.1149  0.9411
   74SLPC  H17Y 6648   6.933  -0.179   8.414  1.3349  0.1563  0.7882
   74SLPC  C318 6649   6.913  -0.350   8.275 -0.3722  0.0232  0.0859
   74SLPC  H18X 6650   7.021  -0.365   8.256 -0.1707 -0.4863  1.5722
   74SLPC  H18Y 6651   6.883  -0.291   8.185 -1.1252 -1.4908 -0.6714
   74SLPC  H18Z 6652   6.872  -0.453   8.280 -0.4985  0.0582 -0.2116
   75SLPC     N 6653   5.197   2.674   6.431 -0.0595 -0.2905 -0.6298
   75SLPC   C13 6654   5.145   2.699   6.297 -0.2968 -0.1597 -0.0504
   75SLPC  H13A 6655   5.051   2.646   6.292  0.2606 -1.3349  1.6322
   75SLPC  H13B 6656   5.117   2.803   6.289  0.5623 -0.0284 -1.7271
   75SLPC  H13C 6657   5.213   2.665   6.221  0.3142  2.6960 -0.8284
   75SLPC   C14 6658   5.331   2.747   6.438 -0.5647 -0.6258  0.0696
   75SLPC  H14A 6659   5.405   2.728   6.361  0.4329  0.6295  0.6913
   75SLPC  H14B 6660   5.312   2.853   6.440 -0.3278 -0.5900  0.7589
   75SLPC  H14C 6661   5.370   2.723   6.536 -0.7509  1.5211  0.6803
   75SLPC   C15 6662   5.228   2.531   6.446 -0.0467 -0.3778  0.4482
   75SLPC  H15A 6663   5.294   2.489   6.371  0.3132  1.3219 -0.2013
   75SLPC  H15B 6664   5.274   2.504   6.540  0.3542  0.0120  0.3651
   75SLPC  H15C 6665   5.135   2.477   6.449 -1.2071  1.4586 -1.4261
   75SLPC   C12 6666   5.098   2.712   6.544  0.3739  0.1415  0.6056
   75SLPC  H12A 6667   5.148   2.682   6.635  0.9355  0.2321  0.3278
   75SLPC  H12B 6668   5.008   2.653   6.531  1.1884 -1.9910  3.9903
   75SLPC   C11 6669   5.047   2.862   6.553 -0.6174  0.2926  0.4221
   75SLPC  H11A 6670   4.985   2.877   6.644 -2.0194  0.8083 -0.6003
   75SLPC  H11B 6671   4.967   2.871   6.476  0.6818 -0.8800 -1.0920
   75SLPC     P 6672   5.220   3.031   6.649  0.1550 -0.4592 -0.0037
   75SLPC   O13 6673   5.344   3.087   6.592 -0.0215  0.0481  0.2880
   75SLPC   O14 6674   5.123   3.125   6.713 -0.0692  0.2234  0.1881
   75SLPC   O12 6675   5.146   2.962   6.526  0.2553  0.0774 -0.0635
   75SLPC   O11 6676   5.247   2.903   6.730 -0.1361  0.5081 -0.1897
   75SLPC    C1 6677   5.173   2.877   6.850  0.0086 -0.1940  0.8133
   75SLPC    HA 6678   5.064   2.891   6.834  0.6003 -0.2058 -4.0309
   75SLPC    HB 6679   5.199   2.770   6.863  3.2417  0.7113  2.2949
   75SLPC    C2 6680   5.218   2.958   6.975  0.8211  0.1472  0.5924
   75SLPC    HS 6681   5.202   3.067   6.959  1.0498 -0.2224 -2.4921
   75SLPC   O21 6682   5.362   2.946   6.981 -0.3781  0.7225 -0.0910
   75SLPC   C21 6683   5.425   3.042   7.049 -0.0290 -0.2908  0.7715
   75SLPC   O22 6684   5.367   3.147   7.079 -0.0606  0.0451  0.1546
   75SLPC   C22 6685   5.558   3.000   7.096 -0.6056 -0.2224 -0.3155
   75SLPC   H2R 6686   5.583   2.892   7.084 -0.1903 -0.6223  3.3686
   75SLPC   H2S 6687   5.634   3.044   7.028  0.9989 -0.8211  1.0431
   75SLPC    C3 6688   5.145   2.898   7.098 -0.6214  0.3341 -1.0901
   75SLPC    HX 6689   5.187   2.801   7.134  0.1845  1.1714  0.2531
   75SLPC    HY 6690   5.037   2.892   7.076 -0.4259  1.9202 -2.5556
   75SLPC   O31 6691   5.168   2.980   7.210 -0.0910 -0.7726 -0.3185
   75SLPC   C31 6692   5.084   3.074   7.239 -0.0214  0.3155 -1.3502
   75SLPC   O32 6693   4.987   3.110   7.176  0.0235  0.1733 -0.0368
   75SLPC   C32 6694   5.121   3.134   7.369 -0.1366 -0.2770 -0.0239
   75SLPC   H2X 6695   5.078   3.237   7.368 -1.3924 -0.6458  4.4336
   75SLPC   H2Y 6696   5.229   3.158   7.360 -0.3795  0.6528 -0.4930
   75SLPC   C23 6697   5.597   3.055   7.234 -0.7794  0.5324 -0.0155
   75SLPC   H3R 6698   5.586   3.165   7.228 -1.7116  0.3412 -2.2188
   75SLPC   H3S 6699   5.706   3.034   7.248 -0.8103 -0.8614 -1.6784
   75SLPC   C24 6700   5.526   2.992   7.342 -0.9317 -0.0205  0.0349
   75SLPC   H4R 6701   5.558   2.885   7.348 -1.7637 -0.3733 -1.4339
   75SLPC   H4S 6702   5.417   2.984   7.324 -0.5324  0.0395 -2.6785
   75SLPC   C25 6703   5.549   3.071   7.471 -0.2629  0.2927  0.2745
   75SLPC   H5R 6704   5.521   3.177   7.455  1.3616  0.5804 -0.8020
   75SLPC   H5S 6705   5.658   3.083   7.489 -0.2904  0.2959  0.4402
   75SLPC   C26 6706   5.481   3.009   7.596 -0.3953  0.1073 -1.1579
   75SLPC   H6R 6707   5.536   2.917   7.626 -0.1209  0.5999 -0.1200
   75SLPC   H6S 6708   5.382   2.972   7.563 -0.5925 -0.1794 -0.2678
   75SLPC   C27 6709   5.454   3.113   7.705  0.2744  0.3184  0.2660
   75SLPC   H7R 6710   5.393   3.193   7.657  0.0604  0.4231  0.7134
   75SLPC   H7S 6711   5.555   3.152   7.732 -0.3392  2.4116 -0.3241
   75SLPC   C28 6712   5.381   3.047   7.825  0.1973 -0.7309 -0.1241
   75SLPC   H8R 6713   5.406   2.939   7.819 -0.6952 -0.9705  0.3511
   75SLPC   H8S 6714   5.275   3.070   7.799 -0.0049 -0.5878  0.8051
   75SLPC   C29 6715   5.411   3.123   7.949  0.2000 -0.0134  0.2696
   75SLPC   H9R 6716   5.395   3.231   7.939 -0.7831 -0.2299 -0.6869
   75SLPC  C210 6717   5.447   3.076   8.071 -0.1558  0.6292  0.3227
   75SLPC  H10R 6718   5.459   3.150   8.151 -0.3011 -0.7381  1.6204
   75SLPC  C211 6719   5.464   2.934   8.131  0.4435  0.5198  0.4066
   75SLPC  H11R 6720   5.548   2.942   8.202  0.2578 -1.1368  0.8164
   75SLPC  H11S 6721   5.501   2.858   8.059 -1.7602 -0.0399 -0.1689
   75SLPC  C212 6722   5.341   2.878   8.201 -1.2772  0.6615  0.6859
   75SLPC  H12R 6723   5.270   2.825   8.137 -0.4472  0.2359  0.1203
   75SLPC  C213 6724   5.320   2.899   8.336  0.1626  0.0968 -0.6459
   75SLPC  H13R 6725   5.251   2.834   8.392  0.7600  0.5610  0.6530
   75SLPC  C214 6726   5.411   2.976   8.435 -0.4611 -0.3555  0.4534
   75SLPC  H14R 6727   5.344   3.036   8.500 -0.1600 -0.1956  0.6179
   75SLPC  H14S 6728   5.489   3.032   8.379 -0.8316  0.4091  0.6936
   75SLPC  C215 6729   5.492   2.872   8.518 -0.0875 -0.4014  0.9083
   75SLPC  H15R 6730   5.525   2.791   8.449 -0.7212 -0.3067  0.4893
   75SLPC  H15S 6731   5.424   2.822   8.590  0.7033  1.9357  3.3629
   75SLPC  C216 6732   5.607   2.940   8.597 -1.3191  0.9576  0.0693
   75SLPC  H16R 6733   5.678   2.998   8.534  0.8611 -0.4370  1.1930
   75SLPC  H16S 6734   5.656   2.850   8.640 -1.2450  0.9946  0.0641
   75SLPC  C217 6735   5.550   3.018   8.719 -0.4355 -0.0885  0.2411
   75SLPC  H17R 6736   5.465   2.961   8.762  0.3035 -2.6835 -1.5936
   75SLPC  H17S 6737   5.509   3.113   8.679 -0.7453 -1.6396 -3.3238
   75SLPC  C218 6738   5.652   3.061   8.824 -0.3987 -0.7025  0.7558
   75SLPC  H18R 6739   5.744   3.105   8.780 -1.0323 -0.0502  0.0766
   75SLPC  H18S 6740   5.673   2.980   8.897  2.0421  0.2888  1.2002
   75SLPC  H18T 6741   5.604   3.142   8.883  0.2450 -0.4179  0.8918
   75SLPC   C33 6742   5.093   3.047   7.495  0.2274  0.2442  0.3133
   75SLPC   H3X 6743   5.134   2.944   7.486 -1.3119 -0.3463 -0.0543
   75SLPC   H3Y 6744   5.148   3.096   7.578 -1.0771  0.9742  0.7625
   75SLPC   C34 6745   4.942   3.046   7.532  0.5146 -0.1831 -0.1557
   75SLPC   H4X 6746   4.893   2.964   7.476 -0.0534  0.2120 -0.2429
   75SLPC   H4Y 6747   4.890   3.133   7.486 -2.6713 -1.1496  1.4679
   75SLPC   C35 6748   4.914   3.033   7.680  0.1741 -0.1386  0.0719
   75SLPC   H5X 6749   4.998   3.066   7.745 -1.3417  0.4967  1.7392
   75SLPC   H5Y 6750   4.904   2.925   7.704  0.9814  0.7246  4.7773
   75SLPC   C36 6751   4.787   3.100   7.716 -0.0912  0.1033  0.1056
   75SLPC   H6X 6752   4.698   3.065   7.660 -1.3185  0.9433  1.4971
   75SLPC   H6Y 6753   4.787   3.207   7.684  0.7670  0.1060  0.0865
   75SLPC   C37 6754   4.741   3.088   7.859 -0.7907 -0.1684 -0.8918
   75SLPC   H7X 6755   4.802   3.144   7.932 -1.7939 -0.2407  0.0228
   75SLPC   H7Y 6756   4.741   2.984   7.899 -1.1291 -0.2384 -1.0646
   75SLPC   C38 6757   4.602   3.153   7.884 -0.1374  0.0564 -0.4897
   75SLPC   H8X 6758   4.518   3.087   7.851  0.0800 -0.0202 -0.8928
   75SLPC   H8Y 6759   4.601   3.251   7.832  0.9603  0.6317  0.5609
   75SLPC   C39 6760   4.577   3.180   8.035  0.0393 -0.1668 -0.2140
   75SLPC   H9X 6761   4.635   3.113   8.102 -0.4483  0.5623  0.9458
   75SLPC   H9Y 6762   4.468   3.171   8.058 -0.1767 -0.4052 -1.2896
   75SLPC  C310 6763   4.614   3.328   8.067 -0.1918  0.3274 -0.5444
   75SLPC  H10X 6764   4.526   3.394   8.046  0.7053  1.7346  0.0264
   75SLPC  H10Y 6765   4.687   3.361   7.990  0.5256 -0.0150 -0.0056
   75SLPC  C311 6766   4.679   3.355   8.198 -0.3709  0.8016 -0.9918
   75SLPC  H11X 6767   4.778   3.306   8.212 -0.5678  0.1845 -1.7451
   75SLPC  H11Y 6768   4.612   3.311   8.274  0.4235  1.4233  0.0870
   75SLPC  C312 6769   4.683   3.498   8.243  0.1158 -0.4159 -0.4609
   75SLPC  H12X 6770   4.577   3.531   8.245 -0.1617 -1.3545  2.3333
   75SLPC  H12Y 6771   4.736   3.564   8.171 -0.7061  2.9158  1.8564
   75SLPC  C313 6772   4.725   3.522   8.396  0.2511  0.5071  0.3792
   75SLPC  H13X 6773   4.836   3.519   8.408  0.4359 -1.8794 -1.4838
   75SLPC  H13Y 6774   4.689   3.426   8.439 -0.7013  0.9538  0.5945
   75SLPC  C314 6775   4.654   3.645   8.457 -0.6626  0.5411 -0.2701
   75SLPC  H14X 6776   4.545   3.643   8.435 -0.6047 -2.2626 -0.4409
   75SLPC  H14Y 6777   4.698   3.728   8.399 -1.6104  0.4624 -1.1097
   75SLPC  C315 6778   4.691   3.670   8.604 -0.2012 -0.0038  0.4276
   75SLPC  H15X 6779   4.643   3.765   8.637 -3.1739 -0.9927 -0.9526
   75SLPC  H15Y 6780   4.800   3.683   8.623  0.3229  0.8359 -2.7900
   75SLPC  C316 6781   4.666   3.560   8.710  0.1191  0.2365  0.2861
   75SLPC  H16X 6782   4.731   3.471   8.697 -0.1618  0.2807 -1.4782
   75SLPC  H16Y 6783   4.560   3.528   8.705 -0.1911  1.3645 -0.5538
   75SLPC  C317 6784   4.693   3.617   8.852  0.2277 -0.0703  0.0883
   75SLPC  H17X 6785   4.802   3.621   8.874 -0.0688 -0.9219  1.7947
   75SLPC  H17Y 6786   4.657   3.539   8.923  2.7302 -1.5108 -0.1705
   75SLPC  C318 6787   4.615   3.746   8.898 -0.8067 -0.3740  0.8602
   75SLPC  H18X 6788   4.507   3.728   8.879 -0.8640 -0.7717  1.5362
   75SLPC  H18Y 6789   4.655   3.839   8.853  0.1375 -1.2195 -0.0813
   75SLPC  H18Z 6790   4.623   3.763   9.007  2.1569  1.6685  0.3833
   76SLPC     N 6791   0.657   0.839   5.869 -0.6046 -0.5679 -0.1573
   76SLPC   C13 6792   0.518   0.780   5.877 -0.1113 -0.6618 -0.3595
   76SLPC  H13A 6793   0.514   0.684   5.926 -1.6878  0.7190  2.2797
   76SLPC  H13B 6794   0.457   0.839   5.944  1.0862  0.8913 -0.6044
   76SLPC  H13C 6795   0.464   0.774   5.783 -2.3057  2.2089  0.6302
   76SLPC   C14 6796   0.654   0.948   5.766  0.3046  0.0344 -0.9366
   76SLPC  H14A 6797   0.748   0.982   5.726 -0.4698  0.8039 -2.1204
   76SLPC  H14B 6798   0.591   0.920   5.683  0.1539 -1.4646 -0.3430
   76SLPC  H14C 6799   0.612   1.034   5.816 -3.7515 -1.9353 -0.7457
   76SLPC   C15 6800   0.745   0.733   5.828 -0.5372 -0.1146 -0.2260
   76SLPC  H15A 6801   0.711   0.693   5.734 -0.4067  2.1823 -1.2875
   76SLPC  H15B 6802   0.844   0.774   5.816 -0.5480 -0.6588 -2.3338
   76SLPC  H15C 6803   0.744   0.655   5.903 -0.4400 -1.5881 -1.7210
   76SLPC   C12 6804   0.694   0.891   6.013  0.0413  0.1902 -0.2904
   76SLPC  H12A 6805   0.800   0.914   6.016 -0.4553  2.3857  1.6004
   76SLPC  H12B 6806   0.671   0.810   6.080  1.5148 -1.9854 -2.3251
   76SLPC   C11 6807   0.626   1.024   6.065  0.6918 -0.1637  0.4476
   76SLPC  H11A 6808   0.615   1.029   6.175  0.4327  1.1456  0.3681
   76SLPC  H11B 6809   0.523   1.016   6.027  1.2331 -2.0061 -0.6838
   76SLPC     P 6810   0.726   1.257   6.103 -0.4173  0.0701  0.3538
   76SLPC   O13 6811   0.859   1.227   6.160 -0.5178 -0.3802 -0.0528
   76SLPC   O14 6812   0.721   1.382   6.025 -0.2619 -0.0514 -0.1379
   76SLPC   O12 6813   0.684   1.137   6.004 -0.5128  0.1132  0.3115
   76SLPC   O11 6814   0.622   1.267   6.219 -0.1507  0.1500  0.3876
   76SLPC    C1 6815   0.484   1.304   6.183  0.4762 -0.0975 -0.0052
   76SLPC    HA 6816   0.484   1.413   6.164 -0.3813  0.0795  0.9546
   76SLPC    HB 6817   0.446   1.256   6.090  0.8240  0.2561 -0.3299
   76SLPC    C2 6818   0.392   1.284   6.302 -0.2158  0.3586 -0.4812
   76SLPC    HS 6819   0.293   1.324   6.272 -0.4411 -0.0854 -0.3430
   76SLPC   O21 6820   0.459   1.347   6.416 -0.6136  0.3241 -0.0382
   76SLPC   C21 6821   0.383   1.412   6.504  0.2044 -0.3366 -0.4235
   76SLPC   O22 6822   0.260   1.424   6.500  0.2972  0.0168  0.8098
   76SLPC   C22 6823   0.475   1.459   6.628  0.4020  0.5694 -0.8785
   76SLPC   H2R 6824   0.568   1.401   6.644 -0.8210 -0.8681  1.3576
   76SLPC   H2S 6825   0.502   1.564   6.605  0.3790  0.1291 -3.0413
   76SLPC    C3 6826   0.369   1.127   6.331 -0.1425  0.0184 -0.7514
   76SLPC    HX 6827   0.465   1.073   6.341  0.6609  1.4784 -0.5731
   76SLPC    HY 6828   0.312   1.079   6.248 -1.3557  2.9795 -1.7276
   76SLPC   O31 6829   0.303   1.111   6.454 -0.2065  0.2086  0.2675
   76SLPC   C31 6830   0.171   1.129   6.448 -0.4897 -0.9817 -0.3902
   76SLPC   O32 6831   0.112   1.160   6.349 -0.4583 -0.3431  0.2815
   76SLPC   C32 6832   0.107   1.101   6.578 -0.0021 -0.1135  0.1106
   76SLPC   H2X 6833   0.001   1.123   6.556  0.1552  0.1069 -0.4253
   76SLPC   H2Y 6834   0.141   1.177   6.652 -1.9491  0.8442  0.0657
   76SLPC   C23 6835   0.385   1.457   6.760  0.1821 -0.4732 -0.1546
   76SLPC   H3R 6836   0.350   1.353   6.775  0.1781 -0.1634  2.3007
   76SLPC   H3S 6837   0.299   1.525   6.745  0.6839  0.2739  0.2985
   76SLPC   C24 6838   0.471   1.499   6.881 -0.1993 -0.6942  0.0516
   76SLPC   H4R 6839   0.517   1.600   6.874 -0.3314 -0.6180  0.2729
   76SLPC   H4S 6840   0.553   1.424   6.894 -0.9919 -1.5299  0.2946
   76SLPC   C25 6841   0.388   1.502   7.003 -0.5686 -0.5422  1.1947
   76SLPC   H5R 6842   0.334   1.405   7.010  0.8947 -1.3853  1.0765
   76SLPC   H5S 6843   0.307   1.577   6.994 -0.8781 -0.7305  2.3437
   76SLPC   C26 6844   0.469   1.546   7.129  0.2878  0.2162  0.1364
   76SLPC   H6R 6845   0.504   1.651   7.116 -0.1880  0.2474 -0.9849
   76SLPC   H6S 6846   0.564   1.493   7.151 -1.4925 -2.2034  2.3577
   76SLPC   C27 6847   0.392   1.528   7.259 -0.0260  0.7834  0.2307
   76SLPC   H7R 6848   0.423   1.431   7.304  0.8438  0.1875 -1.5943
   76SLPC   H7S 6849   0.282   1.525   7.243  0.0556 -1.1730 -0.2094
   76SLPC   C28 6850   0.415   1.651   7.356 -0.2941  0.8842  0.5131
   76SLPC   H8R 6851   0.401   1.745   7.299 -2.4795 -0.1028 -0.6343
   76SLPC   H8S 6852   0.333   1.638   7.430 -0.0040 -2.0497  0.3830
   76SLPC   C29 6853   0.546   1.648   7.415  0.8584 -0.0178  0.3960
   76SLPC   H9R 6854   0.630   1.682   7.353  2.0499  1.6806  2.8085
   76SLPC  C210 6855   0.568   1.585   7.532 -0.0087  0.2149 -0.1372
   76SLPC  H10R 6856   0.668   1.587   7.578 -0.9189  1.1720  1.8717
   76SLPC  C211 6857   0.461   1.512   7.610  0.4116  0.2621 -0.2270
   76SLPC  H11R 6858   0.511   1.428   7.662 -1.8178 -0.4896  0.7412
   76SLPC  H11S 6859   0.384   1.461   7.548  1.4552 -3.0909  1.1169
   76SLPC  C212 6860   0.380   1.605   7.702  0.3353  0.1253  0.3454
   76SLPC  H12R 6861   0.278   1.619   7.663 -0.2826 -2.9061  0.7335
   76SLPC  C213 6862   0.414   1.641   7.830 -0.3265 -0.4921 -0.7646
   76SLPC  H13R 6863   0.339   1.694   7.891  0.5452 -1.2664  1.0340
   76SLPC  C214 6864   0.540   1.593   7.901  0.5061  0.2269 -0.3371
   76SLPC  H14R 6865   0.588   1.689   7.928 -1.9527  1.5777 -0.5489
   76SLPC  H14S 6866   0.603   1.539   7.826 -2.1295 -2.3951 -0.7697
   76SLPC  C215 6867   0.530   1.532   8.033  0.3741  0.4483 -0.4365
   76SLPC  H15R 6868   0.632   1.510   8.071  0.4744 -0.8027 -1.4194
   76SLPC  H15S 6869   0.486   1.431   8.018  0.3782  0.4846 -0.6958
   76SLPC  C216 6870   0.458   1.620   8.139 -0.5591  0.0348 -0.1704
   76SLPC  H16R 6871   0.351   1.630   8.110 -0.9045 -5.6051 -1.5354
   76SLPC  H16S 6872   0.509   1.718   8.140  0.8411 -0.6752  1.2529
   76SLPC  C217 6873   0.466   1.552   8.274  0.1439  0.3902 -0.7602
   76SLPC  H17R 6874   0.573   1.525   8.289 -0.3806 -0.9991  0.5384
   76SLPC  H17S 6875   0.409   1.457   8.271 -0.3569  0.6246  1.1029
   76SLPC  C218 6876   0.423   1.647   8.382 -0.0479  0.6072 -0.4660
   76SLPC  H18R 6877   0.461   1.627   8.485 -2.7366 -1.2434  0.2144
   76SLPC  H18S 6878   0.312   1.649   8.377 -0.0137  1.8390 -0.7290
   76SLPC  H18T 6879   0.460   1.750   8.365  1.3410  0.0777 -0.7476
   76SLPC   C33 6880   0.141   0.965   6.644  0.9968 -0.5173 -0.3652
   76SLPC   H3X 6881   0.250   0.958   6.664  0.9714 -1.5231 -0.5625
   76SLPC   H3Y 6882   0.108   0.884   6.575  1.2124  0.5686 -1.7713
   76SLPC   C34 6883   0.060   0.934   6.763  0.0851  0.3748 -0.0837
   76SLPC   H4X 6884   0.075   0.825   6.781  0.9448  0.1381 -2.1576
   76SLPC   H4Y 6885  -0.050   0.948   6.757  0.2755  1.4924 -1.0415
   76SLPC   C35 6886   0.097   1.017   6.892  0.6418  0.4355  0.1645
   76SLPC   H5X 6887   0.093   1.126   6.872  0.4169  0.1270 -1.6042
   76SLPC   H5Y 6888   0.205   0.994   6.903  0.2358 -1.0546  1.2523
   76SLPC   C36 6889   0.011   0.971   7.010  0.0477 -0.0619 -0.6282
   76SLPC   H6X 6890   0.004   0.861   7.020  2.0356  0.0228  2.4902
   76SLPC   H6Y 6891  -0.082   1.029   7.028  0.1706 -1.4329  5.3999
   76SLPC   C37 6892   0.095   1.011   7.137  0.5296 -0.0325  0.0834
   76SLPC   H7X 6893   0.123   1.119   7.143 -1.3489  0.7964 -3.9272
   76SLPC   H7Y 6894   0.186   0.948   7.138  0.5800  0.0361 -0.0703
   76SLPC   C38 6895   0.020   0.986   7.266 -0.3306 -0.0824 -0.9240
   76SLPC   H8X 6896  -0.003   0.878   7.282 -2.1349  0.2509 -1.1324
   76SLPC   H8Y 6897  -0.083   1.027   7.262  0.1100  1.4061  1.6535
   76SLPC   C39 6898   0.090   1.045   7.393  0.0576  0.1402 -0.4036
   76SLPC   H9X 6899   0.124   1.149   7.372 -0.0297  0.2976  0.2467
   76SLPC   H9Y 6900   0.180   0.980   7.401  0.7984  1.5353  3.7556
   76SLPC  C310 6901   0.002   1.030   7.519 -0.1699 -0.5876  0.1527
   76SLPC  H10X 6902  -0.050   0.933   7.508 -1.7386  0.1817  0.6647
   76SLPC  H10Y 6903  -0.079   1.106   7.521 -1.4387 -1.9384  2.8481
   76SLPC  C311 6904   0.083   1.038   7.652 -0.1039 -0.3840 -0.3633
   76SLPC  H11X 6905   0.176   0.977   7.645  0.3618  0.3091 -0.3086
   76SLPC  H11Y 6906   0.027   0.995   7.738  0.0735  2.7847  1.4340
   76SLPC  C312 6907   0.121   1.185   7.682  0.5483  0.3945 -0.0997
   76SLPC  H12X 6908   0.110   1.248   7.591 -1.3657  0.1429 -0.0675
   76SLPC  H12Y 6909   0.228   1.186   7.711  0.4583  0.3734  0.2351
   76SLPC  C313 6910   0.038   1.238   7.802  0.2718  0.3871 -0.4893
   76SLPC  H13X 6911   0.063   1.176   7.891 -0.0353  2.0674  0.7971
   76SLPC  H13Y 6912  -0.071   1.229   7.781  0.2953 -0.8812 -0.0970
   76SLPC  C314 6913   0.062   1.383   7.843  0.1487 -0.0389 -0.7916
   76SLPC  H14X 6914   0.071   1.446   7.752 -1.0349 -0.7365 -1.4040
   76SLPC  H14Y 6915   0.155   1.383   7.904  1.3006  2.3628 -2.4856
   76SLPC  C315 6916  -0.043   1.439   7.944  0.1681 -0.3516  0.1695
   76SLPC  H15X 6917  -0.072   1.361   8.018  0.5842 -0.6520  0.0155
   76SLPC  H15Y 6918  -0.124   1.477   7.878  0.8335  0.4884 -0.1648
   76SLPC  C316 6919   0.015   1.554   8.025 -0.2174 -1.2863  0.3018
   76SLPC  H16X 6920  -0.059   1.635   8.039 -1.1632 -1.5283 -2.7740
   76SLPC  H16Y 6921   0.094   1.600   7.961 -0.4771 -1.3240 -0.0479
   76SLPC  C317 6922   0.077   1.523   8.160 -0.0582  0.0038  0.5141
   76SLPC  H17X 6923   0.108   1.617   8.210 -1.2890  0.3858  0.5522
   76SLPC  H17Y 6924   0.168   1.461   8.140 -1.0173 -1.1258 -0.4030
   76SLPC  C318 6925  -0.022   1.461   8.266  0.1396 -0.0717  1.0011
   76SLPC  H18X 6926  -0.115   1.521   8.274 -1.1040 -1.8539  0.3527
   76SLPC  H18Y 6927   0.030   1.447   8.363  0.6190  2.1013  1.0669
   76SLPC  H18Z 6928  -0.059   1.363   8.229  1.5624 -0.9179  1.7339
   77SLPC     N 6929   2.569   1.178   6.294 -0.1246  0.0829 -0.0217
   77SLPC   C13 6930   2.713   1.202   6.332  0.5871  0.4121 -0.2616
   77SLPC  H13A 6931   2.778   1.117   6.313  0.7654  1.0472 -2.6449
   77SLPC  H13B 6932   2.753   1.294   6.292 -1.0232  1.1664 -0.1676
   77SLPC  H13C 6933   2.716   1.225   6.437 -0.3551  2.3789 -0.6447
   77SLPC   C14 6934   2.556   1.166   6.140  0.6706 -0.3763 -0.9020
   77SLPC  H14A 6935   2.580   1.258   6.090  0.7486 -0.1760 -0.5024
   77SLPC  H14B 6936   2.616   1.087   6.096  0.8517 -2.6931  3.2081
   77SLPC  H14C 6937   2.456   1.139   6.110  0.1488  0.9100 -0.3585
   77SLPC   C15 6938   2.487   1.295   6.332 -0.2058  0.3647  0.8148
   77SLPC  H15A 6939   2.502   1.317   6.437  1.3696  1.4077  0.4024
   77SLPC  H15B 6940   2.512   1.378   6.266 -0.4550 -1.9759 -2.3268
   77SLPC  H15C 6941   2.380   1.286   6.326 -0.2203  1.1615 -0.3468
   77SLPC   C12 6942   2.502   1.061   6.361 -0.0014 -0.1492  0.2523
   77SLPC  H12A 6943   2.555   0.972   6.332  0.3068 -0.2765  1.1874
   77SLPC  H12B 6944   2.403   1.060   6.316 -0.1792  0.8385  0.6028
   77SLPC   C11 6945   2.489   1.059   6.520  0.1197 -0.2646 -0.3219
   77SLPC  H11A 6946   2.421   0.977   6.552 -1.9069  2.3018  2.2404
   77SLPC  H11B 6947   2.446   1.156   6.555 -0.5337  0.1083 -2.1083
   77SLPC     P 6948   2.694   0.933   6.617  0.0758 -0.1696 -0.3726
   77SLPC   O13 6949   2.633   0.820   6.548  0.1471  0.4979  0.4667
   77SLPC   O14 6950   2.838   0.962   6.601 -0.4744  0.0992  0.1987
   77SLPC   O12 6951   2.621   1.066   6.573  0.0751 -0.1067 -0.2957
   77SLPC   O11 6952   2.670   0.924   6.776 -0.4794  0.3459  0.1286
   77SLPC    C1 6953   2.667   1.046   6.855 -1.3566  0.2662  0.3515
   77SLPC    HA 6954   2.658   1.140   6.795 -0.7820 -0.5180 -0.9897
   77SLPC    HB 6955   2.583   1.050   6.927 -0.9464  3.0167  0.7257
   77SLPC    C2 6956   2.803   1.062   6.930 -0.2503  0.5695  0.1399
   77SLPC    HS 6957   2.874   1.064   6.845  0.7478 -4.2947  0.7138
   77SLPC   O21 6958   2.821   0.943   7.010  0.5296  0.2649 -0.6315
   77SLPC   C21 6959   2.946   0.896   7.021  0.1000  0.0226 -0.1851
   77SLPC   O22 6960   3.037   0.925   6.946  0.1381  0.2224 -0.3606
   77SLPC   C22 6961   2.951   0.802   7.140  0.1051  0.1099  0.4336
   77SLPC   H2R 6962   2.923   0.861   7.230  0.5476  1.0638 -0.0461
   77SLPC   H2S 6963   2.880   0.717   7.129  0.6389 -0.3523  0.5445
   77SLPC    C3 6964   2.802   1.193   7.010 -0.5118  0.3827  0.0752
   77SLPC    HX 6965   2.794   1.279   6.940 -2.3014  0.2812  0.1207
   77SLPC    HY 6966   2.899   1.200   7.064  0.4532  0.6357 -1.6468
   77SLPC   O31 6967   2.680   1.195   7.087 -0.0866 -0.0680  0.0961
   77SLPC   C31 6968   2.694   1.139   7.207  0.3734 -0.1164 -0.5243
   77SLPC   O32 6969   2.800   1.099   7.250  0.1677 -0.0303 -0.3853
   77SLPC   C32 6970   2.560   1.141   7.289  0.8922  0.1067 -0.3853
   77SLPC   H2X 6971   2.526   1.037   7.308 -1.0558  0.8670  0.3990
   77SLPC   H2Y 6972   2.483   1.184   7.222  1.3495  0.7629 -0.4959
   77SLPC   C23 6973   3.098   0.745   7.152  0.7863 -0.6152  0.1602
   77SLPC   H3R 6974   3.169   0.829   7.133  0.9521 -0.1678  2.6150
   77SLPC   H3S 6975   3.114   0.664   7.079 -2.5390 -0.7140 -0.5188
   77SLPC   C24 6976   3.129   0.706   7.299 -0.7469  0.4326 -0.6502
   77SLPC   H4R 6977   3.078   0.780   7.364 -1.5140 -0.8473  0.2090
   77SLPC   H4S 6978   3.238   0.704   7.320 -0.5373  3.6289 -1.2001
   77SLPC   C25 6979   3.074   0.565   7.334  0.3350 -0.1127 -0.4963
   77SLPC   H5R 6980   3.115   0.489   7.264 -0.1911  0.3905 -1.3683
   77SLPC   H5S 6981   2.964   0.580   7.339  0.3916  1.9823 -3.8045
   77SLPC   C26 6982   3.108   0.525   7.472  0.6502 -0.0869  0.1623
   77SLPC   H6R 6983   3.057   0.592   7.544  1.9630  0.5009  0.5665
   77SLPC   H6S 6984   3.219   0.526   7.486  0.4851  2.3268  1.3328
   77SLPC   C27 6985   3.057   0.386   7.509 -0.3384  0.6397  0.0221
   77SLPC   H7R 6986   3.092   0.311   7.435 -0.8606 -1.2007  1.6186
   77SLPC   H7S 6987   2.947   0.398   7.500 -0.4955  0.6327  1.7560
   77SLPC   C28 6988   3.071   0.338   7.652 -0.0655 -0.3152  0.2434
   77SLPC   H8R 6989   3.172   0.369   7.686  0.3624  0.7669 -1.8803
   77SLPC   H8S 6990   3.071   0.228   7.638 -2.1094 -0.5423  1.8333
   77SLPC   C29 6991   2.967   0.383   7.748  0.3050  0.4143  0.4883
   77SLPC   H9R 6992   2.872   0.331   7.729  1.0895 -0.6192 -0.6030
   77SLPC  C210 6993   2.980   0.474   7.850 -0.2241  0.2934 -0.3416
   77SLPC  H10R 6994   2.886   0.489   7.906 -0.0439  1.1660 -0.2680
   77SLPC  C211 6995   3.105   0.554   7.888 -0.3766 -0.0789  0.2295
   77SLPC  H11R 6996   3.134   0.609   7.796  3.7144 -0.0638  1.3896
   77SLPC  H11S 6997   3.193   0.489   7.905  1.0230  1.8321  0.5531
   77SLPC  C212 6998   3.086   0.662   7.995 -0.8569 -0.3444 -0.7569
   77SLPC  H12R 6999   2.999   0.723   7.969 -0.1283  1.0995  0.1334
   77SLPC  C213 7000   3.160   0.676   8.108 -0.3594 -0.4050 -0.4009
   77SLPC  H13R 7001   3.134   0.755   8.180  1.0939  0.8384 -1.2143
   77SLPC  C214 7002   3.268   0.594   8.161  0.0643  0.5499 -0.3527
   77SLPC  H14R 7003   3.357   0.653   8.133 -1.8610  4.3449  1.1954
   77SLPC  H14S 7004   3.269   0.492   8.117  0.8648  0.7921 -0.9061
   77SLPC  C215 7005   3.275   0.571   8.313 -0.1090 -0.4974 -0.3271
   77SLPC  H15R 7006   3.343   0.489   8.345 -2.2262 -2.0654  0.3448
   77SLPC  H15S 7007   3.179   0.527   8.348 -2.0094  4.2056  0.7824
   77SLPC  C216 7008   3.308   0.705   8.397 -0.3541 -0.7399 -0.1792
   77SLPC  H16R 7009   3.224   0.777   8.388 -1.0052 -0.9215  3.7330
   77SLPC  H16S 7010   3.397   0.754   8.353  0.7374 -1.3132  1.3407
   77SLPC  C217 7011   3.346   0.674   8.546  0.1540 -0.2912  0.7239
   77SLPC  H17R 7012   3.367   0.773   8.593  1.4330 -0.2204  0.0380
   77SLPC  H17S 7013   3.443   0.620   8.551 -0.0484 -0.7559 -0.1496
   77SLPC  C218 7014   3.253   0.595   8.621 -0.0442 -0.0690  0.2998
   77SLPC  H18R 7015   3.153   0.641   8.608 -0.5068 -0.7353  1.4927
   77SLPC  H18S 7016   3.273   0.589   8.730 -1.9943  0.5494  0.7071
   77SLPC  H18T 7017   3.236   0.496   8.574 -2.2320  0.7423 -0.7046
   77SLPC   C33 7018   2.574   1.208   7.427 -0.0838 -0.9870  0.2582
   77SLPC   H3X 7019   2.519   1.304   7.433  1.3816  0.1098 -2.9791
   77SLPC   H3Y 7020   2.680   1.233   7.450 -0.6076 -0.0948  1.8277
   77SLPC   C34 7021   2.523   1.116   7.548  0.2209  0.2702 -0.0445
   77SLPC   H4X 7022   2.580   1.021   7.551  0.6277  0.5392  1.1972
   77SLPC   H4Y 7023   2.417   1.085   7.534  0.1359 -0.2381  1.5908
   77SLPC   C35 7024   2.552   1.179   7.683  0.4188  1.2262  0.0358
   77SLPC   H5X 7025   2.550   1.289   7.673 -0.9152  1.1430 -0.7876
   77SLPC   H5Y 7026   2.652   1.147   7.719  1.6596  2.2480 -2.3615
   77SLPC   C36 7027   2.438   1.138   7.777 -1.0203  0.3654 -0.4386
   77SLPC   H6X 7028   2.443   1.028   7.788 -0.1946  0.3102 -1.2976
   77SLPC   H6Y 7029   2.337   1.168   7.743 -0.4961  1.3179 -1.1940
   77SLPC   C37 7030   2.452   1.202   7.923 -0.2736  0.4337 -0.1821
   77SLPC   H7X 7031   2.433   1.311   7.920 -1.9055  0.1487 -0.4395
   77SLPC   H7Y 7032   2.558   1.189   7.953 -0.0084 -1.7122 -1.8269
   77SLPC   C38 7033   2.369   1.126   8.022  0.5511 -0.3564 -0.0882
   77SLPC   H8X 7034   2.411   1.028   8.052  0.7572  0.0956  1.0954
   77SLPC   H8Y 7035   2.274   1.092   7.976  0.3557 -1.1275  0.8850
   77SLPC   C39 7036   2.345   1.203   8.150  0.8170  0.3415 -1.0003
   77SLPC   H9X 7037   2.300   1.301   8.126 -1.4482 -0.3481  0.3372
   77SLPC   H9Y 7038   2.445   1.223   8.196 -0.4341 -0.5188  2.2217
   77SLPC  C310 7039   2.271   1.123   8.259 -0.1652 -0.8748  0.6751
   77SLPC  H10X 7040   2.181   1.087   8.204  0.3703  0.3939 -1.0441
   77SLPC  H10Y 7041   2.221   1.191   8.331 -3.8551 -0.7019 -1.8808
   77SLPC  C311 7042   2.357   1.012   8.325  0.3212 -0.0861 -0.7196
   77SLPC  H11X 7043   2.436   1.059   8.387  1.9631  0.0892 -2.8494
   77SLPC  H11Y 7044   2.404   0.953   8.242  0.8383  0.5055 -0.8487
   77SLPC  C312 7045   2.280   0.918   8.422  0.4231  0.1858 -0.4092
   77SLPC  H12X 7046   2.352   0.853   8.475 -1.3323  0.3116  2.2064
   77SLPC  H12Y 7047   2.215   0.843   8.371  0.6646  1.1015 -2.0741
   77SLPC  C313 7048   2.197   0.991   8.525 -0.2231 -0.4876  0.0662
   77SLPC  H13X 7049   2.124   1.066   8.486 -0.5652 -0.3679  0.9331
   77SLPC  H13Y 7050   2.270   1.053   8.581 -0.9980  1.7951 -1.3772
   77SLPC  C314 7051   2.126   0.891   8.616  0.1450 -0.0889  0.3512
   77SLPC  H14X 7052   2.195   0.810   8.648 -0.9254 -1.4063 -0.6190
   77SLPC  H14Y 7053   2.047   0.832   8.565  0.5627 -0.3899  0.0448
   77SLPC  C315 7054   2.069   0.952   8.748  0.0131 -0.4968  0.2063
   77SLPC  H15X 7055   2.011   1.045   8.730  3.1971  1.7251  0.8958
   77SLPC  H15Y 7056   2.159   0.995   8.798 -0.0319 -0.5566  0.3390
   77SLPC  C316 7057   1.986   0.858   8.834 -0.4389 -0.8629  0.5581
   77SLPC  H16X 7058   2.045   0.778   8.884 -2.2801  0.0349  4.3044
   77SLPC  H16Y 7059   1.915   0.801   8.771  1.0075 -2.6499  0.4956
   77SLPC  C317 7060   1.902   0.934   8.940  0.2657  0.3041  0.1890
   77SLPC  H17X 7061   1.821   0.862   8.965  0.6794  0.0453  0.7949
   77SLPC  H17Y 7062   1.850   1.024   8.901  1.1236  1.2288  1.1278
   77SLPC  C318 7063   1.980   0.978   9.061  0.0235 -0.1278 -0.1048
   77SLPC  H18X 7064   2.072   1.036   9.037 -0.9609  2.0399  1.2407
   77SLPC  H18Y 7065   2.006   0.876   9.097  0.8321  1.0693  2.8034
   77SLPC  H18Z 7066   1.929   1.039   9.138 -0.2508 -0.8599  0.2980
   78SLPC     N 7067   5.662   1.595   6.186 -0.0939 -0.1545 -0.7766
   78SLPC   C13 7068   5.766   1.478   6.195  0.8265 -0.4309  0.9765
   78SLPC  H13A 7069   5.792   1.485   6.299 -2.1374  0.6299  1.6995
   78SLPC  H13B 7070   5.727   1.379   6.177  0.0241 -0.2313  1.5829
   78SLPC  H13C 7071   5.855   1.510   6.144 -0.0074  1.2213  0.5370
   78SLPC   C14 7072   5.640   1.622   6.042 -0.0081  0.0889 -0.3741
   78SLPC  H14A 7073   5.727   1.672   6.002 -0.4553  2.3184  1.3439
   78SLPC  H14B 7074   5.624   1.531   5.986 -2.1333  0.0036  0.3291
   78SLPC  H14C 7075   5.561   1.692   6.020  1.1484  1.8737  1.0430
   78SLPC   C15 7076   5.700   1.716   6.255 -0.0944  0.0741 -0.1514
   78SLPC  H15A 7077   5.619   1.788   6.249 -0.7756 -0.7407 -0.8229
   78SLPC  H15B 7078   5.716   1.703   6.361 -1.5011  4.8116  0.7661
   78SLPC  H15C 7079   5.796   1.760   6.232 -0.4528  1.5259  0.9996
   78SLPC   C12 7080   5.530   1.551   6.247 -0.2615  0.3628  0.1352
   78SLPC  H12A 7081   5.550   1.525   6.350 -0.6349 -0.3322  0.0331
   78SLPC  H12B 7082   5.506   1.457   6.199 -0.6067  0.6006 -0.1642
   78SLPC   C11 7083   5.406   1.641   6.233 -0.4750 -0.9322 -0.2980
   78SLPC  H11A 7084   5.311   1.584   6.240 -0.6918 -0.5896 -0.4449
   78SLPC  H11B 7085   5.418   1.689   6.134  0.5515  3.4560  1.8432
   78SLPC     P 7086   5.391   1.708   6.479 -0.5673 -0.2073 -0.2232
   78SLPC   O13 7087   5.297   1.599   6.491  0.5442  0.0052  0.4189
   78SLPC   O14 7088   5.529   1.675   6.529 -0.2793  0.0389  0.4432
   78SLPC   O12 7089   5.401   1.751   6.327 -0.1079 -0.0391 -0.2571
   78SLPC   O11 7090   5.323   1.828   6.550 -0.1251 -0.2425 -0.0092
   78SLPC    C1 7091   5.376   1.945   6.615 -0.9017  1.0410 -0.2959
   78SLPC    HA 7092   5.487   1.932   6.612 -0.9163  0.7510  0.3147
   78SLPC    HB 7093   5.360   2.036   6.553 -0.2407  1.3925  0.0403
   78SLPC    C2 7094   5.325   1.953   6.757 -0.3870 -0.0755  0.7350
   78SLPC    HS 7095   5.350   2.056   6.790 -2.1952  1.6007 -2.7786
   78SLPC   O21 7096   5.375   1.847   6.837  0.6487 -0.3529 -0.0872
   78SLPC   C21 7097   5.500   1.869   6.881 -0.0669  0.0043 -0.7460
   78SLPC   O22 7098   5.560   1.974   6.885 -0.6456 -0.5025  0.2009
   78SLPC   C22 7099   5.567   1.736   6.919 -0.0353  0.0628  0.0328
   78SLPC   H2R 7100   5.513   1.659   6.861  1.6922 -1.0675 -0.1175
   78SLPC   H2S 7101   5.666   1.743   6.868 -0.4987  0.5230 -0.8140
   78SLPC    C3 7102   5.172   1.967   6.767  0.0755  0.3977  0.3432
   78SLPC    HX 7103   5.131   1.863   6.760  2.5970 -0.5017 -2.4214
   78SLPC    HY 7104   5.126   2.024   6.683 -0.5320 -0.9014 -0.2279
   78SLPC   O31 7105   5.120   2.014   6.893  0.6854  0.4539  0.0032
   78SLPC   C31 7106   5.109   2.146   6.903 -0.4480  0.1452 -0.1784
   78SLPC   O32 7107   5.131   2.225   6.814  0.1928 -0.0195  0.1070
   78SLPC   C32 7108   5.067   2.180   7.050 -0.4848 -0.5526  0.5665
   78SLPC   H2X 7109   4.967   2.135   7.063 -2.0876  2.4315 -0.8543
   78SLPC   H2Y 7110   5.069   2.291   7.045 -1.2407 -0.5885 -0.6264
   78SLPC   C23 7111   5.584   1.710   7.078  0.0854  0.2636 -0.0864
   78SLPC   H3R 7112   5.636   1.612   7.086  1.3242  0.7344 -2.0796
   78SLPC   H3S 7113   5.475   1.704   7.101 -0.5387 -0.0542 -2.9527
   78SLPC   C24 7114   5.661   1.817   7.156 -0.3329 -0.3456 -0.3268
   78SLPC   H4R 7115   5.617   1.918   7.145  0.1846 -0.0306  0.4927
   78SLPC   H4S 7116   5.753   1.823   7.095 -1.9545  3.3137 -2.6016
   78SLPC   C25 7117   5.696   1.791   7.302  0.5250 -0.3210  0.5880
   78SLPC   H5R 7118   5.721   1.891   7.343  0.4719 -0.1770  0.2765
   78SLPC   H5S 7119   5.782   1.724   7.322 -0.1730 -2.0816 -2.0416
   78SLPC   C26 7120   5.578   1.754   7.391 -0.1069 -0.3525  0.1152
   78SLPC   H6R 7121   5.532   1.660   7.353 -1.0943 -0.3864  1.3609
   78SLPC   H6S 7122   5.514   1.843   7.376  1.1449  0.3657 -1.1311
   78SLPC   C27 7123   5.617   1.726   7.539 -0.3397 -0.5945  0.2124
   78SLPC   H7R 7124   5.664   1.818   7.580 -0.8920  0.8922 -2.3703
   78SLPC   H7S 7125   5.693   1.645   7.526  0.2536  0.4386 -3.3148
   78SLPC   C28 7126   5.504   1.674   7.637  0.8584  0.1107  0.4956
   78SLPC   H8R 7127   5.563   1.627   7.719 -1.9157 -1.2038  1.8121
   78SLPC   H8S 7128   5.456   1.604   7.565 -1.4837  0.2961  1.8131
   78SLPC   C29 7129   5.409   1.790   7.684  0.1089 -0.6719  0.4706
   78SLPC   H9R 7130   5.350   1.844   7.609  0.3023  2.2503  2.3376
   78SLPC  C210 7131   5.368   1.827   7.804  0.0669 -0.8545  0.0976
   78SLPC  H10R 7132   5.305   1.917   7.807  1.6403  0.2591  0.4145
   78SLPC  C211 7133   5.406   1.764   7.935 -0.9782 -0.0146  0.0485
   78SLPC  H11R 7134   5.434   1.849   8.001  1.5529 -1.2460  0.6265
   78SLPC  H11S 7135   5.496   1.701   7.916 -0.1090  1.0141  0.6615
   78SLPC  C212 7136   5.301   1.673   7.994  0.2112 -0.2900  0.0370
   78SLPC  H12R 7137   5.310   1.565   7.976 -0.3581 -0.2067 -0.7665
   78SLPC  C213 7138   5.193   1.703   8.072  0.3885 -0.1442  0.8080
   78SLPC  H13R 7139   5.122   1.622   8.095  2.2782 -1.8790  0.6212
   78SLPC  C214 7140   5.159   1.840   8.103  0.3237 -0.2531  0.0759
   78SLPC  H14R 7141   5.056   1.875   8.081  0.4733 -0.0957 -0.3941
   78SLPC  H14S 7142   5.226   1.905   8.042 -1.8519  0.7032 -1.3844
   78SLPC  C215 7143   5.189   1.868   8.249  0.6190 -0.2220 -0.3185
   78SLPC  H15R 7144   5.297   1.854   8.271  0.3262 -0.4573  1.0023
   78SLPC  H15S 7145   5.124   1.805   8.313  0.6157 -0.7941 -0.8794
   78SLPC  C216 7146   5.159   2.010   8.285 -0.4462 -0.0583 -0.2242
   78SLPC  H16R 7147   5.051   2.032   8.270 -0.8172 -0.4321  1.7984
   78SLPC  H16S 7148   5.224   2.072   8.220 -0.2306  0.5872  0.6157
   78SLPC  C217 7149   5.200   2.046   8.427  0.7732  0.0098  0.1784
   78SLPC  H17R 7150   5.171   1.973   8.505  1.1754 -1.7231 -1.2821
   78SLPC  H17S 7151   5.153   2.142   8.456  0.8031 -0.0051  0.2757
   78SLPC  C218 7152   5.358   2.061   8.446 -0.0934 -0.6078 -1.0356
   78SLPC  H18R 7153   5.414   1.965   8.440  2.3378  0.6074  1.1784
   78SLPC  H18S 7154   5.386   2.113   8.540 -0.7393 -1.1899 -0.5093
   78SLPC  H18T 7155   5.384   2.135   8.367 -3.3800  2.0194  0.1750
   78SLPC   C33 7156   5.167   2.141   7.168  0.9618 -0.7182  0.0921
   78SLPC   H3X 7157   5.268   2.181   7.150  1.5989 -2.0070  0.7334
   78SLPC   H3Y 7158   5.185   2.032   7.180  3.0336 -0.3328  0.7167
   78SLPC   C34 7159   5.112   2.185   7.299 -0.0553 -0.2255 -0.2349
   78SLPC   H4X 7160   5.034   2.116   7.337 -1.5727  1.2315 -0.6685
   78SLPC   H4Y 7161   5.072   2.288   7.291  0.3016 -0.1890 -1.6688
   78SLPC   C35 7162   5.210   2.195   7.416 -0.8005  0.1321 -0.7028
   78SLPC   H5X 7163   5.281   2.279   7.406  0.3086 -0.9563 -2.3212
   78SLPC   H5Y 7164   5.277   2.107   7.405  0.2460  1.2357 -3.7460
   78SLPC   C36 7165   5.140   2.204   7.556 -0.0091  0.4558 -0.0484
   78SLPC   H6X 7166   5.075   2.114   7.554  1.2347 -0.5324  1.8667
   78SLPC   H6Y 7167   5.072   2.293   7.561 -0.2930  0.3853 -2.2467
   78SLPC   C37 7168   5.246   2.193   7.672  0.1979  0.9073  0.4262
   78SLPC   H7X 7169   5.314   2.280   7.660  0.5971  0.5674  0.1990
   78SLPC   H7Y 7170   5.305   2.099   7.661  0.5411  1.1648  0.0587
   78SLPC   C38 7171   5.183   2.175   7.816 -0.4144 -0.5558  0.7712
   78SLPC   H8X 7172   5.258   2.180   7.899  0.0436  1.3724  0.2701
   78SLPC   H8Y 7173   5.135   2.076   7.808  1.5858 -1.4802 -0.0046
   78SLPC   C39 7174   5.075   2.273   7.847 -0.5875  0.3230 -0.5061
   78SLPC   H9X 7175   4.991   2.270   7.774 -0.3216  1.0366 -0.8501
   78SLPC   H9Y 7176   5.107   2.379   7.831  3.4016 -0.6516  0.4386
   78SLPC  C310 7177   5.011   2.258   7.991 -0.0892  0.6027 -0.1008
   78SLPC  H10X 7178   5.090   2.300   8.057  1.7696 -1.5741 -0.8589
   78SLPC  H10Y 7179   4.983   2.151   7.999 -0.4889  0.5960 -1.3940
   78SLPC  C311 7180   4.878   2.337   8.014  0.2284 -0.4929  0.2452
   78SLPC  H11X 7181   4.802   2.293   7.946  0.2100 -0.1334  0.0339
   78SLPC  H11Y 7182   4.885   2.442   7.979 -0.9768  0.1320  1.8280
   78SLPC  C312 7183   4.837   2.357   8.164  0.0063  0.1522 -0.6520
   78SLPC  H12X 7184   4.763   2.280   8.194 -1.3483  1.3664 -0.8018
   78SLPC  H12Y 7185   4.775   2.448   8.178  0.7782  0.7030 -0.7816
   78SLPC  C313 7186   4.948   2.372   8.274 -0.1639  0.0247  0.1214
   78SLPC  H13X 7187   4.998   2.272   8.277 -2.8285 -1.3078  1.6861
   78SLPC  H13Y 7188   4.900   2.375   8.374  1.9056 -0.4625  1.1788
   78SLPC  C314 7189   5.028   2.506   8.251  0.2128 -0.0226  0.1442
   78SLPC  H14X 7190   4.957   2.589   8.273  0.1504  0.4575 -1.7663
   78SLPC  H14Y 7191   5.063   2.504   8.145  0.5728 -1.3985  0.2809
   78SLPC  C315 7192   5.151   2.527   8.336  1.0085  0.7338  0.5136
   78SLPC  H15X 7193   5.146   2.505   8.445  2.2842 -1.7421  0.1066
   78SLPC  H15Y 7194   5.182   2.634   8.345  2.3282  0.3158  0.9954
   78SLPC  C316 7195   5.273   2.446   8.275  0.7846 -0.1723 -0.2554
   78SLPC  H16X 7196   5.257   2.336   8.279  1.3999 -0.2392  0.6555
   78SLPC  H16Y 7197   5.358   2.468   8.344 -0.2956 -1.4839  1.5435
   78SLPC  C317 7198   5.314   2.475   8.130  0.3145  0.0660 -0.2565
   78SLPC  H17X 7199   5.344   2.582   8.130  0.3009  0.1086  1.9827
   78SLPC  H17Y 7200   5.225   2.465   8.065  0.4610  0.7855 -0.5669
   78SLPC  C318 7201   5.427   2.386   8.083 -0.1651  0.5495 -0.1162
   78SLPC  H18X 7202   5.406   2.278   8.095 -0.7031  0.7391  0.7060
   78SLPC  H18Y 7203   5.522   2.400   8.140  0.2369 -0.0661 -0.6259
   78SLPC  H18Z 7204   5.448   2.413   7.978  0.6767  1.6662  0.3182
   79SLPC     N 7205   1.725   3.893   6.158  0.0918 -0.0319  0.8805
   79SLPC   C13 7206   1.624   3.938   6.057 -0.2344  0.1201 -0.1507
   79SLPC  H13A 7207   1.538   3.979   6.108  0.5953  1.4975  0.1622
   79SLPC  H13B 7208   1.664   4.018   5.996  0.1800 -1.1469 -1.5710
   79SLPC  H13C 7209   1.601   3.855   5.991 -1.2301 -1.0829  1.6695
   79SLPC   C14 7210   1.843   3.843   6.076  0.7390 -0.0708 -0.4397
   79SLPC  H14A 7211   1.915   3.813   6.151  0.5882 -1.0161 -0.6619
   79SLPC  H14B 7212   1.816   3.749   6.030  0.5454 -1.3732  2.2425
   79SLPC  H14C 7213   1.876   3.921   6.010  0.1334 -0.1742 -0.8590
   79SLPC   C15 7214   1.675   3.778   6.234 -0.5270  0.0726 -0.0325
   79SLPC  H15A 7215   1.599   3.817   6.301 -1.5836  1.6513 -2.0984
   79SLPC  H15B 7216   1.634   3.708   6.163  0.9713 -0.2018 -0.6316
   79SLPC  H15C 7217   1.751   3.723   6.287 -0.9908 -0.5908 -0.0534
   79SLPC   C12 7218   1.759   4.016   6.254  0.9589 -0.1881 -0.0546
   79SLPC  H12A 7219   1.826   3.988   6.334  0.9138 -0.1788 -0.0141
   79SLPC  H12B 7220   1.666   4.051   6.296  0.9584 -1.8602  1.3386
   79SLPC   C11 7221   1.821   4.142   6.187 -0.2627  0.0468 -0.4535
   79SLPC  H11A 7222   1.818   4.224   6.262 -0.4613 -2.1662  2.0090
   79SLPC  H11B 7223   1.771   4.176   6.094  0.1233 -1.7802 -1.3582
   79SLPC     P 7224   2.068   4.077   6.245  0.1303  0.2637 -0.1583
   79SLPC   O13 7225   2.090   3.926   6.245 -0.4201  0.6512  0.5744
   79SLPC   O14 7226   2.184   4.164   6.223  0.1771 -0.3565  0.1880
   79SLPC   O12 7227   1.954   4.106   6.144 -0.1351 -0.0018  0.2065
   79SLPC   O11 7228   2.003   4.119   6.386  0.0413 -0.0491  0.5084
   79SLPC    C1 7229   2.069   4.090   6.510  0.1301  0.7443  0.0244
   79SLPC    HA 7230   1.996   4.048   6.583 -0.2446  0.5618 -0.4563
   79SLPC    HB 7231   2.154   4.018   6.503  0.2094  0.5016  2.8510
   79SLPC    C2 7232   2.127   4.222   6.556 -0.4967  0.8489 -0.0664
   79SLPC    HS 7233   2.228   4.240   6.514 -1.0427  2.4312 -0.7120
   79SLPC   O21 7234   2.120   4.224   6.700  0.2050 -0.3001 -0.2831
   79SLPC   C21 7235   2.216   4.156   6.766 -0.2598  0.2715 -0.5054
   79SLPC   O22 7236   2.302   4.092   6.714  0.7018  0.4663  0.1652
   79SLPC   C22 7237   2.184   4.151   6.916  0.5924 -0.8093  0.2889
   79SLPC   H2R 7238   2.092   4.209   6.939  0.0788 -1.6394  0.3624
   79SLPC   H2S 7239   2.157   4.045   6.939 -1.5057 -0.4661 -0.4775
   79SLPC    C3 7240   2.035   4.343   6.513  0.1369 -0.2141  0.1980
   79SLPC    HX 7241   1.930   4.310   6.529 -0.2082  0.4606 -0.6356
   79SLPC    HY 7242   2.048   4.344   6.402  0.2875 -0.7758  0.2072
   79SLPC   O31 7243   2.070   4.476   6.571  0.2820  0.0386 -1.1255
   79SLPC   C31 7244   1.983   4.519   6.662  0.1550  0.3262 -0.3432
   79SLPC   O32 7245   1.875   4.471   6.694 -0.1462  0.1086  0.2542
   79SLPC   C32 7246   2.040   4.645   6.730 -0.6004  0.4067 -0.3317
   79SLPC   H2X 7247   1.960   4.717   6.758  0.0072  0.4101  1.4993
   79SLPC   H2Y 7248   2.101   4.701   6.656  0.1815  1.1564  0.8386
   79SLPC   C23 7249   2.308   4.206   7.002  0.3985  0.1901 -0.0603
   79SLPC   H3R 7250   2.259   4.236   7.097  0.2759  2.9733 -0.9604
   79SLPC   H3S 7251   2.343   4.298   6.951  1.1173 -0.6776 -1.1426
   79SLPC   C24 7252   2.419   4.107   7.031  0.4697 -0.2384  0.8031
   79SLPC   H4R 7253   2.501   4.170   7.072  0.1533  0.5980  0.1412
   79SLPC   H4S 7254   2.450   4.065   6.933 -1.2938 -0.2115  0.2228
   79SLPC   C25 7255   2.389   3.991   7.120  0.2331 -0.5638 -0.1806
   79SLPC   H5R 7256   2.479   3.926   7.116  1.2672  0.8094  0.0242
   79SLPC   H5S 7257   2.308   3.926   7.082 -1.8250  1.1140  1.1796
   79SLPC   C26 7258   2.364   4.037   7.265 -0.6776  0.0952  0.3874
   79SLPC   H6R 7259   2.273   4.101   7.272 -1.1331 -0.6188  1.1192
   79SLPC   H6S 7260   2.446   4.102   7.301  1.0564 -1.2136 -1.0746
   79SLPC   C27 7261   2.334   3.927   7.364  0.3870 -0.4491  0.3960
   79SLPC   H7R 7262   2.427   3.869   7.381 -1.0971 -2.9080  0.3200
   79SLPC   H7S 7263   2.258   3.862   7.317 -0.5084  2.3338 -2.1647
   79SLPC   C28 7264   2.270   3.979   7.490 -0.3366  0.4176 -0.0136
   79SLPC   H8R 7265   2.244   3.883   7.540 -0.4667  0.3674 -0.1757
   79SLPC   H8S 7266   2.168   4.019   7.471 -0.4641 -0.3114 -0.8970
   79SLPC   C29 7267   2.354   4.081   7.566  0.3437  0.4222  0.1787
   79SLPC   H9R 7268   2.385   4.167   7.503 -0.8305 -1.6614 -3.3934
   79SLPC  C210 7269   2.399   4.083   7.693  0.3782  0.2108 -0.0729
   79SLPC  H10R 7270   2.472   4.163   7.713 -0.0267  0.9390 -1.4400
   79SLPC  C211 7271   2.367   3.975   7.798  0.2721 -1.2028  0.6489
   79SLPC  H11R 7272   2.302   3.893   7.762 -0.9520  0.0938 -0.1199
   79SLPC  H11S 7273   2.309   4.019   7.882 -0.5807  1.3970 -1.2512
   79SLPC  C212 7274   2.506   3.933   7.852 -0.4969 -0.1192  0.1578
   79SLPC  H12R 7275   2.580   3.923   7.771 -2.2568  0.8131 -1.6065
   79SLPC  C213 7276   2.544   3.906   7.980  0.3850  0.0595 -0.4790
   79SLPC  H13R 7277   2.650   3.886   7.997  0.8303  0.4981 -2.6401
   79SLPC  C214 7278   2.451   3.921   8.102 -0.2810  0.1312  0.4578
   79SLPC  H14R 7279   2.450   3.825   8.158  1.5783  0.5725  1.2924
   79SLPC  H14S 7280   2.346   3.952   8.086 -0.0519  0.3494 -0.6605
   79SLPC  C215 7281   2.507   4.021   8.204 -0.2589 -0.1711 -0.0184
   79SLPC  H15R 7282   2.429   4.035   8.282 -3.3194  1.7937 -3.2805
   79SLPC  H15S 7283   2.525   4.120   8.156 -1.2070 -0.4723 -0.9960
   79SLPC  C216 7284   2.626   3.956   8.280 -0.1003  0.3377 -0.1504
   79SLPC  H16R 7285   2.706   3.928   8.209  1.4359 -0.7169  1.9182
   79SLPC  H16S 7286   2.592   3.859   8.324 -0.7711 -0.1223 -1.6394
   79SLPC  C217 7287   2.676   4.045   8.392  0.1879  0.8614 -0.5475
   79SLPC  H17R 7288   2.599   4.066   8.469 -0.3791  0.2582 -0.9548
   79SLPC  H17S 7289   2.696   4.144   8.346  1.7257  0.3031 -1.1285
   79SLPC  C218 7290   2.807   3.999   8.467  0.3859  0.0409  0.0009
   79SLPC  H18R 7291   2.899   4.002   8.406 -0.6437  0.7062 -1.5534
   79SLPC  H18S 7292   2.794   3.892   8.494 -0.6847  0.0011 -0.6467
   79SLPC  H18T 7293   2.821   4.072   8.550  2.0813  0.5986 -0.7664
   79SLPC   C33 7294   2.124   4.601   6.846 -0.4763 -0.9593  0.4135
   79SLPC   H3X 7295   2.192   4.684   6.875 -0.1658 -0.2656 -2.1637
   79SLPC   H3Y 7296   2.185   4.514   6.812 -0.2758 -1.1202  1.1856
   79SLPC   C34 7297   2.055   4.577   6.978  0.4092  0.9695  0.2285
   79SLPC   H4X 7298   1.994   4.485   6.961  0.9586  0.3092  1.7025
   79SLPC   H4Y 7299   1.992   4.660   7.015 -0.3021  0.9692 -0.9804
   79SLPC   C35 7300   2.152   4.554   7.091 -0.3982 -0.0418 -0.1373
   79SLPC   H5X 7301   2.228   4.635   7.092  0.3905 -0.7798  0.8048
   79SLPC   H5Y 7302   2.208   4.460   7.076 -0.1993 -0.5225  3.2174
   79SLPC   C36 7303   2.087   4.538   7.233 -0.5798  0.4468 -0.6322
   79SLPC   H6X 7304   1.990   4.485   7.215 -0.8080  0.7175 -0.2063
   79SLPC   H6Y 7305   2.062   4.642   7.263 -0.1526  0.4882 -0.4189
   79SLPC   C37 7306   2.176   4.482   7.337  0.1279 -0.3445 -0.0777
   79SLPC   H7X 7307   2.269   4.542   7.342  1.6031 -2.5329 -0.7840
   79SLPC   H7Y 7308   2.209   4.381   7.305  0.2391 -0.2465 -0.2714
   79SLPC   C38 7309   2.107   4.478   7.472  0.8781  0.0185 -0.9079
   79SLPC   H8X 7310   2.036   4.393   7.466  0.3708  0.3339  0.4433
   79SLPC   H8Y 7311   2.048   4.568   7.502  0.3123 -0.6463  0.0017
   79SLPC   C39 7312   2.194   4.436   7.601  0.1530  0.2392  0.2151
   79SLPC   H9X 7313   2.275   4.510   7.619 -0.1025  0.4080  0.6685
   79SLPC   H9Y 7314   2.237   4.336   7.577 -0.5503  0.2292 -1.0516
   79SLPC  C310 7315   2.110   4.443   7.724 -0.0482 -0.3980 -0.1968
   79SLPC  H10X 7316   2.002   4.431   7.703 -0.7294  1.4652  1.9929
   79SLPC  H10Y 7317   2.119   4.544   7.771  3.7623 -0.4246 -0.7314
   79SLPC  C311 7318   2.160   4.334   7.827  0.6044  0.0137 -0.5675
   79SLPC  H11X 7319   2.257   4.378   7.859  0.5881  0.5555 -1.2613
   79SLPC  H11Y 7320   2.183   4.242   7.770 -0.2863 -1.4385  1.3506
   79SLPC  C312 7321   2.067   4.318   7.949 -0.0531  0.0187  0.8294
   79SLPC  H12X 7322   1.991   4.238   7.935  0.2881 -0.4547  1.6444
   79SLPC  H12Y 7323   2.013   4.415   7.952  1.1565  0.7578 -0.3762
   79SLPC  C313 7324   2.135   4.289   8.083 -0.3765 -0.2682 -0.5475
   79SLPC  H13X 7325   2.180   4.187   8.080  1.4952  0.5266 -0.1591
   79SLPC  H13Y 7326   2.064   4.283   8.168 -2.4423 -1.3529 -2.3244
   79SLPC  C314 7327   2.239   4.393   8.119 -0.4754  0.2604  0.2634
   79SLPC  H14X 7328   2.180   4.486   8.131 -1.8021 -0.4504 -0.6391
   79SLPC  H14Y 7329   2.310   4.409   8.035  0.0743 -1.6865  0.3246
   79SLPC  C315 7330   2.316   4.365   8.251  0.2445  0.0397  0.2781
   79SLPC  H15X 7331   2.397   4.440   8.264 -0.9672  1.3177  0.6485
   79SLPC  H15Y 7332   2.380   4.275   8.242 -2.7846 -2.0874 -0.9644
   79SLPC  C316 7333   2.228   4.360   8.381  0.6567 -0.8243  0.2576
   79SLPC  H16X 7334   2.172   4.267   8.408 -2.6234  1.2764  1.0593
   79SLPC  H16Y 7335   2.138   4.423   8.365 -0.0912 -2.2502 -1.2734
   79SLPC  C317 7336   2.291   4.405   8.505 -0.6467 -0.4947  0.2056
   79SLPC  H17X 7337   2.220   4.429   8.587 -0.0478  0.8046  0.3506
   79SLPC  H17Y 7338   2.344   4.500   8.484  1.1744 -1.1791  1.5525
   79SLPC  C318 7339   2.406   4.303   8.540  0.6794 -0.9206 -0.1848
   79SLPC  H18X 7340   2.357   4.204   8.529  0.0666 -0.6344 -0.0802
   79SLPC  H18Y 7341   2.430   4.310   8.648  0.8944  1.1947 -0.3486
   79SLPC  H18Z 7342   2.495   4.306   8.474  0.0607  3.7602 -0.9473
   80SLPC     N 7343   4.927   1.565   6.031 -0.1943 -0.6627  0.2768
   80SLPC   C13 7344   4.841   1.638   5.926  0.0145  0.4643 -0.1025
   80SLPC  H13A 7345   4.849   1.743   5.946  2.1347  0.1507  0.8293
   80SLPC  H13B 7346   4.876   1.614   5.827 -1.2005 -1.5104 -0.0757
   80SLPC  H13C 7347   4.737   1.610   5.936 -0.0354  1.2200  1.8121
   80SLPC   C14 7348   5.073   1.591   6.008 -0.6375 -0.0537  0.0570
   80SLPC  H14A 7349   5.103   1.689   6.042 -0.8300 -0.0681  0.2651
   80SLPC  H14B 7350   5.119   1.509   6.061 -2.7361 -0.3454  1.4822
   80SLPC  H14C 7351   5.101   1.582   5.904  0.9639 -1.1218  0.5420
   80SLPC   C15 7352   4.905   1.420   6.019 -0.2542 -0.1679 -0.8747
   80SLPC  H15A 7353   4.944   1.376   6.109 -1.1169  4.3031  1.8320
   80SLPC  H15B 7354   4.799   1.397   6.017 -0.2785 -0.0187 -1.5757
   80SLPC  H15C 7355   4.945   1.378   5.928 -0.2534 -0.4364 -0.7491
   80SLPC   C12 7356   4.893   1.617   6.171  0.3501 -0.5949  0.3093
   80SLPC  H12A 7357   4.787   1.629   6.187  0.7245  1.0888  1.7228
   80SLPC  H12B 7358   4.932   1.718   6.178  1.3289 -1.1048  2.4925
   80SLPC   C11 7359   4.947   1.561   6.304 -0.3468  0.6043  0.2033
   80SLPC  H11A 7360   4.914   1.628   6.387  2.4486  0.8046  1.2120
   80SLPC  H11B 7361   5.057   1.565   6.320 -0.4225 -3.1985  2.3526
   80SLPC     P 7362   4.743   1.402   6.358  0.1573  0.2620  0.1319
   80SLPC   O13 7363   4.655   1.512   6.317  0.1725  0.0157 -0.1569
   80SLPC   O14 7364   4.711   1.269   6.309  0.0913  0.5256  0.4444
   80SLPC   O12 7365   4.894   1.430   6.318 -0.4496 -0.0224  0.3141
   80SLPC   O11 7366   4.744   1.407   6.515 -0.5190 -0.2554  0.2860
   80SLPC    C1 7367   4.845   1.327   6.586  0.6393  0.6817  0.0142
   80SLPC    HA 7368   4.865   1.232   6.532  2.0838  0.8386  0.2477
   80SLPC    HB 7369   4.940   1.384   6.576  2.5843 -2.5164 -0.6386
   80SLPC    C2 7370   4.814   1.296   6.732 -0.2019  0.9255 -0.1325
   80SLPC    HS 7371   4.745   1.209   6.742  0.1536  0.4464 -1.6982
   80SLPC   O21 7372   4.765   1.415   6.795 -0.3316  0.5921  0.3539
   80SLPC   C21 7373   4.665   1.394   6.885  0.2938 -0.7334  0.0907
   80SLPC   O22 7374   4.617   1.290   6.916  0.2206  0.8258 -0.0449
   80SLPC   C22 7375   4.625   1.529   6.946  0.2783  0.5495  0.5208
   80SLPC   H2R 7376   4.706   1.604   6.933 -0.5806  1.5053  0.5118
   80SLPC   H2S 7377   4.529   1.559   6.899 -0.9798 -2.8764  0.7729
   80SLPC    C3 7378   4.941   1.242   6.803  0.2542 -0.0494  0.1055
   80SLPC    HX 7379   5.009   1.325   6.774  1.0554  0.2280  2.5850
   80SLPC    HY 7380   4.968   1.149   6.748 -0.2242 -1.0993  1.5963
   80SLPC   O31 7381   4.929   1.233   6.940 -0.8823 -0.2311  0.8054
   80SLPC   C31 7382   4.886   1.115   6.977  0.1400  0.3937 -0.7275
   80SLPC   O32 7383   4.840   1.035   6.899  0.3283  0.2467  0.4700
   80SLPC   C32 7384   4.901   1.091   7.123  0.7584  0.0823  0.1507
   80SLPC   H2X 7385   4.990   1.145   7.161 -0.1971  2.4683 -0.8804
   80SLPC   H2Y 7386   4.901   0.980   7.124 -1.0248 -0.0239 -3.2068
   80SLPC   C23 7387   4.604   1.527   7.099  0.1753  0.1383  0.4137
   80SLPC   H3R 7388   4.614   1.632   7.133  0.3916  0.4676 -0.6602
   80SLPC   H3S 7389   4.680   1.463   7.148  2.6791  1.4572 -1.6732
   80SLPC   C24 7390   4.462   1.502   7.146 -0.3205  0.1277  0.5238
   80SLPC   H4R 7391   4.445   1.397   7.114  1.5083  0.1007 -0.4801
   80SLPC   H4S 7392   4.390   1.568   7.094 -1.1119 -2.2273 -1.4880
   80SLPC   C25 7393   4.444   1.504   7.297  0.1948 -0.5633  0.2713
   80SLPC   H5R 7394   4.545   1.491   7.344  0.3489 -1.1325 -0.2087
   80SLPC   H5S 7395   4.379   1.419   7.327  1.7558 -1.5213  1.0606
   80SLPC   C26 7396   4.387   1.642   7.342 -0.0351  0.7067 -0.1137
   80SLPC   H6R 7397   4.285   1.651   7.299  1.0838 -2.5736 -3.6904
   80SLPC   H6S 7398   4.445   1.722   7.291  3.0327 -2.5560 -1.9020
   80SLPC   C27 7399   4.388   1.662   7.492  0.1685  0.4836 -0.4870
   80SLPC   H7R 7400   4.340   1.759   7.518  0.5929 -0.2836  3.5663
   80SLPC   H7S 7401   4.495   1.674   7.523  0.6397 -0.4022 -1.7384
   80SLPC   C28 7402   4.335   1.539   7.574  0.5457 -0.9391  0.2888
   80SLPC   H8R 7403   4.409   1.457   7.560  2.0084  0.5413 -1.0377
   80SLPC   H8S 7404   4.234   1.519   7.532 -0.2953 -0.4061  2.0269
   80SLPC   C29 7405   4.338   1.578   7.719  0.4703  0.5909 -0.7333
   80SLPC   H9R 7406   4.441   1.594   7.754  0.3571 -0.9171  0.3212
   80SLPC  C210 7407   4.245   1.565   7.815  0.2073  0.2665  0.7114
   80SLPC  H10R 7408   4.271   1.607   7.914 -1.0055 -1.3346  1.7288
   80SLPC  C211 7409   4.102   1.513   7.804 -0.6113  0.2684 -0.4687
   80SLPC  H11R 7410   4.098   1.447   7.715  1.3831  0.7474 -0.9361
   80SLPC  H11S 7411   4.029   1.595   7.785 -1.9164 -1.1487 -1.7233
   80SLPC  C212 7412   4.048   1.445   7.926 -0.0705  0.7305 -0.0647
   80SLPC  H12R 7413   4.105   1.353   7.947 -4.6838 -1.9084  1.7299
   80SLPC  C213 7414   3.954   1.485   8.010  0.2964  0.2430 -0.0257
   80SLPC  H13R 7415   3.927   1.432   8.103  0.4416  1.4277  0.7046
   80SLPC  C214 7416   3.871   1.608   7.999 -0.1586 -0.1390 -0.0595
   80SLPC  H14R 7417   3.832   1.634   7.898 -4.0106 -0.4084  1.2946
   80SLPC  H14S 7418   3.934   1.694   8.031 -0.9589  0.2568  0.4803
   80SLPC  C215 7419   3.742   1.601   8.080 -1.1052 -0.0821 -0.8807
   80SLPC  H15R 7420   3.694   1.700   8.066 -0.8689  0.4303  1.5762
   80SLPC  H15S 7421   3.758   1.601   8.190 -0.0291  2.1399 -1.0143
   80SLPC  C216 7422   3.654   1.482   8.035 -0.4008 -0.0456  0.2863
   80SLPC  H16R 7423   3.685   1.429   7.943 -2.0786  0.2984 -0.4966
   80SLPC  H16S 7424   3.546   1.506   8.025 -0.9637 -1.8131  1.8135
   80SLPC  C217 7425   3.649   1.372   8.140  0.5478 -0.3147 -0.0641
   80SLPC  H17R 7426   3.755   1.344   8.158  0.2129 -1.7342 -0.2589
   80SLPC  H17S 7427   3.603   1.281   8.096 -0.5152 -0.4821  1.3446
   80SLPC  C218 7428   3.572   1.403   8.269  0.7401 -0.4950 -0.3672
   80SLPC  H18R 7429   3.620   1.490   8.319 -4.4277  0.6715  3.0075
   80SLPC  H18S 7430   3.584   1.325   8.346  2.0805  0.4689  0.4232
   80SLPC  H18T 7431   3.462   1.412   8.260  0.7474  0.8194  0.7342
   80SLPC   C33 7432   4.778   1.152   7.201  0.3293  0.6289  0.1780
   80SLPC   H3X 7433   4.679   1.115   7.170 -0.2335  0.9591  1.5326
   80SLPC   H3Y 7434   4.776   1.260   7.175  1.0826  1.0352  1.7299
   80SLPC   C34 7435   4.790   1.138   7.351  0.7717  0.2000 -0.7053
   80SLPC   H4X 7436   4.894   1.154   7.387  1.4559 -3.4062 -0.8765
   80SLPC   H4Y 7437   4.788   1.030   7.374  0.2379  1.1857  4.5604
   80SLPC   C35 7438   4.679   1.208   7.424 -0.4085 -0.0454 -0.0375
   80SLPC   H5X 7439   4.579   1.175   7.390 -0.3305 -1.2706  0.8701
   80SLPC   H5Y 7440   4.681   1.316   7.399  1.0102 -0.3168 -1.1477
   80SLPC   C36 7441   4.687   1.184   7.580 -0.3923 -0.6629 -0.0253
   80SLPC   H6X 7442   4.787   1.212   7.620 -1.2005 -0.4869  1.9305
   80SLPC   H6Y 7443   4.672   1.075   7.591 -0.9855 -0.4987  0.8052
   80SLPC   C37 7444   4.586   1.271   7.661 -1.1686  0.0047 -1.0046
   80SLPC   H7X 7445   4.483   1.255   7.624 -0.9002 -1.3919 -1.1721
   80SLPC   H7Y 7446   4.624   1.373   7.637  0.5165 -0.1088  1.0136
   80SLPC   C38 7447   4.596   1.235   7.806  0.8423  0.0828 -0.2818
   80SLPC   H8X 7448   4.703   1.254   7.831  1.1342 -1.6486 -0.1659
   80SLPC   H8Y 7449   4.574   1.127   7.818  2.0979 -0.1177  0.3141
   80SLPC   C39 7450   4.502   1.312   7.898  0.1964 -0.1309  0.1709
   80SLPC   H9X 7451   4.409   1.328   7.840  1.8641  0.7526 -2.3136
   80SLPC   H9Y 7452   4.548   1.412   7.912  0.6973 -0.2753 -0.4499
   80SLPC  C310 7453   4.479   1.256   8.036  1.0659 -0.0769  0.3470
   80SLPC  H10X 7454   4.578   1.260   8.086  0.5504 -1.8249  1.5479
   80SLPC  H10Y 7455   4.451   1.148   8.026 -0.3648  0.2802  0.3735
   80SLPC  C311 7456   4.376   1.337   8.117 -1.0571  1.1886  0.1861
   80SLPC  H11X 7457   4.344   1.272   8.201  0.6924 -1.4953 -1.1493
   80SLPC  H11Y 7458   4.284   1.355   8.058 -2.9579 -0.6063  2.5057
   80SLPC  C312 7459   4.421   1.468   8.188 -0.1997 -0.0864 -1.0212
   80SLPC  H12X 7460   4.381   1.555   8.131  1.2734  2.0048  1.0604
   80SLPC  H12Y 7461   4.531   1.461   8.187 -0.3102 -2.1510 -1.4971
   80SLPC  C313 7462   4.372   1.485   8.335  0.4404 -0.9451 -0.1960
   80SLPC  H13X 7463   4.434   1.562   8.385  0.6745 -1.2962  0.0539
   80SLPC  H13Y 7464   4.369   1.390   8.393 -0.8380 -0.6141  0.2966
   80SLPC  C314 7465   4.223   1.532   8.338  0.3206  0.0041 -0.5264
   80SLPC  H14X 7466   4.164   1.484   8.258 -1.5640  1.0827  0.1855
   80SLPC  H14Y 7467   4.224   1.642   8.320  3.1586 -0.1145 -1.2547
   80SLPC  C315 7468   4.152   1.494   8.474  0.2073 -0.7058 -0.0045
   80SLPC  H15X 7469   4.191   1.566   8.550 -0.5042 -1.0301  0.6798
   80SLPC  H15Y 7470   4.189   1.396   8.512  0.9096  0.2211  1.7846
   80SLPC  C316 7471   3.995   1.512   8.464 -0.3055  0.4032  0.4792
   80SLPC  H16X 7472   3.957   1.448   8.381 -0.8759  0.1661  0.9162
   80SLPC  H16Y 7473   3.976   1.615   8.426  1.4683  1.2034  1.7415
   80SLPC  C317 7474   3.925   1.498   8.596  0.5683  0.0387 -0.1291
   80SLPC  H17X 7475   3.955   1.565   8.679  1.7913  0.5620 -0.9723
   80SLPC  H17Y 7476   3.956   1.397   8.631  0.5402  0.2515  0.5097
   80SLPC  C318 7477   3.773   1.516   8.570 -0.1599 -0.8495 -0.8806
   80SLPC  H18X 7478   3.725   1.533   8.668 -0.1943  1.3508 -1.2379
   80SLPC  H18Y 7479   3.732   1.430   8.513  0.9313 -2.8671  1.3211
   80SLPC  H18Z 7480   3.771   1.603   8.501  2.3086  0.0218  0.0755
   81SAPS     N 7481   4.393   3.423  11.031  0.5304 -0.3278  0.2055
   81SAPS   HN1 7482   4.360   3.496  10.965  0.1122 -0.8752 -0.1957
   81SAPS   HN2 7483   4.491   3.446  11.060  0.6146 -1.7638  1.1028
   81SAPS   HN3 7484   4.398   3.330  10.984 -1.0468 -0.7570  0.8846
   81SAPS   C12 7485   4.300   3.411  11.148 -0.0619  0.4021  0.3938
   81SAPS  H12A 7486   4.337   3.331  11.212  0.0232  1.2481  1.4133
   81SAPS   C13 7487   4.290   3.540  11.230 -0.0219 -0.7107 -0.2293
   81SAPS  O13A 7488   4.371   3.632  11.210 -0.1366 -0.3681 -0.2966
   81SAPS  O13B 7489   4.224   3.528  11.335  0.7638  0.1360  0.4248
   81SAPS   C11 7490   4.155   3.374  11.103  0.8625  0.4623  0.2655
   81SAPS  H11A 7491   4.101   3.460  11.059 -2.6493 -0.6426  2.1436
   81SAPS  H11B 7492   4.106   3.347  11.199 -0.7388 -0.4306 -0.7713
   81SAPS     P 7493   4.064   3.165  10.980  0.0027 -0.1489  0.5929
   81SAPS   O13 7494   4.120   3.034  10.993  0.0638  0.3305 -0.1030
   81SAPS   O14 7495   3.958   3.200  11.071  0.2102 -0.0424 -0.0210
   81SAPS   O12 7496   4.174   3.260  11.017 -0.1320 -0.1320 -0.2378
   81SAPS   O11 7497   4.016   3.201  10.834 -0.0859  0.1477 -0.5717
   81SAPS    C1 7498   4.079   3.304  10.755  0.3984  0.3239  0.3222
   81SAPS    HA 7499   4.010   3.389  10.738 -3.1820 -2.3601  0.8328
   81SAPS    HB 7500   4.170   3.344  10.805  0.5915  0.2674  0.0160
   81SAPS    C2 7501   4.126   3.257  10.618 -0.2802 -0.6588  0.2283
   81SAPS    HS 7502   4.160   3.351  10.570  0.4606  0.0034  1.9925
   81SAPS   O21 7503   4.017   3.186  10.544 -0.5493 -0.2121 -0.7946
   81SAPS   C21 7504   3.923   3.272  10.502  0.4695  0.2328 -0.8474
   81SAPS   O22 7505   3.912   3.391  10.531  0.1301 -0.0111  0.2902
   81SAPS   C22 7506   3.835   3.194  10.403 -0.0337 -0.0919 -0.1527
   81SAPS   H2R 7507   3.749   3.152  10.459  0.0997  1.2725  1.1063
   81SAPS   H2S 7508   3.788   3.261  10.328  1.6900  0.7453 -0.5209
   81SAPS    C3 7509   4.240   3.156  10.628 -0.5559  0.0517  0.6109
   81SAPS    HX 7510   4.201   3.059  10.666 -0.8872  0.3908  1.1467
   81SAPS    HY 7511   4.317   3.197  10.697  0.7093 -2.2840  0.6048
   81SAPS   O31 7512   4.295   3.118  10.499  0.2368 -0.0274  0.6864
   81SAPS   C31 7513   4.367   3.216  10.448  0.8043  0.5052  0.5179
   81SAPS   O32 7514   4.393   3.325  10.496  0.3180  0.3940  0.0413
   81SAPS   C32 7515   4.422   3.158  10.318  0.5143 -0.4031  0.2273
   81SAPS   H2X 7516   4.411   3.047  10.318 -2.0076 -0.1921 -0.5592
   81SAPS   H2Y 7517   4.531   3.176  10.313  1.0285 -3.1049  0.6892
   81SAPS   C23 7518   3.895   3.069  10.331  0.3191  0.3773 -0.0927
   81SAPS   H3R 7519   3.933   2.992  10.402  0.7695 -0.0639 -0.8060
   81SAPS   H3S 7520   3.975   3.106  10.264 -0.6750  0.8578 -1.0358
   81SAPS   C24 7521   3.786   2.996  10.252  0.4689  1.1974 -0.8341
   81SAPS   H4R 7522   3.711   2.966  10.327  2.0705  0.2305  0.4007
   81SAPS   H4S 7523   3.843   2.906  10.218 -1.8377 -0.0531 -1.4502
   81SAPS   C25 7524   3.729   3.067  10.133 -0.2702 -0.0830  0.4934
   81SAPS   H5R 7525   3.647   3.137  10.156  0.5913  1.3275 -0.6541
   81SAPS   C26 7526   3.764   3.064  10.005  0.9139 -0.0466  0.5595
   81SAPS   H6R 7527   3.702   3.115   9.929  0.6124 -0.7335  0.3432
   81SAPS   C27 7528   3.872   2.983   9.946 -0.2706 -0.3297 -0.0196
   81SAPS   H7R 7529   3.966   2.992  10.005  0.0873  1.8539 -0.8835
   81SAPS   H7S 7530   3.911   3.040   9.859 -1.7813 -0.0612 -0.5367
   81SAPS   C28 7531   3.847   2.840   9.922  0.1158 -0.3245  0.1180
   81SAPS   H8R 7532   3.783   2.796  10.000 -1.1506 -0.2870 -0.8705
   81SAPS   C29 7533   3.902   2.763   9.826 -0.2666  0.9532  0.1316
   81SAPS   H9R 7534   3.876   2.656   9.821  0.1326  0.9348 -2.0503
   81SAPS  C210 7535   4.004   2.806   9.725  0.6768  0.6345 -0.0533
   81SAPS  H10R 7536   4.105   2.777   9.761 -0.1295  0.7681  2.3824
   81SAPS  H10S 7537   4.010   2.915   9.701 -3.1768  0.8302 -0.4774
   81SAPS  C211 7538   3.979   2.720   9.599  0.5037  0.2470 -0.5235
   81SAPS  H11R 7539   4.021   2.618   9.605 -0.5818 -0.4795 -3.9353
   81SAPS  C212 7540   3.895   2.750   9.495  0.1370  0.3313  0.3727
   81SAPS  H12R 7541   3.879   2.682   9.410  1.1558  1.2362 -0.5532
   81SAPS  C213 7542   3.828   2.888   9.479  0.0068  0.2723  0.4414
   81SAPS  H13R 7543   3.831   2.921   9.373  0.5395  0.3118  0.4688
   81SAPS  H13S 7544   3.884   2.965   9.536 -1.5099  3.0452 -1.6936
   81SAPS  C214 7545   3.687   2.898   9.533  0.6902  0.3958 -0.1046
   81SAPS  H14R 7546   3.684   2.839   9.626  1.0826 -0.6663 -0.7551
   81SAPS  C215 7547   3.582   2.965   9.480 -0.0166 -0.4609  0.3291
   81SAPS  H15R 7548   3.493   2.966   9.545 -0.7063  1.7060 -0.5769
   81SAPS  C216 7549   3.586   3.053   9.354  0.0301 -0.2680 -0.3691
   81SAPS  H16R 7550   3.534   2.999   9.272 -0.3907 -0.5512  0.0852
   81SAPS  H16S 7551   3.691   3.077   9.325  0.4926  2.3981  3.1200
   81SAPS  C217 7552   3.520   3.190   9.377 -0.1179 -0.2547  0.1741
   81SAPS  H17R 7553   3.579   3.255   9.445  3.3920 -2.0199 -1.0843
   81SAPS  H17S 7554   3.424   3.173   9.432 -0.4262  0.5909 -0.0899
   81SAPS  C218 7555   3.491   3.265   9.247  0.4356 -0.3164  0.1400
   81SAPS  H18R 7556   3.391   3.230   9.212 -0.5072  0.1311  2.2920
   81SAPS  H18S 7557   3.573   3.240   9.177  1.0323 -1.3390  1.1955
   81SAPS  C219 7558   3.470   3.416   9.269 -0.1492  0.2524 -0.4505
   81SAPS  H19R 7559   3.557   3.440   9.333 -1.1681  0.4891  0.8612
   81SAPS  H19S 7560   3.379   3.439   9.328 -0.4769  3.0975 -1.9510
   81SAPS  C220 7561   3.464   3.492   9.137 -0.3332  0.0584 -0.0150
   81SAPS  H20R 7562   3.557   3.473   9.079 -0.1646 -0.9091  0.5527
   81SAPS  H20S 7563   3.460   3.598   9.170  1.7711 -0.4720  2.1398
   81SAPS  H20T 7564   3.373   3.464   9.081 -0.2435  0.9529 -0.6051
   81SAPS   C33 7565   4.353   3.233  10.199 -0.3100  0.9494 -0.4021
   81SAPS   H3X 7566   4.378   3.342  10.200 -3.1041  1.6244  1.5595
   81SAPS   H3Y 7567   4.244   3.222  10.220 -0.1440 -1.8088 -0.8309
   81SAPS   C34 7568   4.385   3.167  10.068 -0.6598  0.1265  0.8217
   81SAPS   H4X 7569   4.375   3.058  10.086  3.3084 -0.4188  0.1467
   81SAPS   H4Y 7570   4.484   3.188  10.023 -0.8502  1.4360  0.9878
   81SAPS   C35 7571   4.294   3.216   9.961 -0.6414  0.2820 -0.3863
   81SAPS   H5X 7572   4.317   3.322   9.938  1.2900  0.0333  0.2965
   81SAPS   H5Y 7573   4.191   3.218  10.001 -0.4991  2.0981 -0.0724
   81SAPS   C36 7574   4.304   3.135   9.831  0.0660  0.6497 -0.2472
   81SAPS   H6X 7575   4.290   3.030   9.864 -1.1250  0.6522 -0.7267
   81SAPS   H6Y 7576   4.403   3.137   9.782  0.9159 -1.5498  1.2909
   81SAPS   C37 7577   4.185   3.171   9.737 -0.4588  0.3101  0.3614
   81SAPS   H7X 7578   4.181   3.280   9.716  0.0873  0.0466 -1.1281
   81SAPS   H7Y 7579   4.084   3.152   9.780 -1.0000  2.3771  0.0684
   81SAPS   C38 7580   4.180   3.100   9.601 -0.1909  0.3296  0.3117
   81SAPS   H8X 7581   4.081   3.087   9.554 -1.3130 -0.2454  2.7707
   81SAPS   H8Y 7582   4.203   2.992   9.609  0.6667  0.6960  3.2132
   81SAPS   C39 7583   4.263   3.171   9.503 -0.5885  1.0166 -0.0927
   81SAPS   H9X 7584   4.362   3.198   9.546  0.9077 -0.1779 -2.6700
   81SAPS   H9Y 7585   4.209   3.266   9.482  0.4680  1.1117 -2.6496
   81SAPS  C310 7586   4.278   3.090   9.371 -0.4451 -0.1919  0.4484
   81SAPS  H10X 7587   4.310   2.985   9.388  1.0648  0.3134  0.7631
   81SAPS  H10Y 7588   4.368   3.134   9.324  0.1745  0.4370  2.1856
   81SAPS  C311 7589   4.170   3.098   9.269 -0.8420 -0.5599  0.2319
   81SAPS  H11X 7590   4.146   3.204   9.246  0.6309 -0.6565 -1.8932
   81SAPS  H11Y 7591   4.073   3.066   9.313 -0.8419  1.9268  2.1725
   81SAPS  C312 7592   4.187   3.005   9.150  0.1528  0.0144  0.5255
   81SAPS  H12X 7593   4.087   2.999   9.104 -0.2544  1.7505  1.1182
   81SAPS  H12Y 7594   4.221   2.908   9.192  1.0299 -0.8225 -2.0320
   81SAPS  C313 7595   4.296   3.043   9.054 -0.4981  0.0365 -0.2976
   81SAPS  H13X 7596   4.292   2.960   8.979 -1.4915  0.8078 -1.1227
   81SAPS  H13Y 7597   4.397   3.049   9.100 -0.4788 -1.2174 -0.1445
   81SAPS  C314 7598   4.273   3.168   8.968 -0.1926  0.6100  0.2286
   81SAPS  H14X 7599   4.310   3.262   9.015 -2.2609  1.2225  0.6976
   81SAPS  H14Y 7600   4.164   3.187   8.953 -0.5797  0.4360  2.6453
   81SAPS  C315 7601   4.324   3.162   8.823 -0.4430 -0.3035 -0.9217
   81SAPS  H15X 7602   4.286   3.257   8.780 -1.8501 -0.4540 -0.0275
   81SAPS  H15Y 7603   4.273   3.082   8.765 -1.9003  1.0672 -1.5571
   81SAPS  C316 7604   4.475   3.150   8.809 -1.0068  0.5042 -0.0458
   81SAPS  H16X 7605   4.506   3.056   8.859  1.0368  0.5174 -1.2285
   81SAPS  H16Y 7606   4.523   3.232   8.866 -1.7407  1.6028 -0.9895
   81SAPS  C317 7607   4.525   3.155   8.667  0.9667 -0.3658  0.3201
   81SAPS  H17X 7608   4.509   3.051   8.630 -2.6499  0.2375 -0.0035
   81SAPS  H17Y 7609   4.633   3.179   8.665  0.5614  1.4661 -2.7831
   81SAPS  C318 7610   4.462   3.245   8.565  0.0862 -0.2365 -0.6374
   81SAPS  H18X 7611   4.465   3.350   8.601  1.8431  0.7369 -3.5135
   81SAPS  H18Y 7612   4.353   3.222   8.556 -0.1112  0.8036 -0.9967
   81SAPS  H18Z 7613   4.514   3.234   8.467  1.0886  0.9401 -0.2428
   82SAPS     N 7614   2.739   2.011  11.191  0.7017 -0.5035 -0.0167
   82SAPS   HN1 7615   2.706   2.023  11.093  1.3064 -2.4486 -0.4923
   82SAPS   HN2 7616   2.843   2.006  11.185  0.6750 -0.0505 -0.9694
   82SAPS   HN3 7617   2.711   1.913  11.216 -0.9247 -0.3759 -1.2753
   82SAPS   C12 7618   2.691   2.115  11.269 -0.2624  0.2064  0.9602
   82SAPS  H12A 7619   2.583   2.112  11.272 -0.2563  0.1446  1.1725
   82SAPS   C13 7620   2.750   2.131  11.413  0.7323 -1.2806  0.6294
   82SAPS  O13A 7621   2.830   2.042  11.464  0.4505  0.0051 -0.1724
   82SAPS  O13B 7622   2.686   2.215  11.481  0.8062 -0.2002  0.6977
   82SAPS   C11 7623   2.713   2.247  11.173 -0.0199 -0.9008  0.2665
   82SAPS  H11A 7624   2.818   2.276  11.195  0.0682 -1.0958  0.1000
   82SAPS  H11B 7625   2.642   2.322  11.215 -2.0443 -2.2868 -0.6046
   82SAPS     P 7626   2.632   2.353  10.952 -0.0614 -0.0119  0.4108
   82SAPS   O13 7627   2.496   2.398  11.000 -0.7888  0.0992 -0.0560
   82SAPS   O14 7628   2.730   2.456  10.924  0.5141 -0.1227  0.1367
   82SAPS   O12 7629   2.689   2.227  11.030  0.2150 -0.6273 -0.0714
   82SAPS   O11 7630   2.605   2.282  10.813 -0.0629 -0.0387  0.2722
   82SAPS    C1 7631   2.718   2.225  10.754  0.2681  0.1857 -0.0658
   82SAPS    HA 7632   2.799   2.180  10.815  0.7493  1.2455  0.0998
   82SAPS    HB 7633   2.678   2.139  10.697  0.8585 -0.0731 -0.0959
   82SAPS    C2 7634   2.785   2.308  10.643 -0.2840 -0.1532 -0.7447
   82SAPS    HS 7635   2.843   2.391  10.689  1.2445 -0.8987 -1.3035
   82SAPS   O21 7636   2.679   2.346  10.554 -0.0310 -0.5667 -0.0866
   82SAPS   C21 7637   2.670   2.474  10.526  0.4712  0.9345 -0.1607
   82SAPS   O22 7638   2.744   2.560  10.566  0.2964  0.3605  0.1690
   82SAPS   C22 7639   2.546   2.504  10.434 -0.3981  0.0644  0.3457
   82SAPS   H2R 7640   2.464   2.432  10.456 -1.0027  1.1629  1.7457
   82SAPS   H2S 7641   2.507   2.607  10.450  0.5598  0.6657 -1.1285
   82SAPS    C3 7642   2.903   2.233  10.570 -0.4986 -0.3353 -0.6604
   82SAPS    HX 7643   2.882   2.132  10.529  0.9243 -0.8721 -0.1124
   82SAPS    HY 7644   2.986   2.237  10.644 -1.0081  2.1516 -0.1849
   82SAPS   O31 7645   2.937   2.310  10.453 -0.2934 -0.1806  0.2502
   82SAPS   C31 7646   3.015   2.419  10.475 -0.0783 -0.6961  0.3398
   82SAPS   O32 7647   3.061   2.461  10.582  0.0810  0.0131  0.4608
   82SAPS   C32 7648   3.048   2.484  10.338  0.5878  0.5110 -0.4512
   82SAPS   H2X 7649   3.034   2.410  10.256  0.9037 -0.7308  0.5982
   82SAPS   H2Y 7650   3.156   2.502  10.355  0.6653 -2.0920  2.1459
   82SAPS   C23 7651   2.579   2.496  10.281 -0.2446 -0.6140  0.2002
   82SAPS   H3R 7652   2.641   2.586  10.262 -0.1690 -1.0230 -1.5437
   82SAPS   H3S 7653   2.487   2.515  10.222  1.8918  0.3902 -2.8852
   82SAPS   C24 7654   2.658   2.376  10.227 -1.2145 -0.2581  0.3547
   82SAPS   H4R 7655   2.756   2.366  10.277 -1.7418 -1.7448  1.1305
   82SAPS   H4S 7656   2.676   2.378  10.117 -0.6507  2.7008  0.4662
   82SAPS   C25 7657   2.579   2.254  10.271  0.6779 -0.5842 -0.6350
   82SAPS   H5R 7658   2.589   2.214  10.373  2.1005  1.5003  0.1037
   82SAPS   C26 7659   2.491   2.185  10.195 -0.9098 -0.9044 -0.5994
   82SAPS   H6R 7660   2.436   2.101  10.239 -0.5540 -1.3591 -1.0266
   82SAPS   C27 7661   2.459   2.213  10.047  0.3783  0.1967 -0.2088
   82SAPS   H7R 7662   2.525   2.297  10.016 -0.2775  0.8391  0.1123
   82SAPS   H7S 7663   2.355   2.249  10.030  0.0078 -0.0927  1.3949
   82SAPS   C28 7664   2.480   2.078   9.972 -0.3883 -0.4284 -0.5393
   82SAPS   H8R 7665   2.533   1.996  10.022 -0.2338  0.2932  0.4860
   82SAPS   C29 7666   2.430   2.049   9.854  0.2176  0.3686  0.5156
   82SAPS   H9R 7667   2.457   1.953   9.809  1.2220  0.9402 -0.1221
   82SAPS  C210 7668   2.347   2.144   9.770 -0.0767 -0.2695  0.2157
   82SAPS  H10R 7669   2.411   2.229   9.738  0.1939 -0.0928  1.2184
   82SAPS  H10S 7670   2.266   2.190   9.829  1.7758  2.8223  0.4497
   82SAPS  C211 7671   2.288   2.078   9.645  0.5993 -0.0040 -0.2469
   82SAPS  H11R 7672   2.251   1.975   9.653 -1.0735  0.6128  0.0656
   82SAPS  C212 7673   2.285   2.136   9.525  0.1520 -0.2099  0.7008
   82SAPS  H12R 7674   2.257   2.067   9.444 -0.2598  0.9630 -0.1641
   82SAPS  C213 7675   2.331   2.268   9.476 -0.8256 -0.0676 -0.1673
   82SAPS  H13R 7676   2.350   2.335   9.562 -0.5165 -0.8574  0.3898
   82SAPS  H13S 7677   2.242   2.321   9.435 -0.0361  0.8789 -0.6783
   82SAPS  C214 7678   2.439   2.233   9.380  0.0880  0.3353 -0.0656
   82SAPS  H14R 7679   2.503   2.147   9.406 -0.3377 -0.0722 -0.3714
   82SAPS  C215 7680   2.475   2.292   9.266 -0.8016  0.0968  0.2367
   82SAPS  H15R 7681   2.559   2.236   9.222 -0.0757 -0.6080  2.4508
   82SAPS  C216 7682   2.418   2.407   9.188 -0.4209  0.0216  0.0005
   82SAPS  H16R 7683   2.502   2.444   9.126 -1.2236  0.5320 -0.8056
   82SAPS  H16S 7684   2.379   2.491   9.251  0.5071  1.3269 -1.1425
   82SAPS  C217 7685   2.303   2.357   9.105  0.6795  0.1041 -0.1340
   82SAPS  H17R 7686   2.206   2.340   9.157  0.1456  0.7796 -0.8952
   82SAPS  H17S 7687   2.326   2.262   9.053  1.5805 -1.5208  3.0555
   82SAPS  C218 7688   2.278   2.448   8.983 -0.2267  0.0088 -0.5307
   82SAPS  H18R 7689   2.371   2.472   8.927  0.7737  1.9567  1.8802
   82SAPS  H18S 7690   2.243   2.543   9.029 -0.8716 -1.3018  1.7558
   82SAPS  C219 7691   2.168   2.392   8.894 -0.3653 -0.0557 -0.8136
   82SAPS  H19R 7692   2.073   2.388   8.952  0.3381  0.1202  0.3784
   82SAPS  H19S 7693   2.199   2.289   8.866  0.5638  0.6343 -2.3615
   82SAPS  C220 7694   2.147   2.468   8.764  0.2491 -0.4345  0.3949
   82SAPS  H20R 7695   2.115   2.572   8.782  0.9067 -0.4016  1.3842
   82SAPS  H20S 7696   2.060   2.425   8.710 -0.8364  1.8466  0.2800
   82SAPS  H20T 7697   2.241   2.472   8.705  0.2734 -1.0905  0.3801
   82SAPS   C33 7698   2.964   2.614  10.321 -0.1542  0.4162 -0.2250
   82SAPS   H3X 7699   2.964   2.682  10.408 -0.7166  1.9342 -1.3876
   82SAPS   H3Y 7700   2.861   2.576  10.300 -1.4094  2.2039  2.4184
   82SAPS   C34 7701   3.007   2.711  10.212  0.1056 -0.7613 -0.3716
   82SAPS   H4X 7702   3.114   2.734  10.231 -0.0303 -2.6839  3.1099
   82SAPS   H4Y 7703   2.930   2.791  10.210  0.3076 -0.5921 -1.4078
   82SAPS   C35 7704   2.983   2.644  10.076 -0.3546  0.4663 -0.2514
   82SAPS   H5X 7705   2.873   2.638  10.067 -0.4903 -0.4050  1.7156
   82SAPS   H5Y 7706   3.023   2.540  10.078 -1.8239 -0.0987  0.1136
   82SAPS   C36 7707   3.050   2.720   9.964 -0.1976  0.1869 -0.6666
   82SAPS   H6X 7708   3.159   2.716   9.986 -0.2691 -0.8734 -0.4619
   82SAPS   H6Y 7709   3.018   2.825   9.975 -0.3508  0.0081  0.7576
   82SAPS   C37 7710   3.027   2.672   9.827 -0.9206 -0.4131 -0.8010
   82SAPS   H7X 7711   2.926   2.691   9.783 -1.3332 -0.2069  0.2324
   82SAPS   H7Y 7712   3.050   2.563   9.822  0.2853 -0.2231  0.4125
   82SAPS   C38 7713   3.118   2.733   9.723 -0.2713 -0.7811 -0.4753
   82SAPS   H8X 7714   3.220   2.696   9.748 -0.8210 -1.9679  0.0275
   82SAPS   H8Y 7715   3.118   2.844   9.720  0.1640 -0.7943 -1.5130
   82SAPS   C39 7716   3.098   2.682   9.585 -0.0689  0.2247  0.1317
   82SAPS   H9X 7717   2.996   2.711   9.553  0.3463 -0.2069 -1.6645
   82SAPS   H9Y 7718   3.095   2.571   9.589 -1.4498  0.1353 -2.3156
   82SAPS  C310 7719   3.194   2.734   9.470  0.5517  0.0354 -0.6557
   82SAPS  H10X 7720   3.299   2.700   9.480  0.5156  0.0359 -0.2523
   82SAPS  H10Y 7721   3.190   2.843   9.450  0.0842  0.0347 -0.5827
   82SAPS  C311 7722   3.147   2.674   9.344  0.4975  0.1113 -0.5032
   82SAPS  H11X 7723   3.037   2.683   9.332  0.3291 -0.7109  0.3894
   82SAPS  H11Y 7724   3.158   2.563   9.342  1.4241  0.1870  0.5116
   82SAPS  C312 7725   3.220   2.728   9.224  0.5797 -0.0916 -0.5351
   82SAPS  H12X 7726   3.328   2.709   9.240  0.8353  0.5138 -1.5079
   82SAPS  H12Y 7727   3.210   2.839   9.225 -1.4110 -0.2523 -0.3237
   82SAPS  C313 7728   3.168   2.669   9.096 -0.6761 -1.1508 -0.1031
   82SAPS  H13X 7729   3.061   2.699   9.087 -0.3241 -0.5451 -2.6568
   82SAPS  H13Y 7730   3.171   2.558   9.096  0.6386 -1.1249 -1.0319
   82SAPS  C314 7731   3.233   2.722   8.966  0.1878 -0.2456  0.1848
   82SAPS  H14X 7732   3.334   2.680   8.950 -0.3378 -0.7921 -1.9668
   82SAPS  H14Y 7733   3.249   2.831   8.980 -0.9249  0.0459 -0.6528
   82SAPS  C315 7734   3.149   2.704   8.840  0.1294  0.3075  0.1381
   82SAPS  H15X 7735   3.215   2.707   8.751  3.1073 -0.4516  2.2232
   82SAPS  H15Y 7736   3.073   2.784   8.824  0.7988  0.9539  0.1682
   82SAPS  C316 7737   3.083   2.570   8.828  0.3217 -0.4475  0.1009
   82SAPS  H16X 7738   3.005   2.587   8.751 -1.7963 -0.6237  2.1505
   82SAPS  H16Y 7739   3.033   2.538   8.922  0.4672 -1.0131 -0.0179
   82SAPS  C317 7740   3.173   2.460   8.771 -0.3467  0.3819 -0.4655
   82SAPS  H17X 7741   3.236   2.411   8.847 -0.4980  0.3677 -0.3478
   82SAPS  H17Y 7742   3.250   2.492   8.698  1.3150 -0.9009  0.6960
   82SAPS  C318 7743   3.085   2.361   8.693  0.1672  0.4438 -0.8137
   82SAPS  H18X 7744   3.012   2.418   8.631  1.2484  0.5415 -2.0272
   82SAPS  H18Y 7745   3.026   2.306   8.769 -0.5887  1.9966 -0.2538
   82SAPS  H18Z 7746   3.142   2.285   8.635 -0.5861 -0.0065 -0.9706
   83SAPS     N 7747   4.580   3.645  11.358  0.1371  0.0485  0.1766
   83SAPS   HN1 7748   4.492   3.638  11.304  0.4515  1.5266 -0.5486
   83SAPS   HN2 7749   4.670   3.612  11.316  0.6165  0.4742  0.8677
   83SAPS   HN3 7750   4.555   3.572  11.428  2.3707  1.9671  3.0642
   83SAPS   C12 7751   4.592   3.776  11.438  1.0339  0.0576 -0.3882
   83SAPS  H12A 7752   4.489   3.810  11.441  0.5176 -1.4749 -0.1306
   83SAPS   C13 7753   4.641   3.752  11.583 -0.4534 -0.1122 -0.5842
   83SAPS  O13A 7754   4.656   3.640  11.638  0.9193 -0.2486 -0.0749
   83SAPS  O13B 7755   4.647   3.859  11.651 -0.4643 -0.3356  0.0720
   83SAPS   C11 7756   4.680   3.877  11.361 -0.0712 -0.3548 -0.1228
   83SAPS  H11A 7757   4.786   3.868  11.395 -0.2782 -0.9079  0.3727
   83SAPS  H11B 7758   4.631   3.971  11.395  0.5921 -0.3167  0.7650
   83SAPS     P 7759   4.749   3.804  11.123  0.2281 -0.2659  0.2010
   83SAPS   O13 7760   4.826   3.704  11.208  0.2212 -0.1763 -0.5859
   83SAPS   O14 7761   4.671   3.744  11.011 -0.1107  0.2984 -0.7741
   83SAPS   O12 7762   4.658   3.879  11.221 -0.5456  0.0991  0.2506
   83SAPS   O11 7763   4.843   3.918  11.063 -0.0435  0.1550 -0.3189
   83SAPS    C1 7764   4.800   4.057  11.070 -0.3758 -0.1758 -0.0744
   83SAPS    HA 7765   4.694   4.072  11.097 -1.4628  0.1635 -4.1246
   83SAPS    HB 7766   4.865   4.101  11.149 -0.9281 -0.0292  0.2940
   83SAPS    C2 7767   4.828   4.135  10.933  0.1047  0.1611 -0.7855
   83SAPS    HS 7768   4.779   4.234  10.946  0.8195  0.4651 -0.3571
   83SAPS   O21 7769   4.762   4.065  10.825  0.0053  0.3615 -0.1673
   83SAPS   C21 7770   4.637   4.076  10.808  0.4791 -0.8699 -0.5239
   83SAPS   O22 7771   4.559   4.148  10.867  0.3531 -0.3641  0.3399
   83SAPS   C22 7772   4.586   3.988  10.692  0.0954  0.0628  0.4516
   83SAPS   H2R 7773   4.646   3.991  10.598  1.1605 -0.9708  1.0822
   83SAPS   H2S 7774   4.609   3.884  10.722 -0.0649 -1.1105 -3.2590
   83SAPS    C3 7775   4.982   4.134  10.899  0.0015 -0.3255 -0.3510
   83SAPS    HX 7776   5.014   4.027  10.905 -1.2188 -0.7663 -1.3575
   83SAPS    HY 7777   5.034   4.197  10.974 -0.9367  0.0712 -0.0234
   83SAPS   O31 7778   4.992   4.183  10.765 -0.4882  0.4155  0.1305
   83SAPS   C31 7779   5.058   4.292  10.754  0.0764  0.1009 -0.3488
   83SAPS   O32 7780   5.116   4.357  10.842 -0.1036  0.0278  0.0305
   83SAPS   C32 7781   5.060   4.322  10.606 -0.0107 -0.4057  0.1683
   83SAPS   H2X 7782   4.958   4.361  10.590  0.6089  0.4952 -1.7551
   83SAPS   H2Y 7783   5.092   4.233  10.549 -3.2035 -2.0533  0.8567
   83SAPS   C23 7784   4.443   4.006  10.667 -0.6293 -0.0706 -0.1985
   83SAPS   H3R 7785   4.434   4.102  10.611  1.8971  0.2140 -0.1580
   83SAPS   H3S 7786   4.400   4.019  10.769 -2.1345 -4.5952 -0.1659
   83SAPS   C24 7787   4.371   3.893  10.589 -0.2206  0.3084  0.2405
   83SAPS   H4R 7788   4.396   3.798  10.642 -0.3752 -0.0351 -0.3031
   83SAPS   H4S 7789   4.420   3.878  10.490  1.5938 -3.7210  1.6158
   83SAPS   C25 7790   4.221   3.902  10.578  0.1948  0.0308  0.4838
   83SAPS   H5R 7791   4.163   3.956  10.654 -0.5006 -0.3267  0.2137
   83SAPS   C26 7792   4.147   3.870  10.466  0.5241  0.2804  0.0406
   83SAPS   H6R 7793   4.037   3.869  10.465  0.5299  0.0989 -0.7519
   83SAPS   C27 7794   4.197   3.820  10.330  0.5254  0.6622  0.1175
   83SAPS   H7R 7795   4.298   3.857  10.304  0.7937 -0.9832 -1.2932
   83SAPS   H7S 7796   4.131   3.858  10.249  0.1894  0.7212  0.4200
   83SAPS   C28 7797   4.211   3.666  10.338 -0.3740  0.2000  0.4088
   83SAPS   H8R 7798   4.299   3.633  10.395 -1.7994 -1.4271  1.6782
   83SAPS   C29 7799   4.128   3.576  10.282  0.9235  1.0419 -0.5186
   83SAPS   H9R 7800   4.150   3.468  10.283 -2.4983  0.2886  0.4538
   83SAPS  C210 7801   4.015   3.598  10.198 -0.2026 -0.5320  0.0916
   83SAPS  H10R 7802   3.964   3.694  10.218  0.7567  0.1625 -0.6870
   83SAPS  H10S 7803   3.944   3.516  10.221 -0.3689 -0.7933 -1.2643
   83SAPS  C211 7804   4.051   3.582  10.055 -0.3830 -0.4275  0.3296
   83SAPS  H11R 7805   4.140   3.641  10.028 -0.9087  0.6153  0.8183
   83SAPS  C212 7806   3.987   3.508   9.970  0.0666  0.1772  0.1232
   83SAPS  H12R 7807   4.024   3.516   9.867  1.4128  0.9148  0.6640
   83SAPS  C213 7808   3.864   3.419   9.993 -0.7221 -0.2406  0.5446
   83SAPS  H13R 7809   3.837   3.418  10.101  0.8684  1.0027  0.9813
   83SAPS  H13S 7810   3.892   3.314   9.972  0.3079  0.3961 -1.3760
   83SAPS  C214 7811   3.752   3.464   9.911  0.6520 -0.1591  0.8002
   83SAPS  H14R 7812   3.683   3.535   9.959 -0.9810 -0.4915 -0.9739
   83SAPS  C215 7813   3.725   3.438   9.781  0.1256  0.6226 -0.0316
   83SAPS  H15R 7814   3.640   3.480   9.725  0.8881  0.0839 -1.6485
   83SAPS  C216 7815   3.804   3.347   9.687 -0.1942 -0.6298  0.0362
   83SAPS  H16R 7816   3.728   3.282   9.638 -1.8470 -0.6384  2.5330
   83SAPS  H16S 7817   3.875   3.279   9.740  1.5056  0.7993 -0.3687
   83SAPS  C217 7818   3.858   3.443   9.579 -0.3121  0.1271 -0.7567
   83SAPS  H17R 7819   3.965   3.460   9.602 -0.4022 -0.7592  0.3359
   83SAPS  H17S 7820   3.796   3.535   9.585  0.1506  0.4201 -0.4809
   83SAPS  C218 7821   3.836   3.393   9.438 -0.4410 -0.5557 -0.1424
   83SAPS  H18R 7822   3.747   3.444   9.396  0.7818  2.0822  0.3439
   83SAPS  H18S 7823   3.823   3.283   9.438  1.4114 -0.7881  0.9326
   83SAPS  C219 7824   3.955   3.416   9.343  0.5697 -0.3534 -0.8121
   83SAPS  H19R 7825   4.035   3.353   9.387  2.2664  2.9487  1.0126
   83SAPS  H19S 7826   3.976   3.525   9.341  0.0253 -0.1973  0.9669
   83SAPS  C220 7827   3.927   3.367   9.202  0.1915 -0.1352  0.7036
   83SAPS  H20R 7828   3.834   3.412   9.160  0.1189 -0.0155  0.9961
   83SAPS  H20S 7829   3.906   3.259   9.208 -0.4025 -0.2269 -2.1309
   83SAPS  H20T 7830   4.003   3.393   9.124 -0.8324  1.3652  0.1648
   83SAPS   C33 7831   5.161   4.435  10.563 -0.7056 -0.1658  0.4919
   83SAPS   H3X 7832   5.266   4.397  10.568 -0.1819  1.1452 -0.2730
   83SAPS   H3Y 7833   5.141   4.531  10.616 -0.2935 -0.3777  1.0464
   83SAPS   C34 7834   5.157   4.458  10.409 -0.1435  1.0360 -0.7595
   83SAPS   H4X 7835   5.175   4.358  10.364  1.2601  1.3898 -0.9906
   83SAPS   H4Y 7836   5.225   4.540  10.377  0.0792  0.9986 -0.3862
   83SAPS   C35 7837   5.019   4.508  10.351 -0.1903 -0.1515 -0.6043
   83SAPS   H5X 7838   4.972   4.595  10.401 -0.7537 -0.6650 -0.2490
   83SAPS   H5Y 7839   4.949   4.422  10.359 -0.3726 -0.1521 -2.1112
   83SAPS   C36 7840   5.045   4.538  10.204 -0.4059 -0.0936 -0.6100
   83SAPS   H6X 7841   5.132   4.479  10.166 -0.3774  0.1185 -0.8771
   83SAPS   H6Y 7842   5.062   4.647  10.196 -0.7189 -0.0679 -0.9167
   83SAPS   C37 7843   4.924   4.498  10.123  0.0195 -0.0691  0.5762
   83SAPS   H7X 7844   4.827   4.526  10.169 -0.1944  0.7694 -0.3698
   83SAPS   H7Y 7845   4.924   4.387  10.130 -2.6937  0.0040  2.2989
   83SAPS   C38 7846   4.918   4.520   9.974 -0.3303  0.0103  0.2690
   83SAPS   H8X 7847   5.015   4.494   9.926  0.0460 -1.3429  1.7540
   83SAPS   H8Y 7848   4.911   4.630   9.961  3.7731  0.1456 -1.4959
   83SAPS   C39 7849   4.800   4.446   9.908 -0.1859 -0.1474  0.0190
   83SAPS   H9X 7850   4.704   4.455   9.964 -0.1989  1.4263 -0.2392
   83SAPS   H9Y 7851   4.819   4.337   9.914 -1.1311 -0.2358  1.6711
   83SAPS  C310 7852   4.769   4.486   9.759 -0.3009  0.0331 -0.2037
   83SAPS  H10X 7853   4.710   4.579   9.769 -1.3775 -0.7208  0.5354
   83SAPS  H10Y 7854   4.699   4.406   9.728 -1.8826  0.8322  1.2611
   83SAPS  C311 7855   4.886   4.501   9.655 -0.3570 -0.1415 -0.4627
   83SAPS  H11X 7856   4.960   4.433   9.702 -1.6597 -1.7289 -0.6423
   83SAPS  H11Y 7857   4.925   4.604   9.670 -1.7569  0.3547 -0.0670
   83SAPS  C312 7858   4.851   4.491   9.510 -0.1832 -0.5794  0.1040
   83SAPS  H12X 7859   4.933   4.524   9.443  0.6435 -0.5870  1.0961
   83SAPS  H12Y 7860   4.760   4.554   9.497 -0.7377 -1.2631  0.5900
   83SAPS  C313 7861   4.803   4.353   9.464  0.5818  0.8788  0.6546
   83SAPS  H13X 7862   4.708   4.333   9.519 -0.2001  2.4961 -0.0587
   83SAPS  H13Y 7863   4.872   4.280   9.510 -2.6613 -0.5275  3.5196
   83SAPS  C314 7864   4.789   4.334   9.313  0.3491  0.9756  0.2430
   83SAPS  H14X 7865   4.748   4.233   9.293  0.6088  0.9499 -0.1775
   83SAPS  H14Y 7866   4.893   4.351   9.277  1.0274 -1.5559  0.9228
   83SAPS  C315 7867   4.705   4.439   9.227 -0.1278 -0.2969  1.0802
   83SAPS  H15X 7868   4.758   4.534   9.250  1.9133 -1.8903  3.2561
   83SAPS  H15Y 7869   4.602   4.444   9.267 -0.5631 -0.7161  0.0328
   83SAPS  C316 7870   4.694   4.410   9.084 -0.4407 -0.2769  0.3515
   83SAPS  H16X 7871   4.795   4.408   9.038 -0.3742  0.0048  0.4816
   83SAPS  H16Y 7872   4.642   4.494   9.033  0.2893  0.3528  0.6259
   83SAPS  C317 7873   4.611   4.286   9.045  0.0770  0.2140 -0.3388
   83SAPS  H17X 7874   4.510   4.272   9.089 -0.6956 -1.5295 -2.5529
   83SAPS  H17Y 7875   4.675   4.199   9.074  2.6074  1.2991 -2.4110
   83SAPS  C318 7876   4.597   4.288   8.891  0.2734 -0.4336  0.4428
   83SAPS  H18X 7877   4.557   4.189   8.860 -0.8175 -0.0323  0.5780
   83SAPS  H18Y 7878   4.698   4.298   8.846  1.2867 -1.5197  2.3956
   83SAPS  H18Z 7879   4.531   4.372   8.863  0.6255 -0.5215 -0.6695
   84SAPS     N 7880   6.435   4.436  11.098  0.2287  0.2343 -0.0464
   84SAPS   HN1 7881   6.502   4.497  11.149 -2.2374  1.7969  1.4434
   84SAPS   HN2 7882   6.475   4.424  11.003 -1.6698  1.1154 -0.9851
   84SAPS   HN3 7883   6.360   4.507  11.091  1.3948  1.4261 -0.6201
   84SAPS   C12 7884   6.397   4.311  11.169  0.0260 -0.4532  0.0836
   84SAPS  H12A 7885   6.399   4.232  11.095 -0.6733 -2.2717  1.9687
   84SAPS   C13 7886   6.507   4.266  11.269 -0.0686  0.2291  0.2244
   84SAPS  O13A 7887   6.599   4.350  11.298 -0.1805  0.4049 -0.1812
   84SAPS  O13B 7888   6.486   4.161  11.333 -0.0265  0.0522  0.0841
   84SAPS   C11 7889   6.255   4.332  11.231  0.3539 -0.2682 -0.3541
   84SAPS  H11A 7890   6.239   4.424  11.291  0.3982 -0.0965 -0.6039
   84SAPS  H11B 7891   6.239   4.246  11.299  0.6347 -1.2828 -1.5542
   84SAPS     P 7892   6.087   4.205  11.069 -0.2557  0.2440  0.4601
   84SAPS   O13 7893   6.107   4.089  11.160 -0.5043 -0.0426  0.4942
   84SAPS   O14 7894   5.946   4.250  11.043 -0.5912 -0.1327  0.4281
   84SAPS   O12 7895   6.163   4.336  11.126  1.0056 -0.2182  0.0303
   84SAPS   O11 7896   6.163   4.168  10.934 -0.2294 -0.0055  0.1754
   84SAPS    C1 7897   6.209   4.273  10.848 -0.0584 -0.0294 -0.1011
   84SAPS    HA 7898   6.187   4.377  10.881 -0.2405  0.0688 -0.5308
   84SAPS    HB 7899   6.320   4.263  10.843 -0.0625 -0.2407  0.2108
   84SAPS    C2 7900   6.161   4.259  10.704 -0.4186  0.2397 -0.6418
   84SAPS    HS 7901   6.219   4.338  10.651  1.6525  0.2921  1.6352
   84SAPS   O21 7902   6.020   4.274  10.689  0.3111 -0.5257 -0.2992
   84SAPS   C21 7903   5.973   4.395  10.693 -0.1951 -0.1261  0.2265
   84SAPS   O22 7904   6.036   4.502  10.697 -0.0404  0.1967  1.0093
   84SAPS   C22 7905   5.817   4.379  10.678 -0.0645  0.3925 -1.4011
   84SAPS   H2R 7906   5.797   4.277  10.640  1.9537 -1.0581  1.2620
   84SAPS   H2S 7907   5.778   4.393  10.781  0.6397  1.9188 -1.3179
   84SAPS    C3 7908   6.193   4.120  10.633 -0.0496  0.0497  0.2932
   84SAPS    HX 7909   6.120   4.057  10.687 -0.9759 -0.3920 -1.4307
   84SAPS    HY 7910   6.299   4.093  10.654 -0.2112  0.6931  1.9573
   84SAPS   O31 7911   6.165   4.127  10.494  0.2194  0.2140 -0.2892
   84SAPS   C31 7912   6.236   4.044  10.413  0.2495 -0.3166 -0.4470
   84SAPS   O32 7913   6.328   3.974  10.447 -0.0344 -0.2704 -0.3552
   84SAPS   C32 7914   6.161   4.043  10.282  0.2872 -0.7485 -0.0961
   84SAPS   H2X 7915   6.198   4.131  10.224 -1.8787  1.0621  1.1747
   84SAPS   H2Y 7916   6.054   4.067  10.299  0.8651  1.2684  0.9182
   84SAPS   C23 7917   5.770   4.485  10.585 -0.1199 -0.2551  0.7941
   84SAPS   H3R 7918   5.824   4.482  10.488  1.8764  2.8973  1.7046
   84SAPS   H3S 7919   5.794   4.588  10.620  0.4544  0.1674 -0.7669
   84SAPS   C24 7920   5.614   4.498  10.568  0.4977  0.4762 -0.0919
   84SAPS   H4R 7921   5.579   4.590  10.517 -0.9616  0.9582  1.6986
   84SAPS   H4S 7922   5.580   4.513  10.673  1.3529  0.3402  0.2076
   84SAPS   C25 7923   5.545   4.380  10.495 -0.1438 -0.3036  0.9341
   84SAPS   H5R 7924   5.535   4.291  10.559  0.9581 -1.8048 -0.9242
   84SAPS   C26 7925   5.504   4.376  10.372 -0.4538 -0.1061  0.4566
   84SAPS   H6R 7926   5.473   4.280  10.327  0.2187 -1.2311  2.3684
   84SAPS   C27 7927   5.513   4.488  10.272  0.5142  0.2276  0.0402
   84SAPS   H7R 7928   5.611   4.537  10.287 -0.6845  3.0270 -0.8547
   84SAPS   H7S 7929   5.429   4.558  10.293 -0.3863 -1.0690  0.7872
   84SAPS   C28 7930   5.504   4.429  10.134 -0.3637 -0.3832 -0.2925
   84SAPS   H8R 7931   5.525   4.322  10.119  1.0359 -0.2111  0.4229
   84SAPS   C29 7932   5.449   4.486  10.027 -0.6583 -0.5667 -0.0800
   84SAPS   H9R 7933   5.438   4.428   9.934  0.8999  1.1217 -1.3556
   84SAPS  C210 7934   5.384   4.615  10.014 -0.3897  0.5056  0.0032
   84SAPS  H10R 7935   5.352   4.643  10.117  1.1596 -0.3966  0.7546
   84SAPS  H10S 7936   5.296   4.608   9.947  1.6464  0.1201 -2.7135
   84SAPS  C211 7937   5.470   4.721   9.950  0.3375 -0.0863 -0.0663
   84SAPS  H11R 7938   5.571   4.696   9.916  0.6455  0.0544  0.7430
   84SAPS  C212 7939   5.413   4.844   9.918 -0.0652 -0.0545  0.2352
   84SAPS  H12R 7940   5.478   4.914   9.864 -0.9298 -1.1759 -2.3651
   84SAPS  C213 7941   5.278   4.892   9.938 -0.4015 -0.0481 -0.0458
   84SAPS  H13R 7942   5.224   4.839  10.020 -0.7393 -1.6607 -1.2928
   84SAPS  H13S 7943   5.214   4.866   9.852  0.2825  1.4999 -1.0386
   84SAPS  C214 7944   5.277   5.038   9.962  0.4438  0.4335  0.6907
   84SAPS  H14R 7945   5.341   5.066  10.047  0.7765 -0.7269  0.8321
   84SAPS  C215 7946   5.204   5.136   9.895  0.4121 -0.1718 -0.5764
   84SAPS  H15R 7947   5.208   5.242   9.923  2.0688 -0.1096 -1.0084
   84SAPS  C216 7948   5.102   5.108   9.786  0.0629  0.2318  0.1560
   84SAPS  H16R 7949   5.021   5.180   9.808 -0.0098 -0.0925  0.9550
   84SAPS  H16S 7950   5.053   5.008   9.790 -0.5251  0.4851 -0.5135
   84SAPS  C217 7951   5.149   5.139   9.642  0.1630 -0.1605 -0.0361
   84SAPS  H17R 7952   5.054   5.135   9.586  1.8395  1.8116 -3.1818
   84SAPS  H17S 7953   5.220   5.063   9.604 -0.1802 -0.3458 -0.3070
   84SAPS  C218 7954   5.223   5.275   9.628 -0.2011 -0.3753 -0.3767
   84SAPS  H18R 7955   5.239   5.287   9.519 -1.4134 -1.7563 -0.7346
   84SAPS  H18S 7956   5.319   5.268   9.682 -1.0093 -1.3280  0.9668
   84SAPS  C219 7957   5.137   5.388   9.685 -0.0845 -0.3695 -0.5501
   84SAPS  H19R 7958   5.150   5.397   9.795  0.2309  0.4682 -0.6488
   84SAPS  H19S 7959   5.032   5.362   9.660  0.0051 -2.2218  0.8418
   84SAPS  C220 7960   5.168   5.534   9.634 -0.6658  0.4196  0.0405
   84SAPS  H20R 7961   5.275   5.556   9.656 -0.4315  1.0048 -1.6087
   84SAPS  H20S 7962   5.099   5.606   9.683 -0.0212  1.1899 -0.1619
   84SAPS  H20T 7963   5.148   5.545   9.525 -1.7445 -1.5227  0.0174
   84SAPS   C33 7964   6.180   3.909  10.203 -0.1158 -0.7229  0.8865
   84SAPS   H3X 7965   6.108   3.833  10.241  0.2697 -0.0490  3.0561
   84SAPS   H3Y 7966   6.288   3.888  10.212  0.6641  1.4489 -2.6904
   84SAPS   C34 7967   6.147   3.920  10.053  0.5463  0.8365 -0.0677
   84SAPS   H4X 7968   6.037   3.911  10.035  0.5543 -1.0481  0.7321
   84SAPS   H4Y 7969   6.183   3.824  10.011  1.6847  2.0358 -1.9077
   84SAPS   C35 7970   6.210   4.022   9.962 -0.3174 -0.2911 -0.0078
   84SAPS   H5X 7971   6.321   4.023   9.965 -0.2616  0.8717 -1.7656
   84SAPS   H5Y 7972   6.177   4.126   9.984  0.2618 -0.2844  0.8436
   84SAPS   C36 7973   6.169   3.999   9.813  0.3985 -0.2080 -0.5326
   84SAPS   H6X 7974   6.066   4.034   9.793 -0.1866 -1.7479 -0.2821
   84SAPS   H6Y 7975   6.174   3.890   9.790  0.8739 -0.5072  0.9317
   84SAPS   C37 7976   6.263   4.070   9.713  0.4744  0.2039  0.0293
   84SAPS   H7X 7977   6.363   4.033   9.742  1.2495  0.8244 -1.8233
   84SAPS   H7Y 7978   6.268   4.179   9.734  0.6641  0.2283 -0.1480
   84SAPS   C38 7979   6.236   4.038   9.566 -0.5235 -0.0188  0.5283
   84SAPS   H8X 7980   6.251   3.932   9.539 -1.2803 -0.6907  2.6688
   84SAPS   H8Y 7981   6.316   4.089   9.508 -0.0238 -1.0945  0.2649
   84SAPS   C39 7982   6.114   4.093   9.515  0.1678  1.3474 -0.3737
   84SAPS   H9X 7983   6.109   4.201   9.541  2.0847  1.2061  0.6938
   84SAPS   H9Y 7984   6.024   4.038   9.546  0.8572  1.9670  2.9205
   84SAPS  C310 7985   6.109   4.102   9.359 -0.6379 -0.3109 -0.1399
   84SAPS  H10X 7986   6.150   4.006   9.322  2.3121  0.7482  0.2873
   84SAPS  H10Y 7987   6.182   4.183   9.336 -0.7219 -0.1983 -0.0115
   84SAPS  C311 7988   5.981   4.130   9.288  0.3509  0.2964 -0.3024
   84SAPS  H11X 7989   5.939   4.031   9.258  0.9748  0.6754 -2.4957
   84SAPS  H11Y 7990   5.997   4.191   9.196  0.5023 -1.3835 -1.4166
   84SAPS  C312 7991   5.867   4.195   9.364 -1.1722 -0.3488 -0.8915
   84SAPS  H12X 7992   5.869   4.155   9.468 -0.7492  1.4440 -0.1966
   84SAPS  H12Y 7993   5.774   4.172   9.308  0.4912 -2.7277 -2.7751
   84SAPS  C313 7994   5.870   4.348   9.355  0.0334  0.5650  0.3394
   84SAPS  H13X 7995   5.965   4.388   9.396  1.0161 -0.6485 -0.7233
   84SAPS  H13Y 7996   5.785   4.379   9.420  1.0897  2.3033  0.9319
   84SAPS  C314 7997   5.852   4.397   9.213  0.6435  0.5421  0.2443
   84SAPS  H14X 7998   5.807   4.319   9.149 -0.6214  0.3664  1.3326
   84SAPS  H14Y 7999   5.949   4.432   9.171 -0.6168  2.7276 -0.9762
   84SAPS  C315 8000   5.766   4.527   9.211 -0.3683  0.5555  0.3727
   84SAPS  H15X 8001   5.812   4.588   9.292  1.4372 -1.1129  0.6224
   84SAPS  H15Y 8002   5.663   4.499   9.244 -0.8674  0.1613 -1.4821
   84SAPS  C316 8003   5.758   4.611   9.075  0.5338 -1.4404 -1.2809
   84SAPS  H16X 8004   5.713   4.549   8.995 -2.6896  0.1136 -0.7681
   84SAPS  H16Y 8005   5.866   4.630   9.063  0.9620 -1.7089  1.7636
   84SAPS  C317 8006   5.673   4.747   9.098  0.0839 -0.4345 -0.5786
   84SAPS  H17X 8007   5.701   4.777   9.201 -1.6927 -1.1835  0.1501
   84SAPS  H17Y 8008   5.562   4.744   9.104  0.0924 -0.1255 -0.2120
   84SAPS  C318 8009   5.696   4.855   8.993  0.0981 -0.0336  0.5980
   84SAPS  H18X 8010   5.631   4.942   9.015  0.3539  0.2196  0.3536
   84SAPS  H18Y 8011   5.664   4.821   8.893 -0.0116  0.3326  0.5078
   84SAPS  H18Z 8012   5.804   4.882   8.988  0.3021 -0.8430  0.5650
   85SAPS     N 8013   2.681   5.484  11.165  0.2216  0.6546 -0.4565
   85SAPS   HN1 8014   2.666   5.515  11.067  3.3734  3.0434 -0.2625
   85SAPS   HN2 8015   2.695   5.573  11.217  2.3001  0.1928 -0.1880
   85SAPS   HN3 8016   2.762   5.420  11.168 -1.3738 -1.5273 -1.8791
   85SAPS   C12 8017   2.545   5.418  11.194 -0.0225 -0.3713 -0.4125
   85SAPS  H12A 8018   2.541   5.336  11.124  3.8580 -0.8077 -0.2517
   85SAPS   C13 8019   2.530   5.373  11.343  0.5035  0.1665  0.4302
   85SAPS  O13A 8020   2.626   5.384  11.420  0.0287  0.3023 -0.0356
   85SAPS  O13B 8021   2.418   5.332  11.380 -0.1965 -0.0975  0.5688
   85SAPS   C11 8022   2.429   5.522  11.160  0.6396  0.2984 -0.1967
   85SAPS  H11A 8023   2.449   5.623  11.201  0.1027 -0.3092  1.6628
   85SAPS  H11B 8024   2.339   5.478  11.210  0.6606  0.5510  0.0669
   85SAPS     P 8025   2.451   5.639  10.940  0.3678 -0.0101  0.0933
   85SAPS   O13 8026   2.396   5.762  10.994  0.7328 -0.8613 -0.0108
   85SAPS   O14 8027   2.599   5.624  10.925  0.1221 -0.4379  0.4567
   85SAPS   O12 8028   2.400   5.521  11.027  0.6106  0.7371 -0.3176
   85SAPS   O11 8029   2.372   5.612  10.800 -0.8972 -0.2113  0.6041
   85SAPS    C1 8030   2.365   5.475  10.748  0.4906  0.1234  0.0200
   85SAPS    HA 8031   2.355   5.391  10.820  0.7710 -0.4883 -0.6498
   85SAPS    HB 8032   2.275   5.470  10.682  2.2461  1.6777 -2.5546
   85SAPS    C2 8033   2.483   5.458  10.644  0.0250  0.5397 -0.6120
   85SAPS    HS 8034   2.577   5.469  10.703  0.4763 -3.5823 -0.3970
   85SAPS   O21 8035   2.476   5.555  10.538 -0.4109  0.0985 -0.0571
   85SAPS   C21 8036   2.599   5.606  10.498 -0.4949 -0.0445 -0.4131
   85SAPS   O22 8037   2.703   5.591  10.560  0.4489  1.2316 -0.3181
   85SAPS   C22 8038   2.587   5.679  10.362 -0.1682 -0.4054 -0.0823
   85SAPS   H2R 8039   2.608   5.604  10.283  2.0323 -2.9512  2.8289
   85SAPS   H2S 8040   2.485   5.725  10.360 -0.7789 -1.7909 -1.7308
   85SAPS    C3 8041   2.490   5.306  10.592  0.8257 -0.3876 -0.8995
   85SAPS    HX 8042   2.384   5.285  10.565  0.6688  0.3307 -0.8580
   85SAPS    HY 8043   2.510   5.222  10.661 -2.2413 -0.1391  0.3876
   85SAPS   O31 8044   2.573   5.295  10.473  0.0738  0.3940 -0.2532
   85SAPS   C31 8045   2.699   5.280  10.491 -0.1078 -0.6444 -1.3461
   85SAPS   O32 8046   2.755   5.273  10.599 -0.2418 -0.3872 -0.7995
   85SAPS   C32 8047   2.760   5.258  10.349  1.0954 -0.5665  0.5515
   85SAPS   H2X 8048   2.681   5.244  10.273  2.1073  0.7621 -0.7760
   85SAPS   H2Y 8049   2.823   5.167  10.358  1.7228 -0.0538  1.4922
   85SAPS   C23 8050   2.687   5.794  10.355 -0.5938  0.1049 -0.7701
   85SAPS   H3R 8051   2.782   5.741  10.381 -1.1108 -0.6762 -0.4739
   85SAPS   H3S 8052   2.668   5.872  10.431 -0.9917  0.1396 -0.9067
   85SAPS   C24 8053   2.689   5.864  10.214 -0.6352 -0.4576 -0.1329
   85SAPS   H4R 8054   2.756   5.953  10.211 -0.5512 -0.5476 -1.5068
   85SAPS   H4S 8055   2.591   5.899  10.177 -1.2536 -0.1029  1.7932
   85SAPS   C25 8056   2.743   5.778  10.104 -0.4672  0.7983  0.1379
   85SAPS   H5R 8057   2.805   5.693  10.135  0.6310  1.1619 -1.0054
   85SAPS   C26 8058   2.724   5.791   9.971  0.1898 -0.1463 -0.9022
   85SAPS   H6R 8059   2.774   5.721   9.903 -1.1890  0.8900 -3.0512
   85SAPS   C27 8060   2.644   5.899   9.898  0.3317  0.5846  0.4848
   85SAPS   H7R 8061   2.699   5.994   9.880 -1.7945  1.3280 -2.4251
   85SAPS   H7S 8062   2.568   5.929   9.973 -0.7027 -0.6695 -0.0435
   85SAPS   C28 8063   2.570   5.866   9.769  0.4323  0.6418  0.0947
   85SAPS   H8R 8064   2.460   5.867   9.766  0.4553  2.2232 -0.4209
   85SAPS   C29 8065   2.609   5.861   9.638  0.0921  0.1312 -0.7041
   85SAPS   H9R 8066   2.534   5.841   9.561  0.0035 -3.5552  0.2515
   85SAPS  C210 8067   2.749   5.871   9.589 -0.2414 -0.5971 -0.2864
   85SAPS  H10R 8068   2.813   5.841   9.674 -0.3009  0.5731  0.1652
   85SAPS  H10S 8069   2.771   5.978   9.569  0.0402 -0.1244  2.3694
   85SAPS  C211 8070   2.778   5.769   9.473  0.0360 -0.4350  1.0043
   85SAPS  H11R 8071   2.786   5.663   9.501  0.9856 -0.5280  0.4214
   85SAPS  C212 8072   2.803   5.788   9.339  0.2125  0.5567 -0.6894
   85SAPS  H12R 8073   2.825   5.697   9.282  0.3100 -0.6679  1.2470
   85SAPS  C213 8074   2.807   5.922   9.286 -0.3118 -0.3794  0.1300
   85SAPS  H13R 8075   2.841   5.994   9.364 -0.2698  0.4639 -0.6676
   85SAPS  H13S 8076   2.704   5.947   9.252 -0.2291  0.3330  0.3929
   85SAPS  C214 8077   2.910   5.925   9.174 -0.1672  0.9632 -0.1719
   85SAPS  H14R 8078   3.012   5.951   9.207  0.0040  0.1781 -0.0788
   85SAPS  C215 8079   2.900   5.871   9.053 -0.2533 -0.3159 -0.1590
   85SAPS  H15R 8080   2.987   5.875   8.985 -0.1864 -0.5015 -0.0820
   85SAPS  C216 8081   2.776   5.811   8.984  0.1521 -0.0174  0.3020
   85SAPS  H16R 8082   2.746   5.883   8.905 -0.0858 -0.0141  0.3954
   85SAPS  H16S 8083   2.687   5.816   9.051 -1.1739  2.1450 -1.5539
   85SAPS  C217 8084   2.797   5.672   8.922 -0.1103  0.0913  0.7281
   85SAPS  H17R 8085   2.793   5.597   9.004  0.8577 -0.9530 -0.1581
   85SAPS  H17S 8086   2.892   5.645   8.870 -2.3508 -0.3485 -3.2994
   85SAPS  C218 8087   2.680   5.633   8.828 -0.4617 -0.0291  0.5850
   85SAPS  H18R 8088   2.673   5.704   8.743  0.7540  0.1678  0.6453
   85SAPS  H18S 8089   2.584   5.633   8.884 -0.5268 -0.2683  0.4789
   85SAPS  C219 8090   2.698   5.501   8.754 -0.9381  0.2391  0.8003
   85SAPS  H19R 8091   2.690   5.423   8.833 -0.2933 -0.8581 -0.1859
   85SAPS  H19S 8092   2.803   5.495   8.718 -0.7982  0.5588  1.1532
   85SAPS  C220 8093   2.600   5.471   8.646 -0.1675  0.5779  0.2427
   85SAPS  H20R 8094   2.556   5.560   8.596  0.0472 -0.7274 -2.3406
   85SAPS  H20S 8095   2.514   5.411   8.682  1.3486 -1.0707  1.2373
   85SAPS  H20T 8096   2.649   5.404   8.572 -2.8566 -0.0520 -0.9854
   85SAPS   C33 8097   2.857   5.371  10.325  1.0596 -0.3120 -0.3510
   85SAPS   H3X 8098   2.943   5.371  10.396  1.5950 -4.0389 -0.8926
   85SAPS   H3Y 8099   2.819   5.474  10.338  2.1843 -0.0527  1.0698
   85SAPS   C34 8100   2.931   5.356  10.193 -0.1120  0.0056  0.0500
   85SAPS   H4X 8101   2.990   5.262  10.191 -1.0871 -0.5867 -2.2031
   85SAPS   H4Y 8102   2.993   5.445  10.173 -2.7091  1.4380 -2.0092
   85SAPS   C35 8103   2.842   5.343  10.061  0.0607  0.5468 -0.0413
   85SAPS   H5X 8104   2.762   5.419  10.076 -0.9424 -0.3303 -0.9262
   85SAPS   H5Y 8105   2.794   5.244  10.053  3.8644 -1.5066  1.1668
   85SAPS   C36 8106   2.916   5.369   9.931  0.0233  0.3539  0.0383
   85SAPS   H6X 8107   3.003   5.303   9.911 -0.7445 -0.0644 -2.1057
   85SAPS   H6Y 8108   2.949   5.475   9.941 -1.0138  0.6576  0.3599
   85SAPS   C37 8109   2.820   5.355   9.807  0.1117 -0.0163  0.1175
   85SAPS   H7X 8110   2.726   5.413   9.819 -0.6303 -1.2010  0.0917
   85SAPS   H7Y 8111   2.795   5.247   9.800 -1.1637  0.1406  1.7894
   85SAPS   C38 8112   2.886   5.392   9.669 -0.1474  0.2974  0.0660
   85SAPS   H8X 8113   2.988   5.348   9.671 -0.9138 -1.6557 -2.0120
   85SAPS   H8Y 8114   2.892   5.503   9.674 -0.1539  0.3061 -0.1327
   85SAPS   C39 8115   2.813   5.343   9.545 -0.2257  0.6243 -0.0286
   85SAPS   H9X 8116   2.713   5.390   9.534 -0.5002  0.0549  0.0465
   85SAPS   H9Y 8117   2.807   5.232   9.553  2.3382  0.2715 -2.0811
   85SAPS  C310 8118   2.903   5.384   9.422  0.7054  0.9460 -0.0547
   85SAPS  H10X 8119   3.009   5.356   9.440  0.0630 -0.1693  2.3355
   85SAPS  H10Y 8120   2.907   5.495   9.419  0.4217  0.9729  0.3848
   85SAPS  C311 8121   2.848   5.312   9.302  0.5588  0.5517  0.6498
   85SAPS  H11X 8122   2.752   5.347   9.257  0.6081 -2.2360 -1.7517
   85SAPS  H11Y 8123   2.835   5.205   9.327 -0.4692  0.0251 -1.9844
   85SAPS  C312 8124   2.943   5.324   9.181 -0.4507 -0.3050  0.2252
   85SAPS  H12X 8125   3.048   5.290   9.196 -0.7316 -1.4311 -0.3281
   85SAPS  H12Y 8126   2.932   5.433   9.161 -1.3977 -0.4838 -0.2505
   85SAPS  C313 8127   2.888   5.249   9.061 -0.0705  0.4427  0.4437
   85SAPS  H13X 8128   2.786   5.289   9.047 -0.7689 -1.3588  0.3314
   85SAPS  H13Y 8129   2.863   5.145   9.089 -1.2816  0.5403 -0.2522
   85SAPS  C314 8130   2.984   5.244   8.936 -0.5502 -0.5096  0.2257
   85SAPS  H14X 8131   3.080   5.198   8.970 -0.7283 -1.2014 -0.2053
   85SAPS  H14Y 8132   3.000   5.343   8.890 -1.1045 -1.6707 -2.5713
   85SAPS  C315 8133   2.926   5.150   8.828  0.1694  0.2648  0.2741
   85SAPS  H15X 8134   2.837   5.199   8.782  0.8815  0.1262 -1.2756
   85SAPS  H15Y 8135   2.898   5.051   8.868  3.2380 -0.3364  1.0254
   85SAPS  C316 8136   3.025   5.120   8.713 -0.2086 -0.3933  0.3129
   85SAPS  H16X 8137   3.128   5.097   8.749 -0.8296  0.8786  3.0206
   85SAPS  H16Y 8138   3.030   5.219   8.665  1.3888 -1.5973 -2.0991
   85SAPS  C317 8139   2.966   5.018   8.610 -0.1248 -0.0177 -1.1492
   85SAPS  H17X 8140   2.972   4.915   8.651  0.9251  0.5176  0.0806
   85SAPS  H17Y 8141   3.031   5.016   8.521  1.4621  0.5271 -0.0290
   85SAPS  C318 8142   2.816   5.048   8.571 -0.3210  0.4515  0.0655
   85SAPS  H18X 8143   2.752   5.032   8.660  0.7203  0.0757  0.7593
   85SAPS  H18Y 8144   2.790   4.986   8.483 -1.2011 -1.9293  1.9355
   85SAPS  H18Z 8145   2.791   5.150   8.534 -0.9956 -0.4549 -2.0572
   86SAPS     N 8146   4.206   5.689  11.114  0.0050 -0.4099  0.2239
   86SAPS   HN1 8147   4.172   5.651  11.204  1.6109 -1.2103  0.5077
   86SAPS   HN2 8148   4.123   5.721  11.059  0.5874 -1.1166 -1.1036
   86SAPS   HN3 8149   4.246   5.616  11.052 -3.4046 -2.6828  0.5805
   86SAPS   C12 8150   4.290   5.807  11.154 -0.0493  0.3634  0.2962
   86SAPS  H12A 8151   4.267   5.889  11.088 -0.7694 -0.5170 -0.5700
   86SAPS   C13 8152   4.270   5.848  11.297 -0.3298 -0.2655 -0.6538
   86SAPS  O13A 8153   4.200   5.767  11.371  0.4272 -0.4283 -0.4470
   86SAPS  O13B 8154   4.335   5.943  11.348  0.0035  0.1921  0.2016
   86SAPS   C11 8155   4.444   5.781  11.114  0.9069  0.4944 -0.4501
   86SAPS  H11A 8156   4.480   5.710  11.191  0.3580  3.0300  2.2589
   86SAPS  H11B 8157   4.504   5.875  11.112 -0.4802  1.3891 -0.5392
   86SAPS     P 8158   4.592   5.721  10.914  0.3089 -0.4907 -0.3894
   86SAPS   O13 8159   4.658   5.852  10.914  0.1216  0.1840  0.1449
   86SAPS   O14 8160   4.661   5.608  10.974 -0.6687  0.0027 -0.5205
   86SAPS   O12 8161   4.453   5.737  10.974 -0.2706  0.5699  0.6855
   86SAPS   O11 8162   4.565   5.686  10.762  0.0983 -0.2252  0.1192
   86SAPS    C1 8163   4.471   5.771  10.695 -0.1442  0.2801 -0.1493
   86SAPS    HA 8164   4.367   5.781  10.735  0.4906 -1.2452  1.9468
   86SAPS    HB 8165   4.499   5.879  10.693 -0.7236  0.4113 -1.9288
   86SAPS    C2 8166   4.461   5.726  10.548  0.4709 -0.0059  0.6896
   86SAPS    HS 8167   4.393   5.797  10.495  1.8750  0.8905  0.0766
   86SAPS   O21 8168   4.409   5.593  10.549 -0.2904 -0.0715  0.7529
   86SAPS   C21 8169   4.277   5.575  10.584 -0.6814  0.2653 -0.1982
   86SAPS   O22 8170   4.199   5.665  10.602  0.0670  0.5054 -0.1737
   86SAPS   C22 8171   4.234   5.429  10.570 -0.3836 -0.8972  0.2550
   86SAPS   H2R 8172   4.317   5.356  10.581  0.2956 -0.4143 -1.4222
   86SAPS   H2S 8173   4.161   5.403  10.649  0.1761  0.6179  1.2977
   86SAPS    C3 8174   4.600   5.733  10.478  0.0649  0.2249  0.4079
   86SAPS    HX 8175   4.663   5.683  10.555  0.6774  0.8412  0.3190
   86SAPS    HY 8176   4.635   5.838  10.480  2.8974 -0.6738  0.8446
   86SAPS   O31 8177   4.598   5.684  10.341  0.3106 -0.3580 -0.1111
   86SAPS   C31 8178   4.647   5.565  10.307 -0.3460 -0.3753 -0.2166
   86SAPS   O32 8179   4.685   5.475  10.385 -0.2643 -0.4600  0.1279
   86SAPS   C32 8180   4.652   5.561  10.151  0.4253 -0.3094 -0.2309
   86SAPS   H2X 8181   4.707   5.653  10.119 -1.2438 -0.1609 -2.8250
   86SAPS   H2Y 8182   4.546   5.561  10.117  0.3153  1.2010  0.1004
   86SAPS   C23 8183   4.164   5.404  10.433  0.1909  0.2890 -0.3348
   86SAPS   H3R 8184   4.099   5.490  10.407 -2.5182 -0.5998  3.1823
   86SAPS   H3S 8185   4.100   5.313  10.440  0.8879 -0.0927  1.2981
   86SAPS   C24 8186   4.255   5.391  10.309 -0.4398 -0.5789  0.4988
   86SAPS   H4R 8187   4.309   5.487  10.308 -1.6334  0.1138  0.7764
   86SAPS   H4S 8188   4.200   5.387  10.213 -0.3634 -0.7536  0.4635
   86SAPS   C25 8189   4.372   5.291  10.308 -0.3232 -0.7947  0.0025
   86SAPS   H5R 8190   4.446   5.298  10.389 -0.7674 -1.4632  0.4684
   86SAPS   C26 8191   4.408   5.216  10.200 -0.4986 -1.0465  0.3019
   86SAPS   H6R 8192   4.491   5.145  10.212  0.0672 -0.3863  0.3084
   86SAPS   C27 8193   4.335   5.209  10.064 -0.0871  0.4154  0.7241
   86SAPS   H7R 8194   4.263   5.293  10.048  2.0232  1.8140 -1.7421
   86SAPS   H7S 8195   4.273   5.117  10.056  1.5921 -1.0001  3.3110
   86SAPS   C28 8196   4.438   5.219   9.950  0.2036  0.0288 -0.5108
   86SAPS   H8R 8197   4.546   5.236   9.963  0.1260 -0.4188  0.8108
   86SAPS   C29 8198   4.403   5.192   9.826 -0.1618  0.0522  0.7713
   86SAPS   H9R 8199   4.482   5.199   9.750 -1.0622 -0.5195 -0.2490
   86SAPS  C210 8200   4.267   5.149   9.775  0.2762  0.4667  0.5686
   86SAPS  H10R 8201   4.241   5.215   9.690 -1.6013  1.1919  1.6682
   86SAPS  H10S 8202   4.189   5.158   9.853  1.1296  1.5236  1.3006
   86SAPS  C211 8203   4.276   5.002   9.726  0.4920  0.0404  0.1534
   86SAPS  H11R 8204   4.295   4.941   9.815  0.2211  1.3243  1.1119
   86SAPS  C212 8205   4.243   4.954   9.604  0.2038 -0.4176  0.5629
   86SAPS  H12R 8206   4.267   4.847   9.589  0.7965 -0.3898  1.3025
   86SAPS  C213 8207   4.190   5.018   9.479 -0.0275  0.0099  0.6551
   86SAPS  H13R 8208   4.163   5.125   9.491 -0.6615 -0.1496  0.6608
   86SAPS  H13S 8209   4.099   4.964   9.446 -0.8429  1.3394  0.6968
   86SAPS  C214 8210   4.284   5.009   9.371  0.6502 -0.2813 -0.2497
   86SAPS  H14R 8211   4.323   5.102   9.327  0.7101 -0.0112  0.3645
   86SAPS  C215 8212   4.323   4.899   9.301  0.3899  0.0732  0.1151
   86SAPS  H15R 8213   4.396   4.925   9.223  1.2259  0.3512  0.9869
   86SAPS  C216 8214   4.281   4.753   9.332  0.0931  0.0933  0.1529
   86SAPS  H16R 8215   4.192   4.757   9.400  1.3730  1.0379  1.8206
   86SAPS  H16S 8216   4.369   4.695   9.368  0.2295 -0.2520 -0.7358
   86SAPS  C217 8217   4.243   4.682   9.193 -0.2067  0.3721  0.7148
   86SAPS  H17R 8218   4.155   4.728   9.144 -0.1616  1.7549  1.8954
   86SAPS  H17S 8219   4.213   4.580   9.227  0.3596 -0.1964 -0.4780
   86SAPS  C218 8220   4.356   4.669   9.098  0.2102 -0.3932 -0.4173
   86SAPS  H18R 8221   4.443   4.627   9.152  0.0287 -1.1434 -0.6991
   86SAPS  H18S 8222   4.385   4.769   9.061 -0.0579 -0.6537 -1.3594
   86SAPS  C219 8223   4.327   4.598   8.965 -0.2622  0.6013 -0.2040
   86SAPS  H19R 8224   4.290   4.493   8.966 -1.0995  0.8851 -0.5234
   86SAPS  H19S 8225   4.424   4.604   8.911 -0.9137  1.5741 -1.3001
   86SAPS  C220 8226   4.230   4.669   8.865 -0.8417  0.3584  0.0637
   86SAPS  H20R 8227   4.268   4.769   8.835  0.1373  0.1067  0.4526
   86SAPS  H20S 8228   4.134   4.673   8.920  0.1566  0.1574  1.8640
   86SAPS  H20T 8229   4.224   4.608   8.772  0.0521 -0.0603  0.2731
   86SAPS   C33 8230   4.735   5.447  10.089  0.4052  0.0693 -0.3284
   86SAPS   H3X 8231   4.671   5.356  10.085  1.9047 -0.9332 -2.5825
   86SAPS   H3Y 8232   4.812   5.418  10.165 -0.2485  0.5045  0.5087
   86SAPS   C34 8233   4.788   5.478   9.948 -0.3986 -0.2230 -0.1552
   86SAPS   H4X 8234   4.865   5.404   9.916 -1.4892 -1.8394  0.8586
   86SAPS   H4Y 8235   4.834   5.578   9.959  2.1546 -1.1748 -1.5438
   86SAPS   C35 8236   4.683   5.492   9.833 -0.0658  0.3621 -0.5407
   86SAPS   H5X 8237   4.620   5.582   9.854  0.3853  0.5906 -0.1704
   86SAPS   H5Y 8238   4.615   5.407   9.853 -2.6082  2.1458 -1.2282
   86SAPS   C36 8239   4.745   5.490   9.692  0.2632 -0.9572  0.3838
   86SAPS   H6X 8240   4.675   5.433   9.628  1.0767  1.3170 -2.6650
   86SAPS   H6Y 8241   4.829   5.417   9.695  1.0616 -0.0120  2.0750
   86SAPS   C37 8242   4.776   5.625   9.628  0.2743  0.2372  0.1157
   86SAPS   H7X 8243   4.852   5.686   9.680 -1.4436  2.7257 -0.2157
   86SAPS   H7Y 8244   4.681   5.681   9.614  1.4870  2.3151  0.1033
   86SAPS   C38 8245   4.824   5.591   9.486 -0.2735  0.0797 -0.3674
   86SAPS   H8X 8246   4.738   5.542   9.436 -0.6218 -0.8697  1.1350
   86SAPS   H8Y 8247   4.910   5.521   9.495 -0.6254 -0.4724 -1.2433
   86SAPS   C39 8248   4.858   5.717   9.407 -0.1998 -0.1334 -0.1591
   86SAPS   H9X 8249   4.914   5.793   9.466  0.7381 -1.1127  0.2345
   86SAPS   H9Y 8250   4.762   5.767   9.383 -0.1206  0.1955  0.1820
   86SAPS  C310 8251   4.946   5.691   9.286 -0.0648 -0.0937  0.2934
   86SAPS  H10X 8252   4.943   5.587   9.247 -0.7735  0.8597 -2.3295
   86SAPS  H10Y 8253   5.049   5.703   9.326  0.7274 -0.9969 -1.4263
   86SAPS  C311 8254   4.924   5.790   9.168 -0.5145 -0.2149 -0.7180
   86SAPS  H11X 8255   4.929   5.893   9.211  2.0725 -0.4464 -0.4169
   86SAPS  H11Y 8256   4.819   5.783   9.132 -1.8729  1.7605  2.6028
   86SAPS  C312 8257   5.029   5.781   9.054  0.7529  0.0566 -0.1579
   86SAPS  H12X 8258   4.996   5.697   8.989  1.8631 -2.2074  2.0978
   86SAPS  H12Y 8259   5.123   5.742   9.098  0.0180  0.1350  1.5250
   86SAPS  C313 8260   5.055   5.915   8.981 -0.4052 -0.0755 -0.5266
   86SAPS  H13X 8261   5.154   5.902   8.931  0.7386  0.5818  1.5144
   86SAPS  H13Y 8262   5.063   5.991   9.061 -0.3996  2.2790 -2.7159
   86SAPS  C314 8263   4.957   5.967   8.875  0.7571  0.1332 -0.1295
   86SAPS  H14X 8264   4.853   5.951   8.912  1.3781  1.4017  2.2193
   86SAPS  H14Y 8265   4.972   5.904   8.785 -1.0938  1.3714 -1.3433
   86SAPS  C315 8266   4.994   6.110   8.846  0.0308  0.0038 -0.3206
   86SAPS  H15X 8267   5.101   6.117   8.817 -0.2112  0.4239 -1.1007
   86SAPS  H15Y 8268   4.969   6.179   8.930 -0.0159  0.2849 -0.5677
   86SAPS  C316 8269   4.913   6.156   8.723  1.0367  0.6847 -0.2438
   86SAPS  H16X 8270   4.931   6.094   8.632 -0.5720  0.6068 -0.5120
   86SAPS  H16Y 8271   4.952   6.255   8.691  0.5772  0.0761 -2.8472
   86SAPS  C317 8272   4.761   6.156   8.747  0.0140 -0.5249 -0.4140
   86SAPS  H17X 8273   4.727   6.071   8.811 -0.9138  1.4327  1.7717
   86SAPS  H17Y 8274   4.723   6.159   8.643 -1.1943  3.1730  0.0728
   86SAPS  C318 8275   4.719   6.287   8.816  0.6078  0.1261  0.3492
   86SAPS  H18X 8276   4.799   6.321   8.886 -1.2738  0.0031  2.6143
   86SAPS  H18Y 8277   4.618   6.277   8.861  0.2886  0.3574 -0.3101
   86SAPS  H18Z 8278   4.701   6.370   8.744 -2.8198  0.4321  1.4825
   87SAPS     N 8279   5.080   6.021  10.965 -0.2481  0.2608  0.3520
   87SAPS   HN1 8280   4.989   6.069  10.977 -1.0659 -1.5185  1.5037
   87SAPS   HN2 8281   5.068   5.963  10.879 -0.8325  1.2272 -0.2199
   87SAPS   HN3 8282   5.102   5.955  11.042  2.7301  0.4513 -0.2837
   87SAPS   C12 8283   5.189   6.121  10.955 -0.1468 -0.0732  0.9640
   87SAPS  H12A 8284   5.188   6.168  11.053 -0.7321  0.4229  0.7183
   87SAPS   C13 8285   5.330   6.060  10.934 -0.1697  0.8370 -0.2143
   87SAPS  O13A 8286   5.350   5.935  10.930  0.5656 -0.1618 -0.0123
   87SAPS  O13B 8287   5.421   6.140  10.906  0.3591 -0.6176  0.1988
   87SAPS   C11 8288   5.149   6.209  10.835 -0.2747 -0.1893  0.2188
   87SAPS  H11A 8289   5.148   6.145  10.744  0.6277  0.9601 -0.6103
   87SAPS  H11B 8290   5.227   6.284  10.811 -0.2647 -1.1382 -3.0813
   87SAPS     P 8291   4.955   6.399  10.803  0.0356 -0.0809  0.0112
   87SAPS   O13 8292   4.807   6.380  10.824 -0.4568  0.3896  1.1050
   87SAPS   O14 8293   5.018   6.519  10.863  0.1441  0.0570  0.0279
   87SAPS   O12 8294   5.030   6.277  10.871 -0.2176  0.2175  0.0379
   87SAPS   O11 8295   4.998   6.378  10.655  1.1303  0.1110  0.6890
   87SAPS    C1 8296   4.963   6.480  10.552 -0.3465  0.6149 -0.8526
   87SAPS    HA 8297   4.981   6.583  10.591  1.7572  0.7914 -2.1818
   87SAPS    HB 8298   5.036   6.479  10.468  0.8737 -0.3028  0.1894
   87SAPS    C2 8299   4.823   6.456  10.499  0.9166 -0.1376 -0.6224
   87SAPS    HS 8300   4.744   6.462  10.576 -1.5176  0.4431 -3.0678
   87SAPS   O21 8301   4.829   6.323  10.453 -0.2716 -0.2971 -0.5458
   87SAPS   C21 8302   4.721   6.255  10.448 -0.1839 -0.8923 -0.4595
   87SAPS   O22 8303   4.609   6.294  10.483  0.1135 -0.3184 -0.4880
   87SAPS   C22 8304   4.743   6.126  10.384 -0.5833 -0.0664  0.5132
   87SAPS   H2R 8305   4.852   6.119  10.367 -0.7817 -0.8795 -0.4986
   87SAPS   H2S 8306   4.707   6.047  10.453 -0.1172  0.5131  1.4253
   87SAPS    C3 8307   4.786   6.564  10.391  0.9073 -0.0574 -0.1386
   87SAPS    HX 8308   4.778   6.660  10.446  0.2568 -1.4168  2.2034
   87SAPS    HY 8309   4.682   6.536  10.364  0.5385 -0.4220  1.5924
   87SAPS   O31 8310   4.887   6.579  10.291  0.3097 -0.8252  0.1661
   87SAPS   C31 8311   4.882   6.497  10.187  0.0930  0.1166 -0.4504
   87SAPS   O32 8312   4.790   6.427  10.162  0.1164 -0.2616  0.1892
   87SAPS   C32 8313   5.000   6.519  10.100  0.8043  0.6641  0.4082
   87SAPS   H2X 8314   5.090   6.463  10.133  0.3387 -1.3296 -1.5851
   87SAPS   H2Y 8315   5.035   6.624  10.102  0.5584  0.7520  0.1404
   87SAPS   C23 8316   4.680   6.121  10.240 -0.7902 -0.4300 -0.3830
   87SAPS   H3R 8317   4.739   6.197  10.184 -0.1108 -1.3921 -0.9978
   87SAPS   H3S 8318   4.577   6.162  10.242  0.2652  2.2970  1.2982
   87SAPS   C24 8319   4.701   5.983  10.185 -0.0054 -0.2588  0.5972
   87SAPS   H4R 8320   4.666   5.918  10.269 -3.2750  0.2897 -0.2826
   87SAPS   H4S 8321   4.810   5.974  10.166 -0.2282  0.2766 -0.9836
   87SAPS   C25 8322   4.607   5.969  10.065  0.3956  0.5752 -0.2396
   87SAPS   H5R 8323   4.502   5.992  10.085  0.4774  0.9624 -0.2428
   87SAPS   C26 8324   4.649   5.925   9.949 -0.1116  0.4871  0.5972
   87SAPS   H6R 8325   4.573   5.921   9.868 -0.5356 -1.1246  1.0543
   87SAPS   C27 8326   4.795   5.893   9.917 -0.2853  0.3961  0.7784
   87SAPS   H7R 8327   4.790   5.812   9.842 -1.9453  1.0004  0.2122
   87SAPS   H7S 8328   4.847   5.862  10.010 -1.7136 -0.2163  1.3926
   87SAPS   C28 8329   4.853   6.008   9.845  0.1633  0.1363 -0.0714
   87SAPS   H8R 8330   4.793   6.100   9.838  1.0213  0.6538 -0.7793
   87SAPS   C29 8331   4.971   5.998   9.775  0.1264  0.7204  0.3985
   87SAPS   H9R 8332   5.012   6.087   9.726 -1.4644 -0.1161 -2.5204
   87SAPS  C210 8333   5.048   5.872   9.756  0.2744  0.4969 -0.1573
   87SAPS  H10R 8334   5.023   5.818   9.662 -0.6076  0.3600  0.1457
   87SAPS  H10S 8335   5.026   5.798   9.836  0.2792  1.7788  1.0552
   87SAPS  C211 8336   5.193   5.894   9.772  0.0845 -0.5760  0.3519
   87SAPS  H11R 8337   5.232   5.878   9.874 -0.2565  2.1069  0.9570
   87SAPS  C212 8338   5.285   5.926   9.682  0.0852  0.4554 -0.3233
   87SAPS  H12R 8339   5.392   5.922   9.708 -0.0389 -1.2467 -0.0332
   87SAPS  C213 8340   5.262   5.948   9.532 -0.3757 -0.1662  0.0249
   87SAPS  H13R 8341   5.160   5.917   9.500 -0.8877  1.3672  0.1090
   87SAPS  H13S 8342   5.330   5.874   9.484  2.2956  1.3323  1.3672
   87SAPS  C214 8343   5.301   6.090   9.492  0.4012 -0.6717 -0.1236
   87SAPS  H14R 8344   5.292   6.163   9.574 -1.1959 -2.1153  1.0205
   87SAPS  C215 8345   5.347   6.140   9.370 -0.4988  0.0598  0.2268
   87SAPS  H15R 8346   5.361   6.249   9.361  2.1780 -0.1799  1.1575
   87SAPS  C216 8347   5.366   6.061   9.239  0.0746 -0.2334 -0.2602
   87SAPS  H16R 8348   5.325   6.126   9.159  0.5065  2.4517  1.6286
   87SAPS  H16S 8349   5.316   5.962   9.244  0.7471 -0.5070  1.6939
   87SAPS  C217 8350   5.519   6.042   9.205  0.5108  1.1550 -1.0372
   87SAPS  H17R 8351   5.564   5.993   9.294 -3.2892 -0.6763  0.0082
   87SAPS  H17S 8352   5.560   6.145   9.203  1.2063  0.8725 -1.7042
   87SAPS  C218 8353   5.538   5.951   9.082 -0.7298 -0.2253  0.0197
   87SAPS  H18R 8354   5.511   6.010   8.992  0.4095  1.8472  0.9759
   87SAPS  H18S 8355   5.475   5.860   9.092  0.0858 -1.1222 -2.4448
   87SAPS  C219 8356   5.682   5.897   9.063  0.0834 -0.3087 -0.2757
   87SAPS  H19R 8357   5.696   5.870   8.956 -0.8023 -0.6511 -0.3095
   87SAPS  H19S 8358   5.688   5.810   9.131 -0.7753 -1.4234 -1.5943
   87SAPS  C220 8359   5.800   5.991   9.102 -0.8811  0.2416 -0.3609
   87SAPS  H20R 8360   5.806   6.064   9.019 -1.5719  1.2162  0.4297
   87SAPS  H20S 8361   5.899   5.941   9.117 -0.8399 -0.0818 -1.6296
   87SAPS  H20T 8362   5.771   6.045   9.195 -1.0330  0.2082 -0.3911
   87SAPS   C33 8363   4.974   6.479   9.949 -0.0031 -0.4997 -0.9313
   87SAPS   H3X 8364   4.895   6.538   9.897  0.3957  0.1908 -0.7663
   87SAPS   H3Y 8365   4.951   6.370   9.951 -0.4754 -0.3922 -0.5780
   87SAPS   C34 8366   5.099   6.499   9.867  0.6007  0.0164  0.4316
   87SAPS   H4X 8367   5.180   6.430   9.901  2.1930  1.5884 -0.1003
   87SAPS   H4Y 8368   5.125   6.606   9.884  0.8126  0.1149 -0.4560
   87SAPS   C35 8369   5.070   6.481   9.722  0.6490 -0.1399  0.0909
   87SAPS   H5X 8370   5.005   6.565   9.689 -1.0933 -1.1064  1.0111
   87SAPS   H5Y 8371   5.010   6.389   9.709  0.1780 -0.2423  2.7788
   87SAPS   C36 8372   5.200   6.474   9.641 -0.2014 -0.4178 -0.0333
   87SAPS   H6X 8373   5.255   6.387   9.683 -0.0359 -0.4263 -0.2687
   87SAPS   H6Y 8374   5.268   6.561   9.657 -0.2912 -0.3813  0.1468
   87SAPS   C37 8375   5.186   6.442   9.490 -0.4952  0.5836  0.6569
   87SAPS   H7X 8376   5.147   6.339   9.476 -2.4622  1.7110 -2.7982
   87SAPS   H7Y 8377   5.294   6.435   9.462 -1.2567 -0.1271 -2.2884
   87SAPS   C38 8378   5.115   6.543   9.400 -0.0877  0.2906  1.4245
   87SAPS   H8X 8379   5.157   6.646   9.407 -0.7940  0.9416 -2.7358
   87SAPS   H8Y 8380   5.015   6.543   9.447 -0.7511 -0.5552  0.0478
   87SAPS   C39 8381   5.114   6.509   9.250 -0.5445  0.1773 -0.0491
   87SAPS   H9X 8382   5.026   6.561   9.207 -0.5777  0.2984  0.1645
   87SAPS   H9Y 8383   5.105   6.399   9.247 -0.9854  0.2202 -0.3679
   87SAPS  C310 8384   5.241   6.543   9.166  0.6038  0.3786 -0.8608
   87SAPS  H10X 8385   5.324   6.486   9.213  2.2197  3.4438  0.1768
   87SAPS  H10Y 8386   5.254   6.654   9.162 -0.5973  0.6593  1.9814
   87SAPS  C311 8387   5.225   6.490   9.029 -0.0497  0.6088 -0.1529
   87SAPS  H11X 8388   5.137   6.526   8.972  0.4990 -2.1256 -2.8490
   87SAPS  H11Y 8389   5.215   6.379   9.023  0.1987  0.5800 -0.0346
   87SAPS  C312 8390   5.358   6.523   8.950 -0.1069 -0.2525 -0.1779
   87SAPS  H12X 8391   5.430   6.467   9.013  0.7216  0.8794 -0.1099
   87SAPS  H12Y 8392   5.383   6.631   8.954 -1.1207  0.1103 -2.6503
   87SAPS  C313 8393   5.362   6.483   8.802 -0.2488  0.3581  0.5597
   87SAPS  H13X 8394   5.375   6.373   8.796  1.5026  0.5033  1.4559
   87SAPS  H13Y 8395   5.458   6.528   8.768  1.4966 -2.8993  1.0243
   87SAPS  C314 8396   5.243   6.532   8.717  0.5738 -0.1781 -0.4840
   87SAPS  H14X 8397   5.147   6.497   8.761 -0.6947  1.6138 -1.7379
   87SAPS  H14Y 8398   5.261   6.484   8.618  0.4879 -0.3016 -0.4380
   87SAPS  C315 8399   5.239   6.687   8.703  0.9380  0.1128  0.1915
   87SAPS  H15X 8400   5.330   6.723   8.650  1.1448 -0.1263  0.3867
   87SAPS  H15Y 8401   5.232   6.736   8.803 -0.5928 -0.9526  0.6138
   87SAPS  C316 8402   5.115   6.737   8.615  0.7564  0.0148  0.5700
   87SAPS  H16X 8403   5.131   6.703   8.511  1.7312  0.9252  0.4089
   87SAPS  H16Y 8404   5.108   6.848   8.618 -2.4097 -0.1556  1.5595
   87SAPS  C317 8405   4.974   6.691   8.672  0.0183  0.1421 -0.0997
   87SAPS  H17X 8406   4.953   6.724   8.775 -1.0886  0.4014 -0.3989
   87SAPS  H17Y 8407   4.983   6.580   8.672 -1.0785  0.0241  2.4780
   87SAPS  C318 8408   4.857   6.746   8.589  0.3186  0.6718 -0.6463
   87SAPS  H18X 8409   4.879   6.711   8.486  1.2222  0.8407 -0.5182
   87SAPS  H18Y 8410   4.848   6.856   8.602 -2.0902  0.4577 -0.2557
   87SAPS  H18Z 8411   4.766   6.700   8.632  1.3768  1.4877  2.6324
   88SAPS     N 8412   1.295   4.472  11.135 -0.2578  0.1887  1.1056
   88SAPS   HN1 8413   1.396   4.454  11.114 -0.8692 -1.1837 -0.8608
   88SAPS   HN2 8414   1.253   4.518  11.052  1.0536  1.2500  1.0160
   88SAPS   HN3 8415   1.274   4.505  11.231 -1.8871 -1.3892  1.3198
   88SAPS   C12 8416   1.234   4.332  11.127 -0.5468 -0.5836  0.7578
   88SAPS  H12A 8417   1.279   4.267  11.200  1.2982 -0.4052 -0.2147
   88SAPS   C13 8418   1.082   4.324  11.137  0.2415 -1.0276  0.6260
   88SAPS  O13A 8419   1.013   4.425  11.122  0.9069  0.9781 -0.1101
   88SAPS  O13B 8420   1.038   4.210  11.163 -0.5493  0.2414  0.1155
   88SAPS   C11 8421   1.263   4.278  10.982  0.9177 -0.7098  0.2042
   88SAPS  H11A 8422   1.204   4.345  10.917  0.4860  0.4031  1.7106
   88SAPS  H11B 8423   1.228   4.173  10.970  2.9160 -1.4442  0.6607
   88SAPS     P 8424   1.496   4.174  10.911  0.3918  0.2235 -0.1045
   88SAPS   O13 8425   1.612   4.192  11.000 -0.6811  0.4298  0.1849
   88SAPS   O14 8426   1.445   4.037  10.905  0.0831 -0.4434 -0.1580
   88SAPS   O12 8427   1.399   4.293  10.938 -0.3693 -0.3903  0.4412
   88SAPS   O11 8428   1.550   4.218  10.767  0.5799  0.0389 -0.5862
   88SAPS    C1 8429   1.459   4.204  10.659 -0.1994 -0.4859 -0.2011
   88SAPS    HA 8430   1.420   4.100  10.655 -0.1250 -0.4674 -1.3613
   88SAPS    HB 8431   1.373   4.275  10.659  0.6003  0.5108 -2.6099
   88SAPS    C2 8432   1.531   4.235  10.525  0.3348 -0.7301  0.4843
   88SAPS    HS 8433   1.560   4.343  10.529  1.6028 -0.9123 -2.5080
   88SAPS   O21 8434   1.445   4.207  10.413 -0.1992  0.2875  0.4481
   88SAPS   C21 8435   1.345   4.290  10.393 -0.6302 -0.2284  0.3866
   88SAPS   O22 8436   1.331   4.395  10.453  0.1361  0.0480  0.2585
   88SAPS   C22 8437   1.249   4.219  10.293 -0.0997  0.7756  0.4003
   88SAPS   H2R 8438   1.305   4.190  10.201 -0.7373 -2.3071  0.9244
   88SAPS   H2S 8439   1.215   4.124  10.338  0.6705  0.5172  0.4454
   88SAPS    C3 8440   1.654   4.137  10.499 -0.0772 -0.3130  0.2625
   88SAPS    HX 8441   1.628   4.030  10.490  0.9439 -0.7494  2.1650
   88SAPS    HY 8442   1.715   4.147  10.591 -2.9871 -2.3252  2.4861
   88SAPS   O31 8443   1.723   4.169  10.377 -0.2783  0.4800  0.0159
   88SAPS   C31 8444   1.861   4.138  10.375 -0.0616  0.2467 -1.0075
   88SAPS   O32 8445   1.914   4.086  10.467  0.0891  0.7157 -0.5907
   88SAPS   C32 8446   1.925   4.194  10.247  0.1746  0.5663 -0.5100
   88SAPS   H2X 8447   2.033   4.196  10.271  0.0446 -2.9442  0.5928
   88SAPS   H2Y 8448   1.893   4.299  10.229 -0.9746  0.1935 -0.6502
   88SAPS   C23 8449   1.136   4.318  10.258  0.1457  0.3599  0.7636
   88SAPS   H3R 8450   1.186   4.413  10.232  1.9192 -1.5183 -2.9995
   88SAPS   H3S 8451   1.070   4.340  10.345  1.7541  0.9470  1.8499
   88SAPS   C24 8452   1.041   4.266  10.146  0.6632  0.6369  0.6328
   88SAPS   H4R 8453   0.997   4.173  10.189 -1.7861  0.7340 -1.5712
   88SAPS   H4S 8454   1.096   4.232  10.056 -1.8930 -0.7616 -0.4364
   88SAPS   C25 8455   0.936   4.371  10.111  0.6445 -0.5870  0.1470
   88SAPS   H5R 8456   0.883   4.412  10.199  3.0250  2.3974  0.2559
   88SAPS   C26 8457   0.902   4.426   9.989 -0.2305 -0.5645  0.3119
   88SAPS   H6R 8458   0.826   4.505   9.983  0.8090  0.2665 -2.4522
   88SAPS   C27 8459   0.976   4.403   9.860 -1.5360  0.7209  0.5789
   88SAPS   H7R 8460   1.038   4.311   9.859 -4.1910 -1.1586  2.4576
   88SAPS   H7S 8461   1.057   4.477   9.841 -1.4148  0.6357  0.7523
   88SAPS   C28 8462   0.891   4.385   9.739 -0.9587  0.2212 -0.1739
   88SAPS   H8R 8463   0.820   4.301   9.752  0.8995 -1.4883 -0.7981
   88SAPS   C29 8464   0.892   4.458   9.628 -0.8378 -0.3722  0.3447
   88SAPS   H9R 8465   0.820   4.443   9.546 -1.4604  1.9348  0.4322
   88SAPS  C210 8466   0.987   4.571   9.597  0.4026 -0.0460 -0.2011
   88SAPS  H10R 8467   1.085   4.524   9.572  1.2115  0.7696  1.4151
   88SAPS  H10S 8468   1.020   4.625   9.688 -1.9436 -1.2033  1.3896
   88SAPS  C211 8469   0.957   4.669   9.485 -0.6376  0.3574  0.5910
   88SAPS  H11R 8470   0.933   4.773   9.514 -0.4204  0.3574  0.7640
   88SAPS  C212 8471   0.951   4.647   9.350  0.3637 -0.0851  0.3517
   88SAPS  H12R 8472   0.935   4.732   9.282 -2.5523 -0.6866  0.1901
   88SAPS  C213 8473   0.973   4.515   9.276  0.6525 -0.6357 -0.5309
   88SAPS  H13R 8474   0.878   4.458   9.277 -0.3094  0.8505 -2.7649
   88SAPS  H13S 8475   1.042   4.458   9.342  0.5064 -0.9320 -0.6353
   88SAPS  C214 8476   1.039   4.534   9.143  0.0507  0.0788 -0.7646
   88SAPS  H14R 8477   1.136   4.587   9.146 -0.9598  1.8947  0.1337
   88SAPS  C215 8478   0.977   4.496   9.026 -0.4431 -1.2433 -0.3453
   88SAPS  H15R 8479   1.031   4.527   8.935  0.2151 -0.2078  0.3880
   88SAPS  C216 8480   0.841   4.430   9.003 -0.3112  0.1373 -0.2759
   88SAPS  H16R 8481   0.766   4.456   9.081  0.7116 -1.1789  1.1603
   88SAPS  H16S 8482   0.837   4.321   9.023 -2.7027  0.1398 -0.5474
   88SAPS  C217 8483   0.784   4.454   8.864 -0.4941 -0.6017  0.0447
   88SAPS  H17R 8484   0.776   4.564   8.849  1.4794 -0.6038 -1.2853
   88SAPS  H17S 8485   0.680   4.416   8.861 -1.2404  1.2914  1.6372
   88SAPS  C218 8486   0.855   4.383   8.753  0.5979 -0.5718  0.1199
   88SAPS  H18R 8487   0.896   4.288   8.793  1.7446  0.1745  0.7540
   88SAPS  H18S 8488   0.941   4.444   8.716 -0.3852  0.0544 -1.1605
   88SAPS  C219 8489   0.759   4.340   8.642 -0.0900 -0.1646 -0.3249
   88SAPS  H19R 8490   0.717   4.422   8.579 -1.7947 -1.6505 -1.1396
   88SAPS  H19S 8491   0.669   4.284   8.673 -1.2735  2.1368  0.5048
   88SAPS  C220 8492   0.840   4.239   8.556 -0.5291 -0.6354  0.0701
   88SAPS  H20R 8493   0.891   4.168   8.624  1.1454  0.4213 -0.0612
   88SAPS  H20S 8494   0.920   4.293   8.502 -0.3612 -0.7642  0.1936
   88SAPS  H20T 8495   0.761   4.204   8.486  0.4858 -2.8290 -0.0032
   88SAPS   C33 8496   1.902   4.089  10.132 -0.1817  0.2381 -0.1994
   88SAPS   H3X 8497   1.874   3.986  10.163  2.5163 -0.9748 -1.6033
   88SAPS   H3Y 8498   1.993   4.071  10.070  0.2667  0.2470  0.4546
   88SAPS   C34 8499   1.810   4.151  10.029 -0.0529  0.2944 -0.4256
   88SAPS   H4X 8500   1.849   4.253  10.009  0.3579  0.1745 -0.2446
   88SAPS   H4Y 8501   1.710   4.160  10.076  0.9436  2.8762  1.3293
   88SAPS   C35 8502   1.808   4.076   9.897 -0.0592  0.7285  0.5178
   88SAPS   H5X 8503   1.777   3.971   9.917  1.8202  0.3271  1.4765
   88SAPS   H5Y 8504   1.916   4.071   9.871 -0.3109  0.1427 -0.4428
   88SAPS   C36 8505   1.750   4.160   9.781  0.0111  0.4370 -0.3433
   88SAPS   H6X 8506   1.774   4.265   9.809  1.1237  0.1163 -0.0889
   88SAPS   H6Y 8507   1.641   4.138   9.768  0.1039 -0.1378 -0.1579
   88SAPS   C37 8508   1.832   4.131   9.655  0.7980  0.4481 -0.8445
   88SAPS   H7X 8509   1.803   4.030   9.619  1.5353  1.0913 -3.3349
   88SAPS   H7Y 8510   1.941   4.134   9.675  0.7817  1.9923 -0.9219
   88SAPS   C38 8511   1.797   4.231   9.548  0.0496 -0.0028 -0.0241
   88SAPS   H8X 8512   1.836   4.335   9.557  1.0498 -0.3053 -0.6717
   88SAPS   H8Y 8513   1.686   4.237   9.551  0.1325  0.6129  2.0649
   88SAPS   C39 8514   1.844   4.185   9.411 -0.7322 -0.1144 -0.2656
   88SAPS   H9X 8515   1.800   4.084   9.398  0.4361 -0.9513  2.0310
   88SAPS   H9Y 8516   1.953   4.165   9.403 -0.6465  0.4641 -0.6128
   88SAPS  C310 8517   1.799   4.283   9.301 -0.6974  0.0506 -0.6061
   88SAPS  H10X 8518   1.844   4.385   9.312 -1.0948  0.1010  0.6698
   88SAPS  H10Y 8519   1.691   4.304   9.314 -0.5911 -0.1443  0.7710
   88SAPS  C311 8520   1.808   4.238   9.156 -0.7850 -0.6361  0.0340
   88SAPS  H11X 8521   1.749   4.145   9.144  0.4705 -1.5362  0.6385
   88SAPS  H11Y 8522   1.915   4.216   9.133 -0.9413  0.0725 -1.4081
   88SAPS  C312 8523   1.760   4.336   9.045 -0.2700  0.9410  0.2554
   88SAPS  H12X 8524   1.841   4.411   9.036  1.9615 -1.0858  2.4973
   88SAPS  H12Y 8525   1.657   4.377   9.054 -0.8945 -0.1944 -1.2532
   88SAPS  C313 8526   1.773   4.261   8.908  0.1290 -0.5894 -0.4921
   88SAPS  H13X 8527   1.741   4.156   8.922 -1.3459 -0.5341 -2.9872
   88SAPS  H13Y 8528   1.878   4.258   8.871  0.8468 -1.7437  1.6015
   88SAPS  C314 8529   1.675   4.316   8.793  0.1654 -0.2373 -0.1980
   88SAPS  H14X 8530   1.721   4.410   8.755  0.6949 -0.9502 -1.3063
   88SAPS  H14Y 8531   1.576   4.337   8.840  0.6996 -0.8827  1.2565
   88SAPS  C315 8532   1.655   4.223   8.677 -0.1776 -1.0649 -0.8564
   88SAPS  H15X 8533   1.592   4.137   8.708 -0.5016 -0.6054 -0.2102
   88SAPS  H15Y 8534   1.754   4.184   8.646  1.4739  1.8647  0.4689
   88SAPS  C316 8535   1.587   4.290   8.555  0.4160 -0.1080 -0.0601
   88SAPS  H16X 8536   1.637   4.385   8.526  2.8255 -1.0681  0.8304
   88SAPS  H16Y 8537   1.478   4.301   8.573  0.7849 -1.4452  3.3614
   88SAPS  C317 8538   1.600   4.203   8.427  0.5888 -0.4089  0.4100
   88SAPS  H17X 8539   1.534   4.243   8.347 -0.0526 -0.9387  0.6691
   88SAPS  H17Y 8540   1.548   4.106   8.447 -0.6554 -0.2212 -1.6731
   88SAPS  C318 8541   1.740   4.188   8.379  0.5151  0.1711  0.3964
   88SAPS  H18X 8542   1.782   4.290   8.372  0.1289  0.2596 -0.9006
   88SAPS  H18Y 8543   1.742   4.153   8.273 -1.9028 -1.2886  0.7903
   88SAPS  H18Z 8544   1.798   4.116   8.442 -0.2163 -1.0165 -0.2597
   89SAPS     N 8545   0.039   0.632  11.033 -0.3176 -0.5149 -0.2045
   89SAPS   HN1 8546   0.051   0.623  11.136 -2.9838  1.3121  0.2996
   89SAPS   HN2 8547  -0.047   0.686  11.011  0.1884 -0.3550 -1.8880
   89SAPS   HN3 8548   0.025   0.535  10.999  1.9074 -0.7459 -0.5905
   89SAPS   C12 8549   0.164   0.681  10.970  0.4086  0.1508 -0.2826
   89SAPS  H12A 8550   0.174   0.789  10.974 -1.5382  0.3079  1.0174
   89SAPS   C13 8551   0.293   0.609  11.029  0.6748 -0.2819  0.5990
   89SAPS  O13A 8552   0.283   0.510  11.101  0.0966  0.1188  0.2110
   89SAPS  O13B 8553   0.400   0.667  11.006  0.2326 -0.4832  0.0958
   89SAPS   C11 8554   0.156   0.639  10.823 -0.0259  0.8702  0.5629
   89SAPS  H11A 8555   0.245   0.671  10.764 -0.6596  0.7287 -0.4649
   89SAPS  H11B 8556   0.071   0.684  10.768 -0.6890 -1.1675 -0.1226
   89SAPS     P 8557   0.074   0.418  10.698 -0.6181  0.0079  0.1976
   89SAPS   O13 8558   0.126   0.280  10.711 -0.8849 -0.3096  0.0210
   89SAPS   O14 8559  -0.070   0.431  10.716 -0.6405 -0.2727 -0.2186
   89SAPS   O12 8560   0.154   0.497  10.812  0.3719  0.4372  0.3282
   89SAPS   O11 8561   0.121   0.488  10.568  0.0611  0.5005  0.7485
   89SAPS    C1 8562   0.039   0.546  10.470  0.6339  0.8461 -0.0362
   89SAPS    HA 8563  -0.004   0.458  10.417  1.9368 -0.5379  1.1689
   89SAPS    HB 8564  -0.047   0.600  10.514 -0.4243 -0.2725 -0.6925
   89SAPS    C2 8565   0.111   0.621  10.357  0.5461 -0.4061 -0.3352
   89SAPS    HS 8566   0.039   0.616  10.273 -2.0855 -3.6236  2.0083
   89SAPS   O21 8567   0.237   0.561  10.316 -0.0530  0.5617 -0.3219
   89SAPS   C21 8568   0.239   0.447  10.248 -0.1183  0.0183 -0.1987
   89SAPS   O22 8569   0.140   0.384  10.214  0.3810  0.2404 -0.1107
   89SAPS   C22 8570   0.388   0.422  10.209 -0.0865  0.0435 -0.7076
   89SAPS   H2R 8571   0.425   0.513  10.156  0.8449  0.3256  0.4264
   89SAPS   H2S 8572   0.456   0.404  10.295 -0.0698  0.0254 -0.7245
   89SAPS    C3 8573   0.151   0.764  10.391 -0.3170  0.4773  0.3183
   89SAPS    HX 8574   0.228   0.768  10.470 -0.1365 -0.8185  0.2174
   89SAPS    HY 8575   0.060   0.820  10.423  1.7577  3.3778  1.4332
   89SAPS   O31 8576   0.195   0.829  10.274 -0.0739 -0.0829 -0.5225
   89SAPS   C31 8577   0.327   0.828  10.245  0.4877 -0.1362  0.7420
   89SAPS   O32 8578   0.411   0.763  10.298 -0.2824  0.5332  0.3458
   89SAPS   C32 8579   0.353   0.927  10.138  0.5414 -1.0976  0.0135
   89SAPS   H2X 8580   0.464   0.931  10.134  0.4745  1.2033 -0.5997
   89SAPS   H2Y 8581   0.321   1.020  10.190 -0.3051 -0.0815 -2.2899
   89SAPS   C23 8582   0.388   0.298  10.122 -0.0330 -0.2591 -0.5839
   89SAPS   H3R 8583   0.296   0.294  10.060 -0.3988  0.6185 -0.1085
   89SAPS   H3S 8584   0.387   0.215  10.196  0.2179  1.6761  1.6518
   89SAPS   C24 8585   0.507   0.293  10.032  0.1056 -0.2360 -0.7915
   89SAPS   H4R 8586   0.595   0.304  10.099 -0.4958 -1.6178  0.2470
   89SAPS   H4S 8587   0.511   0.384   9.970  3.3303 -0.2368 -0.6982
   89SAPS   C25 8588   0.506   0.166   9.964  0.0040 -0.1700 -0.3086
   89SAPS   H5R 8589   0.516   0.076  10.026 -1.4879  0.9212  1.5511
   89SAPS   C26 8590   0.505   0.142   9.829 -0.1393  0.2811 -0.4508
   89SAPS   H6R 8591   0.497   0.041   9.787  0.3232 -0.0277  0.1923
   89SAPS   C27 8592   0.512   0.250   9.725 -0.0866  0.3755  0.0852
   89SAPS   H7R 8593   0.500   0.353   9.767  2.6069  1.0406 -0.6485
   89SAPS   H7S 8594   0.424   0.258   9.658  1.1338 -0.6544 -1.6673
   89SAPS   C28 8595   0.641   0.233   9.644 -0.1819 -0.3736 -0.5719
   89SAPS   H8R 8596   0.737   0.256   9.692 -1.1286  2.5567  0.0449
   89SAPS   C29 8597   0.638   0.176   9.523  0.1431 -0.1640 -0.2658
   89SAPS   H9R 8598   0.733   0.171   9.467 -0.5826  0.4036 -1.5630
   89SAPS  C210 8599   0.516   0.133   9.451  0.3503  0.1903  0.0234
   89SAPS  H10R 8600   0.458   0.225   9.429  0.6492 -0.1492 -2.3288
   89SAPS  H10S 8601   0.457   0.072   9.522  1.7964 -1.7839 -0.4259
   89SAPS  C211 8602   0.554   0.057   9.333 -0.8184  0.7658 -0.6601
   89SAPS  H11R 8603   0.606  -0.039   9.345 -0.2573  0.8463 -2.2974
   89SAPS  C212 8604   0.553   0.095   9.203  0.4666  0.5611 -0.7980
   89SAPS  H12R 8605   0.587   0.021   9.128 -0.2121 -1.5837  0.9517
   89SAPS  C213 8606   0.508   0.222   9.139  0.7378 -0.4959 -0.1079
   89SAPS  H13R 8607   0.530   0.302   9.213 -1.1247  0.7969 -0.9035
   89SAPS  H13S 8608   0.399   0.208   9.121  0.4981 -3.1199  2.9151
   89SAPS  C214 8609   0.576   0.269   9.015  0.2744  0.1912  0.5749
   89SAPS  H14R 8610   0.684   0.251   9.023  0.1028 -0.6538  1.0840
   89SAPS  C215 8611   0.522   0.334   8.908 -0.0249 -0.0941 -0.4146
   89SAPS  H15R 8612   0.594   0.370   8.833  0.1048 -2.2822 -1.3786
   89SAPS  C216 8613   0.377   0.368   8.894  0.3418 -0.3096 -0.3253
   89SAPS  H16R 8614   0.349   0.447   8.968 -0.0135 -0.3385 -0.4267
   89SAPS  H16S 8615   0.313   0.281   8.918 -0.0711  0.0099 -0.2563
   89SAPS  C217 8616   0.320   0.407   8.757  0.0298 -0.8196 -0.2223
   89SAPS  H17R 8617   0.211   0.422   8.773  0.2243  0.8044 -0.3399
   89SAPS  H17S 8618   0.331   0.323   8.685 -0.8004 -0.7492 -0.4403
   89SAPS  C218 8619   0.380   0.528   8.695 -0.6212  0.1432  0.6211
   89SAPS  H18R 8620   0.490   0.517   8.686 -0.7252 -1.5294  1.3768
   89SAPS  H18S 8621   0.358   0.616   8.760  0.6641  0.5524  0.5193
   89SAPS  C219 8622   0.319   0.561   8.551  0.1639  0.1894  0.0910
   89SAPS  H19R 8623   0.356   0.656   8.507 -1.2723  0.9546  0.5169
   89SAPS  H19S 8624   0.210   0.578   8.563  0.4118  3.0128 -1.3128
   89SAPS  C220 8625   0.352   0.460   8.436 -0.0773 -0.1585 -1.2599
   89SAPS  H20R 8626   0.462   0.441   8.431  0.1687  0.7594  0.2034
   89SAPS  H20S 8627   0.319   0.489   8.335 -0.6406 -2.5272 -1.7914
   89SAPS  H20T 8628   0.311   0.357   8.448  0.3513 -0.1352  0.6741
   89SAPS   C33 8629   0.283   0.899  10.008  0.2635  0.6209  0.7413
   89SAPS   H3X 8630   0.291   0.984   9.937 -2.8965  1.7296  1.6416
   89SAPS   H3Y 8631   0.173   0.887  10.024 -0.0282  2.2517 -0.0252
   89SAPS   C34 8632   0.342   0.778   9.934 -0.7649 -0.6179 -0.6021
   89SAPS   H4X 8633   0.328   0.689   9.998 -1.2351  0.4144  0.7399
   89SAPS   H4Y 8634   0.451   0.791   9.913  0.0600 -2.3295  2.2890
   89SAPS   C35 8635   0.278   0.750   9.794 -0.1506 -0.2100 -0.1882
   89SAPS   H5X 8636   0.302   0.842   9.738 -2.3737  2.3940  2.9770
   89SAPS   H5Y 8637   0.167   0.745   9.795 -0.1306 -1.0747 -0.9842
   89SAPS   C36 8638   0.335   0.623   9.739  0.1665  0.3305 -0.3025
   89SAPS   H6X 8639   0.296   0.532   9.788  2.0319 -0.3252  0.0242
   89SAPS   H6Y 8640   0.444   0.620   9.761 -0.0101  1.1041  0.7069
   89SAPS   C37 8641   0.301   0.598   9.591  0.1734  0.6981 -0.8834
   89SAPS   H7X 8642   0.193   0.620   9.576 -0.5798 -0.5217  2.3100
   89SAPS   H7Y 8643   0.327   0.493   9.566 -0.4807  0.4354 -0.4618
   89SAPS   C38 8644   0.391   0.689   9.499 -0.5046  0.1790 -0.2312
   89SAPS   H8X 8645   0.494   0.673   9.537 -0.8997  0.3581  0.9333
   89SAPS   H8Y 8646   0.362   0.792   9.528  1.2780  0.6909 -0.1925
   89SAPS   C39 8647   0.375   0.658   9.351 -0.4686 -0.5444  0.3137
   89SAPS   H9X 8648   0.272   0.675   9.314 -1.2858 -1.3609  2.0874
   89SAPS   H9Y 8649   0.406   0.551   9.340 -0.0026 -0.2608 -1.1846
   89SAPS  C310 8650   0.472   0.748   9.274  0.0521  0.2392 -0.0191
   89SAPS  H10X 8651   0.575   0.733   9.313 -0.6413 -0.6046  1.5496
   89SAPS  H10Y 8652   0.437   0.849   9.304 -2.3186 -1.2448  2.5203
   89SAPS  C311 8653   0.472   0.727   9.127  0.7069 -0.4385  0.7068
   89SAPS  H11X 8654   0.366   0.715   9.095  0.2603 -1.6868  2.5620
   89SAPS  H11Y 8655   0.525   0.633   9.100 -0.3870 -1.4165  1.8804
   89SAPS  C312 8656   0.530   0.845   9.044  0.4341  0.1744  0.8441
   89SAPS  H12X 8657   0.639   0.841   9.065  0.8345 -2.4426 -1.4859
   89SAPS  H12Y 8658   0.495   0.942   9.085 -1.1805  0.1155 -0.3575
   89SAPS  C313 8659   0.505   0.860   8.897 -0.7945  0.1696  0.3581
   89SAPS  H13X 8660   0.396   0.844   8.880 -0.6626  1.5932 -2.0089
   89SAPS  H13Y 8661   0.551   0.773   8.844 -0.2381  1.0987 -0.7059
   89SAPS  C314 8662   0.546   0.996   8.847  0.2384  0.0638  0.3792
   89SAPS  H14X 8663   0.655   1.008   8.863  0.8705  1.2296 -4.2185
   89SAPS  H14Y 8664   0.502   1.083   8.901  0.2861 -0.9326  2.0651
   89SAPS  C315 8665   0.533   1.005   8.696 -0.1741  0.0332  0.3448
   89SAPS  H15X 8666   0.426   0.985   8.678  0.1830 -0.9839 -0.7097
   89SAPS  H15Y 8667   0.579   0.912   8.656 -0.6864 -0.3357  0.6148
   89SAPS  C316 8668   0.595   1.141   8.638  0.2861  0.5844 -0.3809
   89SAPS  H16X 8669   0.610   1.126   8.529  2.0012  3.4958 -0.5974
   89SAPS  H16Y 8670   0.689   1.167   8.693  0.4358 -0.7451  0.0053
   89SAPS  C317 8671   0.502   1.266   8.651  0.9455 -0.4734  0.0498
   89SAPS  H17X 8672   0.554   1.355   8.608  0.1359  1.5024  3.0135
   89SAPS  H17Y 8673   0.466   1.289   8.753  1.3839  0.5972 -0.0273
   89SAPS  C318 8674   0.371   1.251   8.569  0.5957  0.0734  0.6894
   89SAPS  H18X 8675   0.303   1.339   8.575  1.9477  1.2387 -0.6626
   89SAPS  H18Y 8676   0.307   1.164   8.597 -3.6508  3.1433  1.0456
   89SAPS  H18Z 8677   0.390   1.249   8.460  0.9866 -1.2184  0.7740
   90SAPS     N 8678   2.344   0.427  10.823  0.4367  0.1672  0.1518
   90SAPS   HN1 8679   2.329   0.455  10.724  1.4928 -1.8998 -0.6110
   90SAPS   HN2 8680   2.288   0.488  10.887  1.9534 -0.5116  2.1816
   90SAPS   HN3 8681   2.440   0.454  10.853 -0.3269  3.0540  0.2036
   90SAPS   C12 8682   2.292   0.296  10.838  0.1346 -0.1437  0.2745
   90SAPS  H12A 8683   2.342   0.232  10.768 -0.5038  0.8365 -1.1019
   90SAPS   C13 8684   2.321   0.224  10.973 -0.0780 -0.3982  0.3985
   90SAPS  O13A 8685   2.374   0.296  11.064 -0.1371  0.0539 -0.0601
   90SAPS  O13B 8686   2.289   0.104  10.993  0.5516 -0.2039 -0.3915
   90SAPS   C11 8687   2.141   0.295  10.810  0.3980 -0.2354  0.5134
   90SAPS  H11A 8688   2.095   0.368  10.880 -0.1061  1.2443 -1.3223
   90SAPS  H11B 8689   2.108   0.192  10.837 -1.0472  0.1176  0.1651
   90SAPS     P 8690   1.986   0.277  10.599  0.0308 -0.1849  0.2497
   90SAPS   O13 8691   1.965   0.141  10.641  0.7167 -0.0371 -0.2033
   90SAPS   O14 8692   1.873   0.374  10.599 -0.2204  0.5197 -0.4352
   90SAPS   O12 8693   2.113   0.332  10.677  1.0249  0.1545 -0.1395
   90SAPS   O11 8694   2.047   0.259  10.462 -0.3915 -0.0689 -0.2057
   90SAPS    C1 8695   1.975   0.284  10.337 -0.3083  1.2596 -0.1236
   90SAPS    HA 8696   1.919   0.379  10.347 -0.7996  0.9239  0.3492
   90SAPS    HB 8697   2.056   0.300  10.263 -1.0457  0.7883 -1.0432
   90SAPS    C2 8698   1.892   0.159  10.296 -0.0923  0.0767 -0.2728
   90SAPS    HS 8699   1.814   0.136  10.372 -1.6176 -0.2088 -1.9108
   90SAPS   O21 8700   1.984   0.053  10.296 -0.3409  0.3903  0.1667
   90SAPS   C21 8701   1.950  -0.067  10.317 -0.0341 -0.6824 -0.2720
   90SAPS   O22 8702   1.839  -0.110  10.343  0.6850 -0.2250 -0.0556
   90SAPS   C22 8703   2.072  -0.154  10.314 -0.5724 -0.3354  0.4066
   90SAPS   H2R 8704   2.142  -0.101  10.382  0.0374  0.0135 -0.4809
   90SAPS   H2S 8705   2.045  -0.252  10.359 -0.0355 -0.9765 -0.6490
   90SAPS    C3 8706   1.827   0.183  10.159  0.6809 -0.8168  0.3398
   90SAPS    HX 8707   1.742   0.254  10.172  0.8338 -0.8698  1.7344
   90SAPS    HY 8708   1.783   0.083  10.137 -0.5992 -0.1989  0.0197
   90SAPS   O31 8709   1.908   0.242  10.060  0.3623 -0.2800 -0.7236
   90SAPS   C31 8710   1.955   0.162   9.972  0.1289  0.2596 -0.3341
   90SAPS   O32 8711   1.950   0.040   9.968  0.2232 -0.3380  0.5589
   90SAPS   C32 8712   2.029   0.260   9.869  0.1603 -0.5257  0.2089
   90SAPS   H2X 8713   2.126   0.276   9.922 -0.6030 -0.1206  1.5057
   90SAPS   H2Y 8714   1.971   0.354   9.876 -1.0478 -1.4129  2.8594
   90SAPS   C23 8715   2.141  -0.182  10.173  0.3868 -0.6847 -0.6810
   90SAPS   H3R 8716   2.251  -0.177  10.188  0.5181 -0.3734 -1.6704
   90SAPS   H3S 8717   2.121  -0.106  10.095  1.9224  2.9028  2.2611
   90SAPS   C24 8718   2.117  -0.329  10.121  0.4969 -0.1033  0.2976
   90SAPS   H4R 8719   2.122  -0.402  10.205  0.5571  1.6099  1.8051
   90SAPS   H4S 8720   2.204  -0.363  10.061 -1.0895 -0.9842 -1.5798
   90SAPS   C25 8721   2.000  -0.326  10.023  0.3466  0.3124 -0.5796
   90SAPS   H5R 8722   1.901  -0.334  10.070  1.3533  0.3063  1.6306
   90SAPS   C26 8723   2.001  -0.317   9.883 -0.5122  0.4617  0.0457
   90SAPS   H6R 8724   1.899  -0.302   9.843 -1.0054 -1.0547  0.7049
   90SAPS   C27 8725   2.122  -0.319   9.798 -0.2797 -0.4304  0.3123
   90SAPS   H7R 8726   2.136  -0.422   9.757  0.1570 -0.3569  0.2757
   90SAPS   H7S 8727   2.211  -0.293   9.860 -0.5434 -1.3316  1.0813
   90SAPS   C28 8728   2.114  -0.218   9.684 -0.3557 -1.2564  0.2281
   90SAPS   H8R 8729   2.086  -0.119   9.723  1.4111 -1.1404  1.2222
   90SAPS   C29 8730   2.132  -0.240   9.555 -0.4096 -0.2439 -0.4134
   90SAPS   H9R 8731   2.127  -0.149   9.493  0.8093 -0.7340 -1.2594
   90SAPS  C210 8732   2.159  -0.370   9.483 -0.1518 -0.8585 -0.5167
   90SAPS  H10R 8733   2.165  -0.458   9.551  0.8022 -0.5093 -0.1512
   90SAPS  H10S 8734   2.258  -0.361   9.435  0.0460 -3.2243 -0.6115
   90SAPS  C211 8735   2.045  -0.370   9.385 -0.2464 -0.1564  0.2502
   90SAPS  H11R 8736   1.947  -0.399   9.424  0.5106 -1.0657  1.5255
   90SAPS  C212 8737   2.041  -0.350   9.253  0.3636  0.3970 -0.2026
   90SAPS  H12R 8738   1.945  -0.359   9.198  0.1533  0.8094  0.0978
   90SAPS  C213 8739   2.157  -0.323   9.167  0.1100  0.2407  0.0874
   90SAPS  H13R 8740   2.255  -0.329   9.218  0.0636 -3.2979 -0.0951
   90SAPS  H13S 8741   2.144  -0.219   9.132  1.1454  0.3515  0.0313
   90SAPS  C214 8742   2.151  -0.412   9.048  0.2486  0.1860 -0.2168
   90SAPS  H14R 8743   2.136  -0.519   9.065  1.0413 -0.3068 -2.4259
   90SAPS  C215 8744   2.198  -0.372   8.925 -0.5455  0.6678  0.1815
   90SAPS  H15R 8745   2.177  -0.446   8.846  1.2942  1.6500 -1.2587
   90SAPS  C216 8746   2.256  -0.234   8.887  0.4177  0.3985  0.5676
   90SAPS  H16R 8747   2.334  -0.246   8.809  0.1827  1.7190  0.1200
   90SAPS  H16S 8748   2.318  -0.190   8.967  1.1330  2.4583 -1.0824
   90SAPS  C217 8749   2.146  -0.137   8.843  0.4667  0.3906 -0.4626
   90SAPS  H17R 8750   2.202  -0.048   8.809 -0.1707  1.2636  0.7061
   90SAPS  H17S 8751   2.092  -0.104   8.935  0.1103 -0.3017 -0.4148
   90SAPS  C218 8752   2.051  -0.191   8.734  0.9795 -0.2161 -0.4771
   90SAPS  H18R 8753   1.967  -0.118   8.725  1.4001  0.4058  0.4978
   90SAPS  H18S 8754   2.015  -0.296   8.740 -1.8564  0.7752  1.2463
   90SAPS  C219 8755   2.113  -0.161   8.600  0.0250  0.0063 -1.0621
   90SAPS  H19R 8756   2.214  -0.206   8.590  0.7685  1.0687  1.4258
   90SAPS  H19S 8757   2.137  -0.053   8.591  0.2536 -0.0413 -1.0128
   90SAPS  C220 8758   2.042  -0.212   8.482  0.5261  0.0474 -0.4924
   90SAPS  H20R 8759   2.032  -0.323   8.474  0.4389 -0.2194  2.5061
   90SAPS  H20S 8760   2.095  -0.176   8.391  0.1299 -1.9902 -1.5604
   90SAPS  H20T 8761   1.942  -0.164   8.488 -0.1743 -1.6412  2.9444
   90SAPS   C33 8762   2.021   0.211   9.726  0.0167 -0.4704 -0.2453
   90SAPS   H3X 8763   2.044   0.104   9.709  0.0327 -0.5154  0.0528
   90SAPS   H3Y 8764   2.105   0.266   9.678 -0.4460  0.4036 -0.0668
   90SAPS   C34 8765   1.878   0.240   9.668  0.1432  0.4104  0.0778
   90SAPS   H4X 8766   1.853   0.346   9.687  0.6882  1.0919 -2.8036
   90SAPS   H4Y 8767   1.805   0.171   9.716  1.7074 -1.6862 -0.4414
   90SAPS   C35 8768   1.880   0.223   9.517  0.2447  1.0116 -0.7123
   90SAPS   H5X 8769   1.954   0.287   9.466  1.7168  0.4213  0.6533
   90SAPS   H5Y 8770   1.780   0.250   9.476 -0.4014 -0.8502 -0.4353
   90SAPS   C36 8771   1.917   0.082   9.467 -0.2794 -0.5757  1.1197
   90SAPS   H6X 8772   1.827   0.018   9.459 -1.0169  0.6731 -0.9080
   90SAPS   H6Y 8773   1.985   0.031   9.538  0.1814 -1.8122 -0.1818
   90SAPS   C37 8774   2.002   0.105   9.341  0.6915 -0.2986 -0.0034
   90SAPS   H7X 8775   2.035   0.012   9.290  0.1433 -0.7448  0.4368
   90SAPS   H7Y 8776   2.095   0.160   9.364  2.0285 -1.3337 -2.7054
   90SAPS   C38 8777   1.949   0.196   9.222  1.0046 -0.6023  0.0797
   90SAPS   H8X 8778   1.911   0.291   9.265  1.9623  0.2974 -1.0336
   90SAPS   H8Y 8779   1.854   0.156   9.182 -0.9350  1.6363  2.3146
   90SAPS   C39 8780   2.051   0.235   9.121  0.5081  0.3060  0.5230
   90SAPS   H9X 8781   1.982   0.269   9.042  1.5110  1.8581  0.2919
   90SAPS   H9Y 8782   2.112   0.146   9.094  2.0379  1.0005  1.6067
   90SAPS  C310 8783   2.148   0.346   9.168  0.9350  0.2792 -0.2687
   90SAPS  H10X 8784   2.207   0.301   9.250  0.9341 -1.8407 -1.3853
   90SAPS  H10Y 8785   2.093   0.433   9.210 -1.3317 -1.5938  0.7709
   90SAPS  C311 8786   2.243   0.394   9.058 -0.2637 -0.1080 -0.2660
   90SAPS  H11X 8787   2.315   0.311   9.041 -0.6839 -0.5217 -0.0308
   90SAPS  H11Y 8788   2.304   0.479   9.093 -0.5794 -0.1006  0.2796
   90SAPS  C312 8789   2.181   0.437   8.929 -0.3822  0.6769 -0.5056
   90SAPS  H12X 8790   2.115   0.525   8.949 -3.0029 -1.3018 -0.2727
   90SAPS  H12Y 8791   2.102   0.366   8.896 -0.4663 -0.1523  1.4235
   90SAPS  C313 8792   2.280   0.480   8.818  0.6761  0.5279 -0.3993
   90SAPS  H13X 8793   2.361   0.405   8.824  2.5647  2.7090  2.5177
   90SAPS  H13Y 8794   2.323   0.580   8.842  3.0602 -0.9839  1.7918
   90SAPS  C314 8795   2.232   0.469   8.675  0.3245  0.4723  0.5372
   90SAPS  H14X 8796   2.157   0.549   8.659 -0.1496 -0.0417  0.1677
   90SAPS  H14Y 8797   2.186   0.370   8.655  1.6440  0.1852 -1.1701
   90SAPS  C315 8798   2.333   0.503   8.562 -0.8320  0.1671 -0.0265
   90SAPS  H15X 8799   2.417   0.432   8.577 -0.9828 -0.7087 -2.9964
   90SAPS  H15Y 8800   2.372   0.606   8.578 -0.9888  0.8026 -3.4569
   90SAPS  C316 8801   2.279   0.500   8.419  0.1921  0.4306  0.0148
   90SAPS  H16X 8802   2.186   0.559   8.410  1.0460  1.5698 -1.7045
   90SAPS  H16Y 8803   2.253   0.399   8.381  0.1130  0.5041 -0.1288
   90SAPS  C317 8804   2.381   0.559   8.326  0.6367  0.0799 -0.5352
   90SAPS  H17X 8805   2.455   0.478   8.316 -0.2034 -0.8879  0.9002
   90SAPS  H17Y 8806   2.427   0.649   8.373  0.5397  0.6675 -1.5436
   90SAPS  C318 8807   2.320   0.601   8.189 -0.9022  0.2825  0.5521
   90SAPS  H18X 8808   2.400   0.628   8.118 -0.0481 -0.9756  1.0151
   90SAPS  H18Y 8809   2.250   0.687   8.200 -0.2841  1.0496 -1.3753
   90SAPS  H18Z 8810   2.271   0.509   8.151  1.3315 -0.2313 -1.1885
   91SAPS     N 8811   0.430   4.963   5.695  0.1380 -0.0187  0.5077
   91SAPS   HN1 8812   0.392   4.908   5.775 -1.2772 -0.9111 -0.7465
   91SAPS   HN2 8813   0.418   5.061   5.726  3.4968  0.2245  1.2263
   91SAPS   HN3 8814   0.381   4.951   5.604  0.2801  1.5772  0.2045
   91SAPS   C12 8815   0.584   4.948   5.705 -0.9934 -0.8802  0.0702
   91SAPS  H12A 8816   0.616   4.846   5.691 -0.1031 -0.6639  0.5273
   91SAPS   C13 8817   0.659   5.044   5.609 -0.0277 -0.9689 -0.7650
   91SAPS  O13A 8818   0.602   5.089   5.509 -0.3756 -0.0454  0.2103
   91SAPS  O13B 8819   0.784   5.043   5.612 -0.2477 -0.7462 -0.8242
   91SAPS   C11 8820   0.634   4.986   5.853  0.1178  0.3715 -0.8570
   91SAPS  H11A 8821   0.575   5.074   5.887 -0.3206 -0.0682 -0.4558
   91SAPS  H11B 8822   0.741   5.014   5.849 -0.0587  1.3281  0.5776
   91SAPS     P 8823   0.485   4.853   6.034  0.2644 -0.3726 -0.0257
   91SAPS   O13 8824   0.363   4.881   5.951  0.6746 -0.1967 -0.1170
   91SAPS   O14 8825   0.494   4.724   6.093  0.1342  0.3475  0.7144
   91SAPS   O12 8826   0.612   4.871   5.945  0.3997 -0.1869 -0.3992
   91SAPS   O11 8827   0.497   4.957   6.147 -0.0009 -0.4582 -0.3764
   91SAPS    C1 8828   0.626   5.010   6.191 -0.0498  0.6936  0.1851
   91SAPS    HA 8829   0.682   5.063   6.111  0.8791  0.4123  0.6391
   91SAPS    HB 8830   0.615   5.085   6.272 -0.5602 -0.5320  1.2822
   91SAPS    C2 8831   0.718   4.893   6.245 -0.3336 -0.3698 -0.3505
   91SAPS    HS 8832   0.716   4.805   6.177  2.7226  0.9686 -2.2906
   91SAPS   O21 8833   0.676   4.863   6.379 -0.2761  0.4237 -0.2660
   91SAPS   C21 8834   0.710   4.750   6.428  0.3790 -0.2263 -0.0904
   91SAPS   O22 8835   0.786   4.664   6.373  0.0204  0.6011 -0.4467
   91SAPS   C22 8836   0.625   4.726   6.555  0.1264  0.5189  0.1881
   91SAPS   H2R 8837   0.520   4.753   6.528 -0.2119 -1.3218 -0.4222
   91SAPS   H2S 8838   0.648   4.626   6.596 -1.9908  0.0472  0.2609
   91SAPS    C3 8839   0.864   4.944   6.249 -0.0903  0.4224  0.2916
   91SAPS    HX 8840   0.900   4.959   6.145 -0.8013  1.7140  0.2244
   91SAPS    HY 8841   0.932   4.866   6.291 -0.3538 -0.5404 -1.0448
   91SAPS   O31 8842   0.878   5.063   6.319 -0.3348 -0.0790  0.8441
   91SAPS   C31 8843   0.997   5.127   6.298  0.2923  0.3686 -0.0777
   91SAPS   O32 8844   1.085   5.082   6.235 -0.4537  0.2668  0.8172
   91SAPS   C32 8845   1.008   5.263   6.364  0.1394 -0.7732 -0.2972
   91SAPS   H2X 8846   0.931   5.260   6.444  2.0070 -2.4382  1.4820
   91SAPS   H2Y 8847   0.985   5.343   6.290  0.2896 -1.8869 -1.5723
   91SAPS   C23 8848   0.666   4.820   6.669 -0.5691  0.1892 -0.3945
   91SAPS   H3R 8849   0.587   4.800   6.745 -1.8192  1.9443 -1.2113
   91SAPS   H3S 8850   0.660   4.926   6.637  0.6260 -0.2125 -1.9801
   91SAPS   C24 8851   0.801   4.780   6.736  0.4076 -0.5504  0.3145
   91SAPS   H4R 8852   0.790   4.678   6.778  0.6506 -0.8169 -0.2753
   91SAPS   H4S 8853   0.808   4.847   6.825  3.2942  0.2589 -0.4680
   91SAPS   C25 8854   0.924   4.803   6.657  0.5024  0.4822 -0.3885
   91SAPS   H5R 8855   0.914   4.867   6.568 -1.2097 -1.1357 -1.4081
   91SAPS   C26 8856   1.046   4.742   6.684  0.3353 -0.1209  0.3135
   91SAPS   H6R 8857   1.125   4.761   6.610  0.6872  0.1180  0.7466
   91SAPS   C27 8858   1.069   4.639   6.788 -0.3166  0.0529  0.1170
   91SAPS   H7R 8859   1.094   4.545   6.734 -0.8557 -1.0953  1.8069
   91SAPS   H7S 8860   0.977   4.617   6.845  1.2838 -0.9025  2.4202
   91SAPS   C28 8861   1.195   4.680   6.867 -0.9423 -0.2197 -0.1740
   91SAPS   H8R 8862   1.292   4.684   6.816 -1.1090  0.5393 -0.4401
   91SAPS   C29 8863   1.194   4.699   6.998 -0.0912  0.2450 -0.4544
   91SAPS   H9R 8864   1.294   4.715   7.040 -0.2193  1.1457 -0.4844
   91SAPS  C210 8865   1.073   4.695   7.089  0.9737  0.0728  0.3704
   91SAPS  H10R 8866   1.109   4.676   7.192  1.8179 -0.3813 -0.0079
   91SAPS  H10S 8867   1.021   4.601   7.062  0.1988 -0.0489  2.2116
   91SAPS  C211 8868   0.957   4.797   7.081 -0.3072 -0.4446 -0.0387
   91SAPS  H11R 8869   0.951   4.861   6.992 -0.4505 -1.8734 -1.0775
   91SAPS  C212 8870   0.857   4.809   7.167  0.5855  0.4268  0.9201
   91SAPS  H12R 8871   0.775   4.880   7.150  1.4881  0.9659 -1.3418
   91SAPS  C213 8872   0.846   4.733   7.295 -0.0425 -0.2180  1.1770
   91SAPS  H13R 8873   0.875   4.626   7.285 -1.0571 -0.6195  2.3261
   91SAPS  H13S 8874   0.742   4.712   7.328  1.1320 -1.1834  4.4966
   91SAPS  C214 8875   0.911   4.809   7.415  0.9191  0.1408 -0.0906
   91SAPS  H14R 8876   0.987   4.884   7.387 -1.6795  2.4539 -1.1976
   91SAPS  C215 8877   0.872   4.800   7.543 -0.5889 -0.3814  0.3442
   91SAPS  H15R 8878   0.924   4.861   7.618 -1.0320  1.5535 -0.8955
   91SAPS  C216 8879   0.769   4.715   7.606  0.0209  0.2985  0.5090
   91SAPS  H16R 8880   0.769   4.619   7.549 -2.6292 -0.6870  2.1116
   91SAPS  H16S 8881   0.671   4.765   7.601  1.0645  2.2921 -0.7817
   91SAPS  C217 8882   0.818   4.685   7.749  0.3402  0.0022  0.4464
   91SAPS  H17R 8883   0.817   4.768   7.822  0.8362  0.5318 -0.1411
   91SAPS  H17S 8884   0.922   4.650   7.735  0.1753  0.0451 -0.9963
   91SAPS  C218 8885   0.748   4.560   7.795 -0.1425 -0.0123  0.3246
   91SAPS  H18R 8886   0.766   4.490   7.710  0.4479  0.9339 -0.3427
   91SAPS  H18S 8887   0.641   4.589   7.794  0.4178  2.1379 -0.8855
   91SAPS  C219 8888   0.792   4.508   7.934  0.4977  0.0008 -0.5049
   91SAPS  H19R 8889   0.781   4.597   8.000  1.6027  2.0793 -3.0223
   91SAPS  H19S 8890   0.897   4.475   7.926  0.7312  0.9865 -1.7496
   91SAPS  C220 8891   0.715   4.382   7.985  0.8357  0.1779  0.3452
   91SAPS  H20R 8892   0.606   4.397   7.978  0.7714 -0.4588 -0.0811
   91SAPS  H20S 8893   0.756   4.338   8.078  2.4403 -1.6575 -1.1641
   91SAPS  H20T 8894   0.736   4.299   7.914 -1.3731  1.0256 -1.3501
   91SAPS   C33 8895   1.153   5.294   6.427  0.2114  0.4515 -0.7340
   91SAPS   H3X 8896   1.142   5.401   6.453 -0.6882 -0.1350  1.3698
   91SAPS   H3Y 8897   1.233   5.274   6.353 -0.2383 -0.9802 -0.8656
   91SAPS   C34 8898   1.179   5.212   6.549  0.2968 -0.0891 -1.2695
   91SAPS   H4X 8899   1.144   5.110   6.520  0.8687  0.0927 -2.6113
   91SAPS   H4Y 8900   1.113   5.246   6.632 -0.3897  1.0010 -2.2419
   91SAPS   C35 8901   1.325   5.212   6.592  1.0685  0.6545 -0.3238
   91SAPS   H5X 8902   1.347   5.315   6.626  1.7506 -0.0275  1.4138
   91SAPS   H5Y 8903   1.391   5.181   6.508  1.5618  3.5897 -1.0581
   91SAPS   C36 8904   1.342   5.125   6.718  0.0692 -0.3178 -1.2401
   91SAPS   H6X 8905   1.449   5.109   6.746 -0.0016  1.2455  0.0450
   91SAPS   H6Y 8906   1.303   5.021   6.711  1.8285 -1.1578  0.8080
   91SAPS   C37 8907   1.290   5.180   6.853 -0.4329 -0.1062 -0.6595
   91SAPS   H7X 8908   1.180   5.185   6.842 -0.2195  0.5833 -2.7937
   91SAPS   H7Y 8909   1.336   5.280   6.867  1.8358 -1.2751  0.6575
   91SAPS   C38 8910   1.327   5.092   6.967 -0.0180 -1.2886 -0.1539
   91SAPS   H8X 8911   1.436   5.104   6.980 -0.0267 -0.9398 -0.3965
   91SAPS   H8Y 8912   1.310   4.985   6.944  0.8470 -1.5704  0.4884
   91SAPS   C39 8913   1.250   5.143   7.088  0.5278 -0.3730 -0.1904
   91SAPS   H9X 8914   1.140   5.133   7.072  0.9194 -2.4820 -1.6292
   91SAPS   H9Y 8915   1.256   5.254   7.100  1.3274 -0.7335  3.3905
   91SAPS  C310 8916   1.301   5.075   7.217 -0.3621  0.5440  0.8773
   91SAPS  H10X 8917   1.403   5.112   7.243  0.5076 -0.8261 -0.4602
   91SAPS  H10Y 8918   1.299   4.964   7.210 -0.3341  0.4712  1.9782
   91SAPS  C311 8919   1.213   5.113   7.339 -0.0260 -0.2113 -0.8125
   91SAPS  H11X 8920   1.118   5.059   7.320  0.8852 -0.9893 -3.3989
   91SAPS  H11Y 8921   1.198   5.223   7.342  0.0574 -0.2074 -0.5787
   91SAPS  C312 8922   1.273   5.073   7.474 -0.5724 -0.1771  0.3643
   91SAPS  H12X 8923   1.367   5.132   7.486 -0.8590  0.3132  0.2137
   91SAPS  H12Y 8924   1.302   4.966   7.466  0.7603 -0.0468  3.0229
   91SAPS  C313 8925   1.182   5.092   7.596  0.5360 -0.1878 -0.2742
   91SAPS  H13X 8926   1.078   5.055   7.577  0.7690 -0.7623 -0.4378
   91SAPS  H13Y 8927   1.173   5.198   7.627  2.6353  0.6897 -2.5067
   91SAPS  C314 8928   1.224   5.014   7.723 -0.0244  0.3634  0.5714
   91SAPS  H14X 8929   1.316   5.067   7.758  0.0348  0.0172  0.9426
   91SAPS  H14Y 8930   1.258   4.911   7.699 -2.2646 -0.4289  0.7758
   91SAPS  C315 8931   1.117   5.002   7.834  0.8034 -0.1870 -0.3769
   91SAPS  H15X 8932   1.044   4.941   7.778  1.3010 -1.0307 -0.1075
   91SAPS  H15Y 8933   1.076   5.103   7.858  2.5844  0.8097 -1.4084
   91SAPS  C316 8934   1.177   4.928   7.955  0.7342  0.4517  0.9039
   91SAPS  H16X 8935   1.280   4.966   7.970  0.6061  0.9587  0.5422
   91SAPS  H16Y 8936   1.191   4.823   7.923 -0.2836  1.2219 -2.3683
   91SAPS  C317 8937   1.097   4.947   8.081  0.1002  0.4830 -0.3372
   91SAPS  H17X 8938   0.998   4.900   8.063  0.1323  0.1185  0.4453
   91SAPS  H17Y 8939   1.076   5.055   8.097  1.0538  0.4489  1.2391
   91SAPS  C318 8940   1.157   4.880   8.202 -0.4191 -0.4500 -0.3501
   91SAPS  H18X 8941   1.196   4.780   8.173  2.3071  0.4222  0.1515
   91SAPS  H18Y 8942   1.074   4.867   8.275  0.5721  1.1970  1.1109
   91SAPS  H18Z 8943   1.239   4.937   8.250 -1.4007  1.5619 -0.9920
   92SAPS     N 8944   6.749   3.106   6.179 -0.1999 -0.0249  0.1328
   92SAPS   HN1 8945   6.771   3.178   6.107 -2.3849 -1.6629 -2.2752
   92SAPS   HN2 8946   6.651   3.120   6.210 -0.2988 -0.9716  0.2447
   92SAPS   HN3 8947   6.803   3.126   6.265  1.1987  0.7313 -0.9043
   92SAPS   C12 8948   6.783   2.963   6.136  0.4937  0.1320  0.1007
   92SAPS  H12A 8949   6.706   2.889   6.151  0.6108  0.2281  1.2223
   92SAPS   C13 8950   6.818   2.944   5.988 -0.3415 -0.9630  0.7886
   92SAPS  O13A 8951   6.807   3.044   5.912  0.6895 -0.1442 -0.4069
   92SAPS  O13B 8952   6.804   2.829   5.944  0.1067 -0.4139 -0.1150
   92SAPS   C11 8953   6.905   2.923   6.219  0.5499  0.1035 -0.4962
   92SAPS  H11A 8954   6.925   2.816   6.195  0.3997  0.4390 -2.1634
   92SAPS  H11B 8955   6.872   2.917   6.325 -0.0748  0.5854 -0.6596
   92SAPS     P 8956   7.066   3.096   6.334 -0.0245  0.4829  0.2389
   92SAPS   O13 8957   7.199   3.153   6.306  0.2903 -0.6407 -0.3301
   92SAPS   O14 8958   6.958   3.190   6.364  0.1611  0.3234  0.1180
   92SAPS   O12 8959   7.017   3.009   6.206 -0.4419  0.8491  0.1118
   92SAPS   O11 8960   7.072   2.979   6.438  0.1162  0.8030 -0.7872
   92SAPS    C1 8961   7.143   2.854   6.415 -0.3510 -0.6824 -0.0616
   92SAPS    HA 8962   7.074   2.767   6.406 -2.4601  0.8396  0.9512
   92SAPS    HB 8963   7.189   2.846   6.314 -2.6829  0.4311 -1.2470
   92SAPS    C2 8964   7.245   2.823   6.521 -0.4997  0.0391  0.0774
   92SAPS    HS 8965   7.291   2.722   6.512 -1.0962 -0.1621 -0.8195
   92SAPS   O21 8966   7.187   2.848   6.654 -0.3904  0.1874 -0.3480
   92SAPS   C21 8967   7.076   2.785   6.685  0.0339  0.9613  0.0013
   92SAPS   O22 8968   7.045   2.670   6.649  0.5300  0.8383  0.1743
   92SAPS   C22 8969   7.006   2.865   6.794 -0.2444  0.5105  0.4835
   92SAPS   H2R 8970   7.010   2.970   6.757 -0.9088  0.0621 -0.9144
   92SAPS   H2S 8971   6.899   2.833   6.791 -0.0586 -0.1548  0.7422
   92SAPS    C3 8972   7.363   2.929   6.512 -0.3875 -0.2234 -0.3293
   92SAPS    HX 8973   7.300   3.013   6.548  0.4401  0.4753 -0.5133
   92SAPS    HY 8974   7.393   2.947   6.407  1.3367 -0.9477  0.0327
   92SAPS   O31 8975   7.479   2.903   6.594  0.5559 -0.0712 -0.2235
   92SAPS   C31 8976   7.563   2.809   6.550  0.4353  0.2268  0.2920
   92SAPS   O32 8977   7.546   2.744   6.447  0.0712 -0.1112 -0.0975
   92SAPS   C32 8978   7.677   2.796   6.651  0.1609  0.2927 -0.1861
   92SAPS   H2X 8979   7.711   2.900   6.673  1.0978  0.3839 -1.9435
   92SAPS   H2Y 8980   7.769   2.751   6.609 -1.4517 -1.4838 -1.9715
   92SAPS   C23 8981   7.060   2.859   6.934  0.3530 -0.1756  0.3748
   92SAPS   H3R 8982   7.163   2.898   6.933  0.1144  0.5551  2.2986
   92SAPS   H3S 8983   7.062   2.753   6.966 -0.5811 -0.0915  0.7474
   92SAPS   C24 8984   6.983   2.929   7.052 -0.9583  0.0052 -0.1593
   92SAPS   H4R 8985   7.024   2.884   7.145  0.3400 -2.0457 -1.6829
   92SAPS   H4S 8986   6.879   2.893   7.034 -0.7855 -0.3237 -0.4962
   92SAPS   C25 8987   7.002   3.077   7.062 -0.5018  0.0548 -0.1298
   92SAPS   H5R 8988   6.962   3.140   6.981  1.6034 -0.0237 -1.2640
   92SAPS   C26 8989   7.076   3.130   7.165  0.6141 -0.3162  0.2661
   92SAPS   H6R 8990   7.093   3.238   7.164  1.8105 -0.4736  1.1802
   92SAPS   C27 8991   7.128   3.049   7.282  0.3294  0.2904  0.0610
   92SAPS   H7R 8992   7.210   3.106   7.332 -0.5994 -0.1290  2.1384
   92SAPS   H7S 8993   7.187   2.961   7.250  1.2517  0.9952 -0.2146
   92SAPS   C28 8994   7.028   3.013   7.387  0.1222 -0.4772 -0.2032
   92SAPS   H8R 8995   6.926   2.983   7.359 -0.1823 -0.3240  0.7041
   92SAPS   C29 8996   7.052   2.996   7.517  0.8812 -0.6759 -0.3254
   92SAPS   H9R 8997   6.969   2.954   7.576  1.3703  2.4633  2.7974
   92SAPS  C210 8998   7.185   3.013   7.587 -0.3251  0.1602 -0.1618
   92SAPS  H10R 8999   7.196   3.111   7.638  0.7647  0.3196 -0.6920
   92SAPS  H10S 9000   7.262   3.010   7.508  0.3611  0.6917  0.4834
   92SAPS  C211 9001   7.204   2.896   7.680  0.9877 -0.0654  0.8493
   92SAPS  H11R 9002   7.240   2.808   7.623  1.5878  1.4302 -1.1269
   92SAPS  C212 9003   7.183   2.893   7.809  0.3473  0.3112  0.4128
   92SAPS  H12R 9004   7.194   2.802   7.870  2.1501  0.0956 -0.1903
   92SAPS  C213 9005   7.148   3.013   7.897 -0.0043  0.0857  0.5080
   92SAPS  H13R 9006   7.038   3.033   7.896  0.0980  0.6502  0.3234
   92SAPS  H13S 9007   7.194   3.107   7.860 -1.1016  0.1207 -0.7971
   92SAPS  C214 9008   7.189   2.992   8.045 -0.1202 -0.2124  0.6104
   92SAPS  H14R 9009   7.298   2.983   8.060 -0.0003 -1.5651 -0.9424
   92SAPS  C215 9010   7.114   3.000   8.150  0.9519 -0.5755 -0.3237
   92SAPS  H15R 9011   7.143   2.977   8.254  1.0930  3.1795  0.5271
   92SAPS  C216 9012   6.966   3.029   8.147 -0.3950 -0.2619  0.6639
   92SAPS  H16R 9013   6.930   2.948   8.080  2.3497 -2.3010  1.5173
   92SAPS  H16S 9014   6.942   3.114   8.080  0.7461 -0.4507 -0.0130
   92SAPS  C217 9015   6.887   3.030   8.277  0.6833  0.1881 -0.5442
   92SAPS  H17R 9016   6.930   3.114   8.336 -0.4426  0.0826  0.4505
   92SAPS  H17S 9017   6.896   2.933   8.331  0.4840  0.5139  0.0860
   92SAPS  C218 9018   6.743   3.048   8.247 -0.2316 -1.3772  0.0083
   92SAPS  H18R 9019   6.735   3.150   8.202  4.0937 -0.5958  0.8665
   92SAPS  H18S 9020   6.679   3.043   8.338 -0.0087  1.1095  0.3309
   92SAPS  C219 9021   6.673   2.956   8.144  0.1394  0.4454  0.2342
   92SAPS  H19R 9022   6.713   2.979   8.043  0.2083 -0.5766  0.0220
   92SAPS  H19S 9023   6.566   2.985   8.136  0.2206  0.4430 -0.9721
   92SAPS  C220 9024   6.683   2.802   8.172 -0.5439 -0.0780 -0.0233
   92SAPS  H20R 9025   6.790   2.775   8.178 -0.7717 -0.3844  3.3342
   92SAPS  H20S 9026   6.643   2.747   8.083  0.4831  1.2053 -1.2974
   92SAPS  H20T 9027   6.627   2.787   8.267  0.7981  2.8509  1.2995
   92SAPS   C33 9028   7.638   2.736   6.790  0.3590 -0.5395  0.1407
   92SAPS   H3X 9029   7.718   2.693   6.854 -0.2929  0.5042  1.6800
   92SAPS   H3Y 9030   7.560   2.656   6.785  0.5408 -0.6495 -1.1409
   92SAPS   C34 9031   7.590   2.850   6.887  0.0098 -0.3459 -0.2510
   92SAPS   H4X 9032   7.492   2.890   6.851 -1.2107 -2.0009  1.1934
   92SAPS   H4Y 9033   7.667   2.929   6.898 -0.7586  0.4317 -0.3920
   92SAPS   C35 9034   7.567   2.793   7.035  0.1101  0.3071  0.2040
   92SAPS   H5X 9035   7.656   2.742   7.078 -0.4112 -0.1183  0.7905
   92SAPS   H5Y 9036   7.490   2.712   7.032 -0.2395  0.5179  2.8378
   92SAPS   C36 9037   7.547   2.910   7.130 -0.5650 -0.2359 -0.6181
   92SAPS   H6X 9038   7.449   2.943   7.091 -1.5051 -0.5132  1.4172
   92SAPS   H6Y 9039   7.629   2.985   7.124 -1.1502  0.5439  0.8532
   92SAPS   C37 9040   7.522   2.867   7.276 -0.3415 -0.3797  0.0842
   92SAPS   H7X 9041   7.468   2.770   7.277  1.7525 -1.5791  2.6496
   92SAPS   H7Y 9042   7.459   2.935   7.337  1.6432  0.4659  1.2599
   92SAPS   C38 9043   7.643   2.838   7.359 -0.1306 -0.3145 -0.4360
   92SAPS   H8X 9044   7.705   2.929   7.378  0.6377 -0.8788 -0.2179
   92SAPS   H8Y 9045   7.716   2.777   7.301 -0.0030 -0.4846 -0.1002
   92SAPS   C39 9046   7.627   2.770   7.501 -0.4860 -0.1879  0.0138
   92SAPS   H9X 9047   7.723   2.731   7.539  0.0618  0.5226 -0.6108
   92SAPS   H9Y 9048   7.550   2.691   7.491 -1.3832  0.6843 -0.1467
   92SAPS  C310 9049   7.575   2.870   7.605 -0.6461 -0.7387 -0.4322
   92SAPS  H10X 9050   7.473   2.907   7.578 -0.9496 -0.8511  0.5611
   92SAPS  H10Y 9051   7.641   2.959   7.592  0.4801 -1.3524  1.0219
   92SAPS  C311 9052   7.586   2.829   7.750 -0.1629 -0.3986  0.1720
   92SAPS  H11X 9053   7.680   2.774   7.772 -0.2837 -0.4652  0.5250
   92SAPS  H11Y 9054   7.510   2.752   7.776 -0.2035 -0.6733 -0.7489
   92SAPS  C312 9055   7.579   2.947   7.850  0.0512 -0.4604 -0.4660
   92SAPS  H12X 9056   7.473   2.981   7.849 -0.6614 -2.5955 -2.1508
   92SAPS  H12Y 9057   7.649   3.025   7.816 -0.3450 -0.1404 -0.5539
   92SAPS  C313 9058   7.595   2.881   7.988 -0.2771  0.5169  0.2488
   92SAPS  H13X 9059   7.691   2.826   7.991  0.2078  1.2227 -1.5507
   92SAPS  H13Y 9060   7.515   2.803   7.994 -1.7163  1.9326 -0.0390
   92SAPS  C314 9061   7.589   2.981   8.098  0.0686  0.3959 -0.6937
   92SAPS  H14X 9062   7.501   3.043   8.068 -0.3082 -0.5896 -1.6856
   92SAPS  H14Y 9063   7.681   3.043   8.092  1.0812 -0.6428  2.8659
   92SAPS  C315 9064   7.594   2.914   8.240 -0.0899 -0.7308  0.2383
   92SAPS  H15X 9065   7.641   2.972   8.322  3.1330 -0.3765 -1.8007
   92SAPS  H15Y 9066   7.663   2.828   8.241  1.3058  0.3853  1.0680
   92SAPS  C316 9067   7.458   2.881   8.302  0.5777 -0.0199  0.4128
   92SAPS  H16X 9068   7.400   2.807   8.244  0.9048  1.3734 -1.7356
   92SAPS  H16Y 9069   7.401   2.976   8.302 -2.3979 -1.7679  0.0261
   92SAPS  C317 9070   7.481   2.807   8.433  1.0064  0.4509  0.4011
   92SAPS  H17X 9071   7.530   2.874   8.508  1.9754  1.3259 -0.9924
   92SAPS  H17Y 9072   7.533   2.709   8.426 -3.7668 -2.2295  0.2007
   92SAPS  C318 9073   7.352   2.766   8.502  0.9931 -0.2722 -0.4563
   92SAPS  H18X 9074   7.291   2.859   8.507 -0.9713 -1.2972 -3.8367
   92SAPS  H18Y 9075   7.381   2.737   8.605  0.5738  3.4690  0.7969
   92SAPS  H18Z 9076   7.290   2.685   8.458  1.3181  0.8365 -3.0263
   93SAPS     N 9077   1.805   2.758   6.396 -0.4992 -0.0266 -0.0773
   93SAPS   HN1 9078   1.784   2.683   6.465 -0.1252  1.0623  1.2366
   93SAPS   HN2 9079   1.853   2.705   6.320  1.0523  0.8503  0.2708
   93SAPS   HN3 9080   1.869   2.826   6.439 -0.4193 -0.5139  0.5778
   93SAPS   C12 9081   1.674   2.814   6.358 -0.0615 -0.2218 -0.0131
   93SAPS  H12A 9082   1.628   2.870   6.438 -1.2834 -1.1569 -0.0355
   93SAPS   C13 9083   1.660   2.913   6.240 -0.5080  0.0423  0.1579
   93SAPS  O13A 9084   1.768   2.959   6.192 -0.4708  0.1979  0.1113
   93SAPS  O13B 9085   1.548   2.944   6.198 -0.8455 -0.0926 -0.5415
   93SAPS   C11 9086   1.580   2.693   6.323 -0.4285  0.1532 -0.1782
   93SAPS  H11A 9087   1.628   2.643   6.236 -1.1217 -1.1748  0.1952
   93SAPS  H11B 9088   1.483   2.732   6.284 -1.0825 -1.1286  0.1400
   93SAPS     P 9089   1.441   2.594   6.514  0.1961 -0.1998  0.5391
   93SAPS   O13 9090   1.318   2.569   6.436  0.2339  0.6265  0.0304
   93SAPS   O14 9091   1.463   2.508   6.634 -1.0263 -0.0695  0.7387
   93SAPS   O12 9092   1.570   2.596   6.418  0.2655 -0.0598  0.2839
   93SAPS   O11 9093   1.436   2.743   6.562  0.2851 -0.0494  0.2004
   93SAPS    C1 9094   1.323   2.825   6.551  1.0092  0.4780 -0.1461
   93SAPS    HA 9095   1.352   2.920   6.502  0.9703  1.8589  2.4306
   93SAPS    HB 9096   1.234   2.780   6.501  1.9118 -2.0468  0.4414
   93SAPS    C2 9097   1.264   2.862   6.692 -0.2607  0.0735  0.0152
   93SAPS    HS 9098   1.166   2.910   6.675 -0.5163  0.4017  2.2659
   93SAPS   O21 9099   1.355   2.943   6.765  0.2765  0.0762  0.2668
   93SAPS   C21 9100   1.364   3.070   6.722 -0.5978  0.1155 -0.1698
   93SAPS   O22 9101   1.296   3.121   6.634 -0.5764 -0.3443  0.5784
   93SAPS   C22 9102   1.465   3.145   6.815  0.3235 -0.5150  0.6650
   93SAPS   H2R 9103   1.505   3.077   6.893 -0.8293 -0.5177  1.2565
   93SAPS   H2S 9104   1.543   3.173   6.741 -1.9327  1.9237 -0.8692
   93SAPS    C3 9105   1.231   2.728   6.768 -0.1935  0.2225  0.6243
   93SAPS    HX 9106   1.323   2.666   6.770 -1.2054 -1.2884  0.5185
   93SAPS    HY 9107   1.166   2.668   6.701  1.8094 -1.3689  0.0364
   93SAPS   O31 9108   1.182   2.749   6.905  0.7331 -0.3239 -0.4566
   93SAPS   C31 9109   1.266   2.752   7.002 -0.3938  0.9430 -0.1649
   93SAPS   O32 9110   1.388   2.728   6.991  0.2980  0.2160  0.3693
   93SAPS   C32 9111   1.193   2.794   7.128  0.0990 -0.2140  0.2366
   93SAPS   H2X 9112   1.113   2.720   7.152 -0.9448  0.5725 -0.7825
   93SAPS   H2Y 9113   1.135   2.889   7.122 -0.8593 -0.7856  0.3068
   93SAPS   C23 9114   1.412   3.281   6.862 -0.4010 -0.2198  0.5186
   93SAPS   H3R 9115   1.370   3.336   6.775 -0.1301 -1.0929 -0.1745
   93SAPS   H3S 9116   1.501   3.329   6.907  0.0337  0.1518 -0.7107
   93SAPS   C24 9117   1.296   3.265   6.962  0.1395 -0.3912  0.7180
   93SAPS   H4R 9118   1.223   3.198   6.913 -0.3667 -0.0398  0.9957
   93SAPS   H4S 9119   1.263   3.371   6.972 -1.3154 -0.6854 -0.7799
   93SAPS   C25 9120   1.353   3.220   7.097 -0.5578  0.4890  0.5517
   93SAPS   H5R 9121   1.454   3.177   7.084 -2.3677 -3.1757 -2.9049
   93SAPS   C26 9122   1.288   3.227   7.210 -0.4391  0.5065 -0.6166
   93SAPS   H6R 9123   1.351   3.202   7.296 -0.4392 -0.0803 -0.7834
   93SAPS   C27 9124   1.148   3.289   7.236 -0.1121 -0.5596 -0.2643
   93SAPS   H7R 9125   1.102   3.303   7.136 -0.9382  0.6645  0.2778
   93SAPS   H7S 9126   1.164   3.396   7.258 -0.4124 -0.1184 -2.1639
   93SAPS   C28 9127   1.046   3.204   7.307  0.0332  0.1446 -0.5600
   93SAPS   H8R 9128   0.994   3.130   7.245 -0.4072 -0.4111  0.4432
   93SAPS   C29 9129   1.027   3.207   7.433  0.0083 -0.0201  0.0975
   93SAPS   H9R 9130   0.949   3.138   7.467 -0.8273  2.2753  3.1137
   93SAPS  C210 9131   1.090   3.304   7.539 -0.6105  0.3144 -0.6112
   93SAPS  H10R 9132   1.019   3.386   7.563 -0.7592  0.0235 -0.0345
   93SAPS  H10S 9133   1.184   3.352   7.504  0.9222 -0.3686  2.3817
   93SAPS  C211 9134   1.118   3.230   7.668 -0.0040  0.0198 -0.0035
   93SAPS  H11R 9135   1.148   3.124   7.659 -0.6934 -0.3163  1.5933
   93SAPS  C212 9136   1.122   3.296   7.792 -0.1393  0.2564  0.6747
   93SAPS  H12R 9137   1.147   3.235   7.880 -0.9858 -0.2287  0.5873
   93SAPS  C213 9138   1.090   3.442   7.819 -0.1943 -0.2164 -0.1734
   93SAPS  H13R 9139   0.985   3.456   7.852  0.4699  1.9490  1.1050
   93SAPS  H13S 9140   1.101   3.502   7.726  1.8172  1.1929  0.9410
   93SAPS  C214 9141   1.179   3.494   7.927 -0.1672 -0.5976 -0.1453
   93SAPS  H14R 9142   1.280   3.524   7.895 -0.5558 -0.1121 -0.9343
   93SAPS  C215 9143   1.161   3.479   8.064 -0.2624  0.2666 -0.4384
   93SAPS  H15R 9144   1.237   3.514   8.135 -3.1868 -2.2922  4.1994
   93SAPS  C216 9145   1.041   3.426   8.134 -0.0950 -0.3815  0.4694
   93SAPS  H16R 9146   0.975   3.357   8.076  0.8758 -1.3801  0.5332
   93SAPS  H16S 9147   0.978   3.509   8.172 -0.3115  0.6597 -2.0717
   93SAPS  C217 9148   1.069   3.328   8.248  0.2430 -0.5188  0.0139
   93SAPS  H17R 9149   1.133   3.246   8.210  0.1738 -0.4989 -0.1452
   93SAPS  H17S 9150   0.975   3.279   8.280 -0.7557  0.5115 -1.2900
   93SAPS  C218 9151   1.124   3.397   8.373 -0.0469 -0.2785 -0.1202
   93SAPS  H18R 9152   1.061   3.479   8.414  0.3897  0.5117 -0.9985
   93SAPS  H18S 9153   1.214   3.456   8.343 -0.9567  1.9053  1.3163
   93SAPS  C219 9154   1.175   3.301   8.479 -0.6276  0.4655 -0.7073
   93SAPS  H19R 9155   1.201   3.365   8.567 -1.8807 -0.5946  0.4674
   93SAPS  H19S 9156   1.267   3.253   8.441  0.7682  0.5978  2.3159
   93SAPS  C220 9157   1.075   3.196   8.525 -0.0310 -0.2147  0.4282
   93SAPS  H20R 9158   1.027   3.145   8.439 -0.0523  0.2596  0.1566
   93SAPS  H20S 9159   0.996   3.255   8.577  0.0110  0.9950 -0.8772
   93SAPS  H20T 9160   1.132   3.126   8.590  4.3845  0.0700 -2.9070
   93SAPS   C33 9161   1.287   2.793   7.259  0.1986 -0.0014  0.1605
   93SAPS   H3X 9162   1.373   2.860   7.238  1.4710 -2.6691 -3.7743
   93SAPS   H3Y 9163   1.321   2.688   7.272  0.9686  0.2900  0.5598
   93SAPS   C34 9164   1.225   2.816   7.389  0.7021  0.2740 -0.9251
   93SAPS   H4X 9165   1.131   2.756   7.390 -0.4191  1.9883 -0.4865
   93SAPS   H4Y 9166   1.200   2.924   7.398  0.1418 -0.1029  2.8952
   93SAPS   C35 9167   1.311   2.768   7.507 -0.1266  0.0327 -0.6542
   93SAPS   H5X 9168   1.402   2.830   7.520 -1.3539  1.4419  1.5540
   93SAPS   H5Y 9169   1.355   2.667   7.491 -1.7707 -0.7312 -0.4424
   93SAPS   C36 9170   1.219   2.785   7.629  0.4032 -0.1785 -0.7775
   93SAPS   H6X 9171   1.142   2.705   7.621  1.0273 -0.8079 -0.5239
   93SAPS   H6Y 9172   1.168   2.884   7.633  2.1380  0.6708  0.7497
   93SAPS   C37 9173   1.297   2.759   7.760 -0.1205 -0.2637 -0.0698
   93SAPS   H7X 9174   1.391   2.818   7.757  0.9859 -1.9081  1.4768
   93SAPS   H7Y 9175   1.321   2.650   7.751 -1.9308 -0.6679 -0.0613
   93SAPS   C38 9176   1.227   2.802   7.885  0.5889 -0.0199 -0.5357
   93SAPS   H8X 9177   1.124   2.763   7.873  0.4848  0.2898 -0.6546
   93SAPS   H8Y 9178   1.214   2.913   7.891 -0.5449 -0.2249  1.1644
   93SAPS   C39 9179   1.300   2.746   8.001  0.1992  0.4217 -0.5970
   93SAPS   H9X 9180   1.397   2.799   8.000 -0.2680  1.2778 -0.8508
   93SAPS   H9Y 9181   1.302   2.636   7.987 -0.5187  0.4181 -0.6861
   93SAPS  C310 9182   1.233   2.773   8.133  1.6758 -0.0961 -0.2876
   93SAPS  H10X 9183   1.129   2.732   8.125  1.0479  1.5571 -0.8431
   93SAPS  H10Y 9184   1.216   2.883   8.131  0.3538 -0.2711 -3.5976
   93SAPS  C311 9185   1.311   2.722   8.263  0.0029 -0.4779 -0.0210
   93SAPS  H11X 9186   1.317   2.808   8.333  0.5384  0.3809 -1.1181
   93SAPS  H11Y 9187   1.409   2.688   8.226 -1.3273 -1.6772 -2.5505
   93SAPS  C312 9188   1.252   2.594   8.320  0.1441  0.0209  0.5832
   93SAPS  H12X 9189   1.332   2.543   8.377  0.6692  0.6015  0.3754
   93SAPS  H12Y 9190   1.215   2.541   8.230  1.2916 -0.2353  0.2651
   93SAPS  C313 9191   1.150   2.616   8.415 -0.1720  0.2861 -0.4673
   93SAPS  H13X 9192   1.086   2.706   8.403  1.2640  1.5006  0.9288
   93SAPS  H13Y 9193   1.211   2.639   8.505 -0.0107 -1.7066 -0.0302
   93SAPS  C314 9194   1.052   2.499   8.446 -0.4139 -0.1880  0.7605
   93SAPS  H14X 9195   0.996   2.484   8.351 -1.5315 -1.1858  1.5636
   93SAPS  H14Y 9196   0.992   2.539   8.530 -1.0846  0.0059  0.1952
   93SAPS  C315 9197   1.111   2.365   8.498  0.2677 -0.2497 -0.2180
   93SAPS  H15X 9198   1.194   2.381   8.570  0.1060  3.1588 -0.6830
   93SAPS  H15Y 9199   1.171   2.318   8.417 -0.1640  0.3620 -0.8938
   93SAPS  C316 9200   1.002   2.266   8.540  0.5030  0.4347 -0.7009
   93SAPS  H16X 9201   0.948   2.234   8.448 -3.6220 -0.2501  1.8731
   93SAPS  H16Y 9202   0.934   2.315   8.613  1.5980 -0.9579  1.3048
   93SAPS  C317 9203   1.044   2.129   8.599  0.2542 -0.0619 -0.0437
   93SAPS  H17X 9204   1.096   2.065   8.525 -0.9663 -1.3078  0.1566
   93SAPS  H17Y 9205   0.960   2.062   8.627 -0.2009 -0.5155 -2.4098
   93SAPS  C318 9206   1.137   2.131   8.723 -0.1207  0.3313 -0.8805
   93SAPS  H18X 9207   1.096   2.199   8.801 -2.6483 -0.5687 -1.3858
   93SAPS  H18Y 9208   1.242   2.155   8.696  1.1130 -0.7978  2.5806
   93SAPS  H18Z 9209   1.150   2.031   8.769  1.5622  1.0282  0.2139
   94SAPS     N 9210   0.728   5.842   5.633  0.1652 -0.6116  0.0064
   94SAPS   HN1 9211   0.751   5.741   5.632  1.0065 -0.4244 -0.6617
   94SAPS   HN2 9212   0.652   5.865   5.565  1.0180 -0.9238 -1.0688
   94SAPS   HN3 9213   0.812   5.893   5.600  0.6648  0.4025  2.7372
   94SAPS   C12 9214   0.682   5.902   5.761  0.6300  0.5646  0.0462
   94SAPS  H12A 9215   0.757   5.881   5.836  0.1193 -2.5034 -0.2308
   94SAPS   C13 9216   0.657   6.048   5.772  0.1069 -0.8635 -0.2445
   94SAPS  O13A 9217   0.643   6.121   5.669 -0.5189  0.2079  0.4350
   94SAPS  O13B 9218   0.626   6.098   5.884  0.4869 -0.3117 -0.4178
   94SAPS   C11 9219   0.546   5.828   5.807 -0.6015 -0.0481  0.2634
   94SAPS  H11A 9220   0.469   5.844   5.729 -1.0258  0.0983  0.7113
   94SAPS  H11B 9221   0.503   5.875   5.898 -0.8334  1.5262 -0.6417
   94SAPS     P 9222   0.448   5.583   5.842  0.2958  0.2404 -0.2389
   94SAPS   O13 9223   0.338   5.623   5.752 -0.0367  0.4397 -0.1826
   94SAPS   O14 9224   0.500   5.451   5.829  0.3392 -0.4746 -0.4733
   94SAPS   O12 9225   0.563   5.686   5.828 -0.1527  0.1863  0.2667
   94SAPS   O11 9226   0.396   5.578   5.990  0.3380  0.5748 -0.2588
   94SAPS    C1 9227   0.466   5.663   6.078 -0.3594 -1.0792 -0.2480
   94SAPS    HA 9228   0.575   5.671   6.060  0.1398  2.3261  3.5131
   94SAPS    HB 9229   0.419   5.762   6.094  1.8628 -0.7510  5.6398
   94SAPS    C2 9230   0.451   5.603   6.223  0.0141 -0.4017  0.4650
   94SAPS    HS 9231   0.341   5.598   6.236  0.1130 -1.4442  0.9076
   94SAPS   O21 9232   0.513   5.687   6.327 -0.2183  0.4493 -0.0041
   94SAPS   C21 9233   0.441   5.795   6.359 -0.6216 -0.3761 -0.1897
   94SAPS   O22 9234   0.330   5.823   6.316  0.5575  0.7687  0.1158
   94SAPS   C22 9235   0.513   5.895   6.447 -0.2231  0.6081  0.2598
   94SAPS   H2R 9236   0.585   5.947   6.379  0.5079  0.5534  0.9887
   94SAPS   H2S 9237   0.442   5.960   6.502 -0.7597 -0.0323  0.3306
   94SAPS    C3 9238   0.511   5.460   6.234 -0.7703  0.1613 -0.1688
   94SAPS    HX 9239   0.614   5.463   6.192 -1.3697  1.3534 -1.5884
   94SAPS    HY 9240   0.446   5.392   6.175  0.8555 -0.7714 -0.9263
   94SAPS   O31 9241   0.502   5.405   6.363  0.1248  0.5112  0.1042
   94SAPS   C31 9242   0.617   5.392   6.429 -0.4067  0.5064  0.2094
   94SAPS   O32 9243   0.727   5.435   6.393 -0.0635 -0.0294  0.1350
   94SAPS   C32 9244   0.593   5.298   6.547  0.1485 -0.5134 -0.0423
   94SAPS   H2X 9245   0.579   5.195   6.506 -0.0179 -0.0059 -1.2802
   94SAPS   H2Y 9246   0.494   5.317   6.595 -0.1294 -1.4592 -0.2305
   94SAPS   C23 9247   0.613   5.836   6.552 -0.5171 -0.4815 -0.6302
   94SAPS   H3R 9248   0.647   5.929   6.602  0.1704 -0.4521 -1.1504
   94SAPS   H3S 9249   0.691   5.780   6.496 -0.1777 -0.7689  0.1106
   94SAPS   C24 9250   0.556   5.742   6.661 -0.2420  0.1981  0.5772
   94SAPS   H4R 9251   0.494   5.666   6.610  0.5932 -0.2034  0.1522
   94SAPS   H4S 9252   0.481   5.802   6.717 -0.3576 -0.2808  0.9373
   94SAPS   C25 9253   0.654   5.673   6.751  0.1134  0.1075  0.3822
   94SAPS   H5R 9254   0.748   5.652   6.697  0.3064  0.0497  0.7407
   94SAPS   C26 9255   0.636   5.639   6.882 -0.2039 -0.5114  0.1947
   94SAPS   H6R 9256   0.715   5.582   6.933  1.5240  1.2669 -0.4276
   94SAPS   C27 9257   0.516   5.668   6.959 -0.0067  0.3028  0.5231
   94SAPS   H7R 9258   0.427   5.651   6.894  0.5372 -0.5524 -0.0010
   94SAPS   H7S 9259   0.523   5.771   7.001  0.1180  0.6568 -0.3562
   94SAPS   C28 9260   0.494   5.568   7.070 -0.5695 -0.2643  0.1565
   94SAPS   H8R 9261   0.440   5.477   7.038  1.0453 -1.0974 -0.2394
   94SAPS   C29 9262   0.529   5.588   7.197  0.0424  0.1138  0.1570
   94SAPS   H9R 9263   0.510   5.514   7.276 -1.3901 -0.9472 -1.1667
   94SAPS  C210 9264   0.612   5.707   7.250 -0.3905  0.5116  0.8159
   94SAPS  H10R 9265   0.694   5.733   7.180  0.5797  1.2659  2.2051
   94SAPS  H10S 9266   0.672   5.666   7.334  0.0132  3.6077  2.0988
   94SAPS  C211 9267   0.555   5.836   7.288  0.5957  0.0055 -0.2192
   94SAPS  H11R 9268   0.526   5.891   7.198 -0.5709  0.5883  0.4962
   94SAPS  C212 9269   0.523   5.881   7.412 -0.4569  0.6941 -0.2818
   94SAPS  H12R 9270   0.474   5.978   7.428  0.0159  0.6821  1.3354
   94SAPS  C213 9271   0.539   5.798   7.537 -0.2730 -0.0886  0.6956
   94SAPS  H13R 9272   0.622   5.849   7.591 -0.8036  1.1979  0.3051
   94SAPS  H13S 9273   0.581   5.698   7.512 -0.0769  0.1188  0.1859
   94SAPS  C214 9274   0.412   5.778   7.618  0.2546  0.3150 -0.3829
   94SAPS  H14R 9275   0.325   5.754   7.555  0.7556 -1.4643 -0.4079
   94SAPS  C215 9276   0.397   5.781   7.752  0.8535 -0.2685  0.6813
   94SAPS  H15R 9277   0.296   5.764   7.793  0.6151 -0.2601  0.1124
   94SAPS  C216 9278   0.498   5.821   7.853 -0.3751  0.3644  0.1955
   94SAPS  H16R 9279   0.604   5.798   7.828  0.2036  2.9134  0.2172
   94SAPS  H16S 9280   0.478   5.770   7.950 -2.2455  0.5173 -0.0954
   94SAPS  C217 9281   0.489   5.975   7.870 -0.1398 -0.2049 -0.2674
   94SAPS  H17R 9282   0.522   6.025   7.775  1.3560  1.7888  1.2461
   94SAPS  H17S 9283   0.550   6.012   7.956  2.7464 -1.0458 -1.8777
   94SAPS  C218 9284   0.357   6.044   7.899 -0.6952 -0.2730 -0.3090
   94SAPS  H18R 9285   0.299   6.041   7.804 -1.1068  3.8076 -0.2594
   94SAPS  H18S 9286   0.365   6.153   7.920  0.2579  0.0369 -2.1025
   94SAPS  C219 9287   0.285   5.966   8.009 -0.1355 -0.3756  0.3144
   94SAPS  H19R 9288   0.357   5.977   8.092 -0.1572 -3.0919  0.7403
   94SAPS  H19S 9289   0.277   5.856   7.995  0.3432 -0.5668  1.5387
   94SAPS  C220 9290   0.142   6.009   8.048 -0.5549  0.3345 -0.1297
   94SAPS  H20R 9291   0.143   6.108   8.099 -0.8615  1.1365 -1.6404
   94SAPS  H20S 9292   0.088   5.932   8.107 -0.0284 -0.2914 -0.4673
   94SAPS  H20T 9293   0.080   6.026   7.957 -2.1053 -2.8004  0.2761
   94SAPS   C33 9294   0.706   5.305   6.655  0.0190  0.1225 -0.5884
   94SAPS   H3X 9295   0.749   5.407   6.665 -1.1378  0.4353  1.6926
   94SAPS   H3Y 9296   0.779   5.242   6.601 -2.0770 -1.8431 -1.2366
   94SAPS   C34 9297   0.667   5.246   6.792  0.2151  0.1163 -0.8118
   94SAPS   H4X 9298   0.578   5.180   6.782 -1.0721  1.7001 -0.1447
   94SAPS   H4Y 9299   0.631   5.329   6.857  0.8538  1.1335 -1.7349
   94SAPS   C35 9300   0.781   5.168   6.864 -0.2086 -0.3069  0.4056
   94SAPS   H5X 9301   0.864   5.242   6.866 -0.4153  0.1276 -3.5037
   94SAPS   H5Y 9302   0.793   5.084   6.792  1.0316 -1.3485  1.8070
   94SAPS   C36 9303   0.744   5.129   7.006 -0.1520  0.3862 -0.2081
   94SAPS   H6X 9304   0.825   5.056   7.031 -1.2076 -1.5842 -2.2491
   94SAPS   H6Y 9305   0.645   5.078   7.001  0.4304 -0.6843 -1.2993
   94SAPS   C37 9306   0.754   5.244   7.104 -0.1378  0.6560  0.6836
   94SAPS   H7X 9307   0.657   5.297   7.112  0.3554  2.0528 -1.8990
   94SAPS   H7Y 9308   0.831   5.311   7.059  0.0285 -0.2654 -0.4191
   94SAPS   C38 9309   0.803   5.193   7.246 -0.1930  0.0477  0.8421
   94SAPS   H8X 9310   0.910   5.169   7.230 -0.1015  1.2769 -0.5352
   94SAPS   H8Y 9311   0.747   5.099   7.264  1.5453 -0.9533  1.0804
   94SAPS   C39 9312   0.774   5.293   7.358 -0.6797 -0.1242 -1.0350
   94SAPS   H9X 9313   0.663   5.297   7.363 -0.7327 -2.2416  0.6496
   94SAPS   H9Y 9314   0.813   5.393   7.331 -2.5237  0.2443 -2.4049
   94SAPS  C310 9315   0.822   5.243   7.495  0.4093 -0.1045  0.4052
   94SAPS  H10X 9316   0.930   5.216   7.488  1.3120  1.6942  5.2498
   94SAPS  H10Y 9317   0.759   5.154   7.517  0.4314 -0.3670 -0.5940
   94SAPS  C311 9318   0.784   5.340   7.607 -0.6031 -0.1554 -0.4055
   94SAPS  H11X 9319   0.674   5.357   7.608 -1.1031 -2.8586  3.1043
   94SAPS  H11Y 9320   0.834   5.439   7.605  1.5379 -1.1978 -0.4991
   94SAPS  C312 9321   0.819   5.265   7.739  0.4829 -0.3139  0.2091
   94SAPS  H12X 9322   0.918   5.215   7.737 -0.3791 -2.2944  2.9260
   94SAPS  H12Y 9323   0.744   5.184   7.758 -0.8366  1.0090  0.7568
   94SAPS  C313 9324   0.819   5.366   7.855 -0.4608 -0.2413 -0.7698
   94SAPS  H13X 9325   0.891   5.450   7.854  1.6755 -1.9401  3.0761
   94SAPS  H13Y 9326   0.857   5.301   7.936  1.4960 -0.8045 -2.0958
   94SAPS  C314 9327   0.673   5.404   7.899 -0.2864  0.2043 -0.4505
   94SAPS  H14X 9328   0.618   5.307   7.897  0.8214 -0.4548  0.2683
   94SAPS  H14Y 9329   0.623   5.467   7.823 -2.3552  0.9198  1.4399
   94SAPS  C315 9330   0.670   5.474   8.040 -0.0959  0.2444 -0.0692
   94SAPS  H15X 9331   0.709   5.390   8.101  0.8057  0.9258  0.3126
   94SAPS  H15Y 9332   0.564   5.492   8.069  0.3154  1.5370  0.6781
   94SAPS  C316 9333   0.754   5.599   8.057 -0.0801 -0.5622  0.0848
   94SAPS  H16X 9334   0.709   5.674   7.988  0.2717  0.0494  0.5200
   94SAPS  H16Y 9335   0.858   5.585   8.020 -0.1990 -1.9954  0.2604
   94SAPS  C317 9336   0.754   5.665   8.195  0.2678  0.3116 -0.3059
   94SAPS  H17X 9337   0.830   5.618   8.262 -0.8711  0.3891  1.0765
   94SAPS  H17Y 9338   0.659   5.640   8.247  1.9527 -0.6999  2.4489
   94SAPS  C318 9339   0.765   5.819   8.175  0.0312 -0.2097 -0.0935
   94SAPS  H18X 9340   0.782   5.878   8.268  0.4328  1.9698 -1.5406
   94SAPS  H18Y 9341   0.674   5.857   8.124 -0.2644 -1.7606 -0.7383
   94SAPS  H18Z 9342   0.851   5.831   8.106  0.8625 -1.0648  0.7748
   95SAPS     N 9343   3.610   3.517   6.082 -0.2289  0.7686 -0.6277
   95SAPS   HN1 9344   3.709   3.545   6.101 -0.6087  1.5678  0.2302
   95SAPS   HN2 9345   3.567   3.597   6.031 -0.8961  0.7547 -0.0957
   95SAPS   HN3 9346   3.568   3.508   6.177  0.3738 -2.0013 -0.5968
   95SAPS   C12 9347   3.604   3.393   6.003  0.1690  0.2931  0.1315
   95SAPS  H12A 9348   3.500   3.376   5.977  0.2083 -2.3119  1.5338
   95SAPS   C13 9349   3.679   3.401   5.864 -0.0839  0.1812  0.0825
   95SAPS  O13A 9350   3.697   3.516   5.816 -0.1274  0.4470  0.2582
   95SAPS  O13B 9351   3.686   3.301   5.787 -0.0972 -0.3610  0.7376
   95SAPS   C11 9352   3.660   3.273   6.088  0.4929 -0.0346 -0.1582
   95SAPS  H11A 9353   3.766   3.295   6.113  0.6245  1.6748 -2.1091
   95SAPS  H11B 9354   3.662   3.186   6.019  0.8394 -1.4745  1.6338
   95SAPS     P 9355   3.603   3.124   6.284  0.2508  0.3256 -0.2528
   95SAPS   O13 9356   3.502   3.109   6.392  0.5670  0.5982 -0.4900
   95SAPS   O14 9357   3.621   3.007   6.188 -0.5456 -0.0626 -0.0732
   95SAPS   O12 9358   3.572   3.251   6.200 -0.1888  0.0131  0.4859
   95SAPS   O11 9359   3.744   3.152   6.360  0.3192  0.4029  0.0697
   95SAPS    C1 9360   3.764   3.262   6.447  0.4367  0.4844 -0.0788
   95SAPS    HA 9361   3.849   3.324   6.411  0.2448 -0.1259 -1.6320
   95SAPS    HB 9362   3.675   3.329   6.450  1.9962  2.6772 -1.0167
   95SAPS    C2 9363   3.793   3.236   6.595 -0.1834 -0.1026 -0.3926
   95SAPS    HS 9364   3.740   3.313   6.654  0.1392  0.4612 -0.8296
   95SAPS   O21 9365   3.932   3.246   6.625 -0.3141  0.6411 -0.3697
   95SAPS   C21 9366   3.962   3.291   6.751  0.3135 -0.1955 -0.4540
   95SAPS   O22 9367   3.871   3.323   6.830 -0.8352 -0.3161  0.4097
   95SAPS   C22 9368   4.112   3.301   6.769 -0.3167 -0.1091 -0.8049
   95SAPS   H2R 9369   4.157   3.305   6.668  3.5343  2.2577  0.8827
   95SAPS   H2S 9370   4.132   3.400   6.816  0.0721 -0.4231 -0.2991
   95SAPS    C3 9371   3.732   3.104   6.641 -0.2039 -0.4036  0.3150
   95SAPS    HX 9372   3.767   3.025   6.570  1.5434 -0.2852  1.0142
   95SAPS    HY 9373   3.622   3.115   6.631  0.2123  2.7813 -1.2631
   95SAPS   O31 9374   3.774   3.058   6.778  0.6539  0.3810 -0.6885
   95SAPS   C31 9375   3.692   2.991   6.850 -0.2422  0.0602  0.3810
   95SAPS   O32 9376   3.573   2.970   6.825  0.1485 -0.2304  0.0121
   95SAPS   C32 9377   3.763   2.942   6.966 -0.1906 -0.4841 -0.9457
   95SAPS   H2X 9378   3.853   2.882   6.941 -0.0626 -0.5456 -0.3614
   95SAPS   H2Y 9379   3.694   2.873   7.020 -0.1538 -0.0999 -0.4008
   95SAPS   C23 9380   4.175   3.176   6.836  0.4549 -0.0208 -0.0198
   95SAPS   H3R 9381   4.170   3.085   6.772  0.1861  0.0817 -0.1457
   95SAPS   H3S 9382   4.115   3.150   6.926 -2.4407 -1.4617 -2.2872
   95SAPS   C24 9383   4.318   3.212   6.873 -0.6252  0.2374  0.2795
   95SAPS   H4R 9384   4.311   3.307   6.931 -0.5248  0.4653 -0.0800
   95SAPS   H4S 9385   4.377   3.243   6.784  0.8703  0.6759  1.4196
   95SAPS   C25 9386   4.377   3.089   6.936 -0.2295 -0.5825  0.5622
   95SAPS   H5R 9387   4.368   2.997   6.875 -0.4421  0.5408 -1.1454
   95SAPS   C26 9388   4.412   3.068   7.063 -0.2316  0.5458 -0.3048
   95SAPS   H6R 9389   4.453   2.968   7.084 -0.2375  0.5330 -0.3547
   95SAPS   C27 9390   4.421   3.177   7.167 -0.1845  0.2034  1.6405
   95SAPS   H7R 9391   4.337   3.169   7.240 -2.0825  0.7295 -0.4322
   95SAPS   H7S 9392   4.417   3.276   7.117  2.4564  0.8390  2.5783
   95SAPS   C28 9393   4.559   3.160   7.238  0.0504  0.0719  0.2744
   95SAPS   H8R 9394   4.642   3.176   7.168  1.0895  1.7165  1.8183
   95SAPS   C29 9395   4.580   3.129   7.367 -0.3096 -0.7166 -0.2932
   95SAPS   H9R 9396   4.687   3.118   7.392 -0.5062 -1.8540  0.0814
   95SAPS  C210 9397   4.468   3.118   7.470  0.7146  0.0203 -0.2983
   95SAPS  H10R 9398   4.395   3.201   7.465  1.0626  0.6054  3.2066
   95SAPS  H10S 9399   4.511   3.130   7.572  0.7653 -1.1557 -0.1696
   95SAPS  C211 9400   4.398   2.983   7.445  0.3881 -1.0119  0.2257
   95SAPS  H11R 9401   4.417   2.937   7.347 -0.9127 -1.4969  0.1990
   95SAPS  C212 9402   4.311   2.916   7.522 -0.1424 -0.3411 -0.9070
   95SAPS  H12R 9403   4.277   2.821   7.478  0.7173 -0.4506 -1.3643
   95SAPS  C213 9404   4.280   2.970   7.664 -0.8223  0.5157 -0.2334
   95SAPS  H13R 9405   4.285   3.081   7.667 -1.1385  0.5566 -1.1213
   95SAPS  H13S 9406   4.358   2.944   7.738 -0.7695 -1.6459 -1.0173
   95SAPS  C214 9407   4.142   2.913   7.696  0.1936  0.2247 -1.1099
   95SAPS  H14R 9408   4.068   2.941   7.619  0.8895  1.8393 -1.2099
   95SAPS  C215 9409   4.090   2.838   7.796 -0.1273  1.1739 -0.5863
   95SAPS  H15R 9410   3.985   2.806   7.798 -0.5048  2.4007  1.0666
   95SAPS  C216 9411   4.176   2.769   7.902 -1.0782  0.0237  0.7257
   95SAPS  H16R 9412   4.280   2.794   7.873 -0.7686 -2.1837 -0.1927
   95SAPS  H16S 9413   4.162   2.659   7.893 -2.0043  0.0425  1.8515
   95SAPS  C217 9414   4.155   2.821   8.047  0.5741  0.8212  0.2462
   95SAPS  H17R 9415   4.060   2.779   8.089  0.0212  0.9496 -0.8726
   95SAPS  H17S 9416   4.151   2.931   8.055 -0.5673  0.8378 -0.5594
   95SAPS  C218 9417   4.265   2.771   8.135  0.0031 -0.9792  0.2682
   95SAPS  H18R 9418   4.358   2.807   8.087  1.4028 -0.5845  3.1264
   95SAPS  H18S 9419   4.268   2.660   8.136 -1.1044 -1.0267 -0.6474
   95SAPS  C219 9420   4.254   2.820   8.284  0.3984 -0.2933  0.2967
   95SAPS  H19R 9421   4.307   2.739   8.339 -0.7278  0.1375  2.0628
   95SAPS  H19S 9422   4.146   2.823   8.310  0.2202 -2.2038 -0.1154
   95SAPS  C220 9423   4.328   2.952   8.305 -0.0406  0.4181 -0.4637
   95SAPS  H20R 9424   4.265   3.036   8.270  1.2957  0.7691 -2.0845
   95SAPS  H20S 9425   4.429   2.959   8.260  0.2543  2.2254  0.4349
   95SAPS  H20T 9426   4.334   2.966   8.415  0.2966  1.5837 -0.6251
   95SAPS   C33 9427   3.790   3.053   7.067 -0.0848 -0.4736 -0.1489
   95SAPS   H3X 9428   3.700   3.117   7.077  0.2408 -0.2077  1.1790
   95SAPS   H3Y 9429   3.874   3.116   7.031 -0.5265  1.7061  2.4953
   95SAPS   C34 9430   3.813   3.002   7.218  0.4337  0.6411  0.4712
   95SAPS   H4X 9431   3.908   2.945   7.223  0.8283  1.3619  1.2664
   95SAPS   H4Y 9432   3.728   2.932   7.233  1.5143 -0.7375  0.2613
   95SAPS   C35 9433   3.830   3.108   7.324  0.2007 -0.8048  0.0515
   95SAPS   H5X 9434   3.730   3.156   7.324  1.1613  1.2340  0.4699
   95SAPS   H5Y 9435   3.902   3.190   7.303  0.3049 -0.8302  0.3068
   95SAPS   C36 9436   3.857   3.045   7.461  0.4152 -0.0566  0.3668
   95SAPS   H6X 9437   3.946   2.980   7.471  0.3274 -0.2197  0.0982
   95SAPS   H6Y 9438   3.768   2.986   7.493  0.4390 -0.1837  0.1958
   95SAPS   C37 9439   3.854   3.147   7.575  0.3801 -0.0072  0.3208
   95SAPS   H7X 9440   3.777   3.217   7.537  2.1622  2.7709  1.6466
   95SAPS   H7Y 9441   3.953   3.196   7.584  0.3260 -0.2218  2.2640
   95SAPS   C38 9442   3.809   3.092   7.707 -0.3724  0.2238  0.1710
   95SAPS   H8X 9443   3.873   3.009   7.745 -1.5936 -1.3654 -1.1547
   95SAPS   H8Y 9444   3.705   3.059   7.689 -0.7983  1.9822 -0.6828
   95SAPS   C39 9445   3.799   3.208   7.820 -0.0704  0.3924  0.2728
   95SAPS   H9X 9446   3.696   3.247   7.827  0.3272  1.3138  1.1403
   95SAPS   H9Y 9447   3.876   3.283   7.793 -1.3029  1.6046  0.0957
   95SAPS  C310 9448   3.816   3.153   7.958 -0.5081 -0.0001 -1.0257
   95SAPS  H10X 9449   3.926   3.137   7.965 -0.6230 -0.6694 -0.6808
   95SAPS  H10Y 9450   3.761   3.059   7.978  2.1048 -1.5655 -0.9524
   95SAPS  C311 9451   3.784   3.260   8.068 -0.0982 -0.1264  0.1219
   95SAPS  H11X 9452   3.677   3.287   8.053  0.5487  2.2434 -0.4736
   95SAPS  H11Y 9453   3.844   3.350   8.043  3.1631 -1.9630  1.1380
   95SAPS  C312 9454   3.812   3.220   8.209  0.2213 -0.2966 -0.1461
   95SAPS  H12X 9455   3.781   3.116   8.236 -0.1505 -0.2529 -0.3987
   95SAPS  H12Y 9456   3.747   3.286   8.271 -0.9791 -1.2999 -0.3046
   95SAPS  C313 9457   3.964   3.235   8.245 -0.3675  0.2142 -0.4944
   95SAPS  H13X 9458   3.981   3.344   8.257 -1.6611  0.3703  0.0612
   95SAPS  H13Y 9459   4.030   3.197   8.165 -2.1924 -1.2643 -1.3521
   95SAPS  C314 9460   3.995   3.161   8.372 -0.3905 -0.4168  0.4109
   95SAPS  H14X 9461   4.105   3.171   8.378 -0.2627 -1.7162  0.4191
   95SAPS  H14Y 9462   3.970   3.053   8.359  1.5467 -0.9584  1.0325
   95SAPS  C315 9463   3.925   3.223   8.498  0.1803  0.7294  0.6489
   95SAPS  H15X 9464   3.819   3.190   8.503  0.5131 -0.4640  0.0510
   95SAPS  H15Y 9465   3.922   3.334   8.500 -1.5003  0.7128  0.0313
   95SAPS  C316 9466   3.988   3.190   8.632  0.0082 -0.2988 -0.0875
   95SAPS  H16X 9467   4.092   3.227   8.646 -0.6685  0.4365  3.4788
   95SAPS  H16Y 9468   3.990   3.080   8.644 -1.2413 -0.4375 -0.9976
   95SAPS  C317 9469   3.908   3.236   8.756 -0.3706  0.0888  0.4186
   95SAPS  H17X 9470   3.937   3.173   8.843  0.4876  0.8446  0.7035
   95SAPS  H17Y 9471   3.799   3.230   8.738 -0.4310  0.7737  0.5227
   95SAPS  C318 9472   3.947   3.379   8.799 -0.1873 -0.2860  0.0923
   95SAPS  H18X 9473   3.889   3.423   8.883 -1.5112  0.5748 -1.2558
   95SAPS  H18Y 9474   3.922   3.444   8.712 -1.6502 -1.3411 -0.3126
   95SAPS  H18Z 9475   4.051   3.377   8.837  0.4030  0.1485 -1.4776
   96SAPS     N 9476   4.663   4.995   6.120  0.0107  0.0362 -0.5817
   96SAPS   HN1 9477   4.764   4.994   6.147 -0.4020  0.0902  1.0303
   96SAPS   HN2 9478   4.655   5.070   6.048  2.5651  2.0117  1.0679
   96SAPS   HN3 9479   4.616   5.018   6.210 -1.1975 -0.0774 -1.1803
   96SAPS   C12 9480   4.630   4.864   6.063 -0.5753  0.2838 -0.1257
   96SAPS  H12A 9481   4.547   4.877   5.995 -0.6207 -1.9400 -0.5140
   96SAPS   C13 9482   4.733   4.795   5.974  0.4883 -0.2407  0.1544
   96SAPS  O13A 9483   4.816   4.878   5.921 -0.3845 -0.2876 -0.3428
   96SAPS  O13B 9484   4.682   4.699   5.907 -0.4147 -0.0385 -0.2949
   96SAPS   C11 9485   4.589   4.768   6.178 -0.4270 -0.6807  0.6218
   96SAPS  H11A 9486   4.671   4.774   6.254 -1.8591 -0.9185  2.2240
   96SAPS  H11B 9487   4.577   4.663   6.146  0.6955 -0.1370 -1.6801
   96SAPS     P 9488   4.395   4.730   6.353  0.2300  0.3982  0.4796
   96SAPS   O13 9489   4.324   4.817   6.449 -0.4797 -0.0552 -0.2360
   96SAPS   O14 9490   4.315   4.626   6.285  0.0437  0.0256 -0.2381
   96SAPS   O12 9491   4.472   4.816   6.244  0.5283 -0.1523 -0.2650
   96SAPS   O11 9492   4.519   4.647   6.421  0.3439  0.3043 -0.1909
   96SAPS    C1 9493   4.614   4.713   6.507 -0.4029 -0.5118 -0.3203
   96SAPS    HA 9494   4.712   4.734   6.460 -1.0266  0.9024 -0.9961
   96SAPS    HB 9495   4.580   4.800   6.566 -0.3184 -1.2657  0.8632
   96SAPS    C2 9496   4.653   4.615   6.630  0.8727  0.1265  0.3058
   96SAPS    HS 9497   4.678   4.521   6.577  0.0457  0.2935 -0.3948
   96SAPS   O21 9498   4.549   4.589   6.721 -1.0090  0.0263 -0.0336
   96SAPS   C21 9499   4.456   4.507   6.695  0.7406  0.5986  0.2804
   96SAPS   O22 9500   4.446   4.424   6.600  0.2102  0.4941  0.4475
   96SAPS   C22 9501   4.348   4.521   6.800  0.2069 -0.6049 -0.0330
   96SAPS   H2R 9502   4.386   4.555   6.898  1.6835 -1.2195 -0.3787
   96SAPS   H2S 9503   4.282   4.603   6.765 -1.5503 -2.6507 -1.6661
   96SAPS    C3 9504   4.781   4.664   6.706 -0.0142  0.2048  0.3195
   96SAPS    HX 9505   4.748   4.754   6.762 -0.6157 -0.0636  0.3897
   96SAPS    HY 9506   4.858   4.675   6.626  0.8594 -2.4849  0.7466
   96SAPS   O31 9507   4.825   4.564   6.805  0.6898  0.0462 -0.3651
   96SAPS   C31 9508   4.927   4.611   6.872  0.8144 -0.2566  0.5144
   96SAPS   O32 9509   4.963   4.724   6.864 -0.0346 -0.4417 -0.7687
   96SAPS   C32 9510   4.993   4.502   6.947  0.0398 -0.0708 -0.3635
   96SAPS   H2X 9511   5.055   4.444   6.875  0.3273 -1.3895  0.9145
   96SAPS   H2Y 9512   4.914   4.432   6.982  0.7327 -1.3460 -1.3045
   96SAPS   C23 9513   4.263   4.397   6.810 -0.0828  0.2893 -0.6299
   96SAPS   H3R 9514   4.333   4.312   6.823 -0.0280  0.2412 -1.2455
   96SAPS   H3S 9515   4.212   4.385   6.712  0.1265 -0.9304 -0.5890
   96SAPS   C24 9516   4.161   4.403   6.928  0.9648  0.3744 -0.5836
   96SAPS   H4R 9517   4.071   4.343   6.907  0.1857  1.9495 -1.8863
   96SAPS   H4S 9518   4.130   4.510   6.919 -2.4750 -0.7433 -2.8575
   96SAPS   C25 9519   4.209   4.346   7.060 -0.7394 -0.1940  0.4852
   96SAPS   H5R 9520   4.272   4.256   7.053 -1.6690 -0.7874 -0.4089
   96SAPS   C26 9521   4.190   4.386   7.186  0.3272  0.2881 -0.4847
   96SAPS   H6R 9522   4.234   4.327   7.267 -2.6660 -0.7437  0.4750
   96SAPS   C27 9523   4.114   4.507   7.230  0.1074  0.6500 -0.2776
   96SAPS   H7R 9524   4.053   4.462   7.311 -0.5943 -0.1674 -1.2665
   96SAPS   H7S 9525   4.042   4.546   7.156  1.1703  0.0595 -1.6472
   96SAPS   C28 9526   4.208   4.617   7.277  0.2438  0.2615  0.1083
   96SAPS   H8R 9527   4.296   4.637   7.214  0.1169 -1.7404 -0.7382
   96SAPS   C29 9528   4.197   4.687   7.395  0.1518  0.2807 -0.1630
   96SAPS   H9R 9529   4.260   4.777   7.401 -1.0635  1.1470  0.0876
   96SAPS  C210 9530   4.082   4.669   7.490  0.6201 -0.0450 -0.0167
   96SAPS  H10R 9531   3.986   4.661   7.436  0.3833 -1.5169  0.6153
   96SAPS  H10S 9532   4.072   4.755   7.560 -0.6714  1.2291 -1.7291
   96SAPS  C211 9533   4.093   4.537   7.562  0.6452  0.0412 -0.6407
   96SAPS  H11R 9534   4.129   4.454   7.499  1.5430  1.1353 -1.5979
   96SAPS  C212 9535   4.054   4.521   7.690  0.2493 -0.2140 -0.2241
   96SAPS  H12R 9536   4.074   4.422   7.733  0.1864  0.5524  1.6316
   96SAPS  C213 9537   4.007   4.624   7.794 -0.0470  0.2733 -0.4630
   96SAPS  H13R 9538   3.941   4.703   7.753  0.8175  1.5759  0.5969
   96SAPS  H13S 9539   4.088   4.682   7.843  0.9043 -1.1204 -0.3378
   96SAPS  C214 9540   3.928   4.545   7.895  0.2609  0.3609  0.4038
   96SAPS  H14R 9541   3.832   4.503   7.861  0.2057  0.6120  0.2481
   96SAPS  C215 9542   3.955   4.528   8.028 -0.3931  0.1019  0.9870
   96SAPS  H15R 9543   3.897   4.465   8.097 -0.9090 -1.1624 -0.5574
   96SAPS  C216 9544   4.069   4.579   8.108 -0.5032  0.3399 -0.1091
   96SAPS  H16R 9545   4.028   4.650   8.183  0.7059 -0.6411  1.4962
   96SAPS  H16S 9546   4.143   4.648   8.061  0.7964 -1.7364 -1.1616
   96SAPS  C217 9547   4.149   4.482   8.191  0.2392  0.5458  0.0636
   96SAPS  H17R 9548   4.240   4.532   8.230  0.5411  1.0819 -1.2882
   96SAPS  H17S 9549   4.180   4.406   8.116 -1.5047  0.1733 -0.3026
   96SAPS  C218 9550   4.076   4.422   8.314 -0.2181  0.5235 -0.6748
   96SAPS  H18R 9551   3.982   4.376   8.276  0.2734  0.7716 -2.2251
   96SAPS  H18S 9552   4.035   4.507   8.372  1.1222  0.1924  0.8016
   96SAPS  C219 9553   4.158   4.327   8.398 -0.6236 -0.4426  0.2269
   96SAPS  H19R 9554   4.207   4.256   8.328  0.7353  1.2739 -0.5996
   96SAPS  H19S 9555   4.082   4.267   8.453 -2.1230  2.0500  0.9180
   96SAPS  C220 9556   4.269   4.388   8.483 -0.3958  0.2356  0.3601
   96SAPS  H20R 9557   4.312   4.479   8.437  2.0759 -0.7242  0.6432
   96SAPS  H20S 9558   4.348   4.313   8.508 -1.0707  0.1959  2.5191
   96SAPS  H20T 9559   4.232   4.428   8.580 -0.6264  0.9205 -0.0131
   96SAPS   C33 9560   5.074   4.548   7.065 -1.0072  0.1515 -0.4899
   96SAPS   H3X 9561   5.140   4.632   7.035  0.5996 -1.1676 -0.6587
   96SAPS   H3Y 9562   5.136   4.469   7.111 -2.2645  0.1076  1.1859
   96SAPS   C34 9563   4.986   4.606   7.180 -0.0847 -0.0650 -0.0353
   96SAPS   H4X 9564   4.913   4.523   7.191  1.4659 -1.5418 -0.5778
   96SAPS   H4Y 9565   4.933   4.695   7.139 -1.2745 -0.2781  1.0098
   96SAPS   C35 9566   5.061   4.651   7.307  0.0449 -0.3959 -0.4786
   96SAPS   H5X 9567   5.127   4.739   7.290  1.2895 -1.2079  0.1347
   96SAPS   H5Y 9568   5.123   4.562   7.330  0.8633  0.4116  0.4723
   96SAPS   C36 9569   4.980   4.678   7.429  0.1900  0.1232 -0.3527
   96SAPS   H6X 9570   4.919   4.590   7.457  0.8155 -1.1587 -2.8895
   96SAPS   H6Y 9571   4.920   4.768   7.402 -0.4546  0.4539  2.0198
   96SAPS   C37 9572   5.059   4.714   7.552  0.3719  0.3857  0.0358
   96SAPS   H7X 9573   5.132   4.798   7.548  0.1735  0.4870 -1.6364
   96SAPS   H7Y 9574   5.122   4.627   7.580 -0.1317 -1.1360 -3.3440
   96SAPS   C38 9575   4.975   4.753   7.677 -0.0731  0.4564  0.4909
   96SAPS   H8X 9576   4.898   4.675   7.692 -2.1518  2.0493 -1.6650
   96SAPS   H8Y 9577   4.914   4.841   7.648  1.1200  1.9537  2.3487
   96SAPS   C39 9578   5.050   4.785   7.803 -0.1660 -0.8055 -0.4576
   96SAPS   H9X 9579   5.117   4.869   7.775  0.5658 -1.7277 -1.5168
   96SAPS   H9Y 9580   5.130   4.712   7.829 -1.9209 -2.6186 -0.0383
   96SAPS  C310 9581   4.968   4.812   7.932 -0.0943 -0.2682  0.7518
   96SAPS  H10X 9582   4.900   4.725   7.937  1.1582 -1.4897 -2.3049
   96SAPS  H10Y 9583   4.897   4.898   7.925 -0.6202 -0.6458  1.4141
   96SAPS  C311 9584   5.047   4.821   8.063 -0.1399  0.1139  0.6053
   96SAPS  H11X 9585   5.102   4.917   8.054 -0.0526  0.1582  1.5786
   96SAPS  H11Y 9586   5.115   4.735   8.050  0.7100  0.8749 -0.0438
   96SAPS  C312 9587   4.966   4.816   8.200 -0.2870 -0.2130  0.1432
   96SAPS  H12X 9588   4.919   4.716   8.211 -1.9386  0.6342  1.1592
   96SAPS  H12Y 9589   4.890   4.898   8.198  0.8527  0.8935  1.6516
   96SAPS  C313 9590   5.062   4.834   8.316 -0.4617 -0.7426  0.0496
   96SAPS  H13X 9591   5.100   4.938   8.318 -0.1622 -0.8570  0.2722
   96SAPS  H13Y 9592   5.146   4.767   8.290  0.8471  1.3018 -1.0589
   96SAPS  C314 9593   4.987   4.807   8.440 -0.4249 -1.2554  0.0257
   96SAPS  H14X 9594   4.970   4.698   8.441  0.2850 -1.3922 -1.0072
   96SAPS  H14Y 9595   4.887   4.853   8.449 -0.3440 -0.8790 -0.9494
   96SAPS  C315 9596   5.060   4.840   8.568 -0.0035 -0.2279  0.2781
   96SAPS  H15X 9597   5.102   4.942   8.553 -1.3635  0.0603 -1.8579
   96SAPS  H15Y 9598   5.138   4.763   8.583  0.1473  0.1427  1.4435
   96SAPS  C316 9599   4.976   4.830   8.693 -0.5013 -0.4761  0.0335
   96SAPS  H16X 9600   4.914   4.738   8.702 -0.0791 -0.7919 -0.3091
   96SAPS  H16Y 9601   4.903   4.914   8.688  0.9751  0.7976 -0.7237
   96SAPS  C317 9602   5.051   4.840   8.828  0.2213  0.0242  0.3533
   96SAPS  H17X 9603   4.981   4.878   8.905 -1.5001  0.3428 -1.3081
   96SAPS  H17Y 9604   5.129   4.919   8.822  1.8334 -1.5588  0.2878
   96SAPS  C318 9605   5.125   4.715   8.886  0.6425 -0.3742  0.7445
   96SAPS  H18X 9606   5.188   4.674   8.805 -1.8436  0.2291 -1.5806
   96SAPS  H18Y 9607   5.048   4.636   8.899  0.0938 -0.3654 -2.1435
   96SAPS  H18Z 9608   5.172   4.754   8.979 -0.5641  1.2514  0.6928
   97SAPS     N 9609   5.997   3.101   6.110 -0.4401  0.8285  0.1170
   97SAPS   HN1 9610   5.955   3.137   6.198  0.3284 -1.1172  1.3139
   97SAPS   HN2 9611   5.920   3.104   6.040 -0.5254 -2.5649  0.0055
   97SAPS   HN3 9612   6.026   3.002   6.126 -1.0773  1.1555  3.6983
   97SAPS   C12 9613   6.110   3.188   6.079  0.1476 -0.4201  0.1626
   97SAPS  H12A 9614   6.148   3.152   5.985  3.0321  0.0099  1.1175
   97SAPS   C13 9615   6.088   3.346   6.070  0.6997  0.4413 -0.2275
   97SAPS  O13A 9616   5.971   3.390   6.076 -1.3036  0.0474  0.4919
   97SAPS  O13B 9617   6.184   3.412   6.037 -0.7387  0.1235 -0.0671
   97SAPS   C11 9618   6.214   3.164   6.186 -0.0262 -0.1091 -0.2744
   97SAPS  H11A 9619   6.175   3.209   6.280 -1.7772  0.3415 -1.2035
   97SAPS  H11B 9620   6.309   3.220   6.176 -0.8488  1.2268 -0.6686
   97SAPS     P 9621   6.378   2.982   6.286  0.5293  0.3892 -0.0599
   97SAPS   O13 9622   6.398   2.834   6.298 -0.6483  0.3205  0.0147
   97SAPS   O14 9623   6.480   3.061   6.224 -0.0556  0.1368 -0.1183
   97SAPS   O12 9624   6.244   3.020   6.208 -0.1245  0.0152 -0.1217
   97SAPS   O11 9625   6.354   3.044   6.435 -0.0582  0.3134  0.2971
   97SAPS    C1 9626   6.253   2.969   6.512  0.2618 -0.1518  0.2806
   97SAPS    HA 9627   6.150   2.994   6.476 -0.0430 -1.1489  0.4471
   97SAPS    HB 9628   6.267   2.859   6.501 -0.2149 -0.1864 -0.0309
   97SAPS    C2 9629   6.258   3.020   6.655  0.2091  0.5599  0.0020
   97SAPS    HS 9630   6.252   3.131   6.649 -0.2558  0.5405  0.1315
   97SAPS   O21 9631   6.388   2.980   6.710  0.0948  0.2426 -0.1696
   97SAPS   C21 9632   6.434   3.059   6.808  0.5039  0.0162 -0.0220
   97SAPS   O22 9633   6.380   3.159   6.849 -0.0980 -0.2597 -0.7360
   97SAPS   C22 9634   6.566   2.991   6.854  0.6823 -0.2931  0.1427
   97SAPS   H2R 9635   6.572   2.885   6.822  0.2384  0.4510 -2.5085
   97SAPS   H2S 9636   6.643   3.056   6.808 -0.3425  0.8363 -0.0061
   97SAPS    C3 9637   6.143   2.966   6.743 -0.7088 -0.0850  0.5341
   97SAPS    HX 9638   6.047   2.996   6.697  0.4067  0.4018 -1.5247
   97SAPS    HY 9639   6.155   3.020   6.840 -0.3535  1.1605 -0.2036
   97SAPS   O31 9640   6.142   2.827   6.776 -0.1560  0.4556 -0.5180
   97SAPS   C31 9641   6.071   2.751   6.698 -0.4280  0.0376 -0.4276
   97SAPS   O32 9642   6.002   2.785   6.606 -0.1531 -0.3341  0.3413
   97SAPS   C32 9643   6.082   2.613   6.755 -0.2269 -0.5089  0.5676
   97SAPS   H2X 9644   6.151   2.618   6.842  0.9757  0.5895 -0.4340
   97SAPS   H2Y 9645   6.128   2.543   6.682  2.1493 -1.1042  2.5774
   97SAPS   C23 9646   6.586   3.008   7.007  0.0568 -0.0511 -0.0182
   97SAPS   H3R 9647   6.554   3.107   7.047  0.0847 -0.9710  2.3649
   97SAPS   H3S 9648   6.696   3.010   7.023  0.0639  1.6433 -0.1496
   97SAPS   C24 9649   6.533   2.890   7.089  0.4049  0.1426 -0.0130
   97SAPS   H4R 9650   6.608   2.883   7.172 -1.4197 -0.1180  1.6422
   97SAPS   H4S 9651   6.541   2.792   7.037 -1.1424 -0.2101  0.3937
   97SAPS   C25 9652   6.392   2.904   7.134  0.3280 -1.6631 -0.7017
   97SAPS   H5R 9653   6.356   3.008   7.123  2.7706 -1.0328 -3.4494
   97SAPS   C26 9654   6.309   2.807   7.175  0.2176 -0.2449  0.2410
   97SAPS   H6R 9655   6.205   2.839   7.191  0.3320 -0.0668  0.6395
   97SAPS   C27 9656   6.351   2.658   7.177 -0.3720  0.5516  0.4291
   97SAPS   H7R 9657   6.283   2.619   7.255 -1.8330  1.1711 -0.5289
   97SAPS   H7S 9658   6.455   2.647   7.216  0.4219  1.2755 -1.4050
   97SAPS   C28 9659   6.345   2.584   7.036 -0.1276  0.2145 -0.3839
   97SAPS   H8R 9660   6.348   2.647   6.946  1.6310  0.6733 -0.0252
   97SAPS   C29 9661   6.330   2.451   7.009  0.4877  1.0011  0.1699
   97SAPS   H9R 9662   6.317   2.418   6.905  0.4355  0.2843  0.3988
   97SAPS  C210 9663   6.307   2.350   7.119  0.1229 -0.1118 -0.3351
   97SAPS  H10R 9664   6.250   2.264   7.076  1.1110 -1.0996  0.3096
   97SAPS  H10S 9665   6.240   2.398   7.194 -1.2095  0.8020 -2.0616
   97SAPS  C211 9666   6.441   2.307   7.172  0.3316  0.6283 -0.5605
   97SAPS  H11R 9667   6.522   2.292   7.098 -1.4057 -0.8213 -2.2352
   97SAPS  C212 9668   6.467   2.282   7.299  0.0853  0.2258 -0.8550
   97SAPS  H12R 9669   6.572   2.255   7.319 -0.3147 -0.4974  0.3459
   97SAPS  C213 9670   6.370   2.300   7.412 -0.0308  0.5850  0.7655
   97SAPS  H13R 9671   6.286   2.232   7.388 -0.6258  1.4022  0.5242
   97SAPS  H13S 9672   6.333   2.405   7.417 -0.1299  0.4972  2.0017
   97SAPS  C214 9673   6.429   2.262   7.547 -0.5066 -1.1191 -0.5172
   97SAPS  H14R 9674   6.537   2.252   7.564 -0.4604  0.4843  0.1741
   97SAPS  C215 9675   6.347   2.236   7.657 -0.1798 -0.5014 -0.8826
   97SAPS  H15R 9676   6.394   2.192   7.746 -1.3232 -0.9850 -0.5016
   97SAPS  C216 9677   6.199   2.231   7.669 -0.5740 -0.4739  0.0044
   97SAPS  H16R 9678   6.167   2.126   7.689  1.7007 -1.2668 -0.3569
   97SAPS  H16S 9679   6.150   2.284   7.584 -1.2351 -0.6312  0.2872
   97SAPS  C217 9680   6.160   2.317   7.795 -0.4975  0.1259  0.0079
   97SAPS  H17R 9681   6.200   2.267   7.886  2.8021 -1.3338 -2.1448
   97SAPS  H17S 9682   6.049   2.312   7.787 -0.5431 -1.0002  1.0768
   97SAPS  C218 9683   6.196   2.469   7.784 -0.5860  0.0728  0.1067
   97SAPS  H18R 9684   6.146   2.514   7.696 -0.0821  1.9978  0.7782
   97SAPS  H18S 9685   6.307   2.476   7.782 -0.4607 -1.5989  0.0719
   97SAPS  C219 9686   6.159   2.545   7.914  0.7084  0.0065 -0.6776
   97SAPS  H19R 9687   6.205   2.505   8.007  0.7642  0.0105 -0.7041
   97SAPS  H19S 9688   6.049   2.557   7.926  0.6400 -2.0727  1.0911
   97SAPS  C220 9689   6.207   2.691   7.909  0.4036 -0.3887 -0.5770
   97SAPS  H20R 9690   6.154   2.735   7.822  0.5661 -0.2023 -0.5823
   97SAPS  H20S 9691   6.318   2.693   7.902  0.3858  1.3228 -0.7424
   97SAPS  H20T 9692   6.183   2.762   7.992  1.6978 -2.6771  1.8288
   97SAPS   C33 9693   5.951   2.552   6.811 -0.4694  0.0369  0.4180
   97SAPS   H3X 9694   5.962   2.448   6.849  2.1588 -0.3757 -1.3368
   97SAPS   H3Y 9695   5.876   2.540   6.729  0.6562 -0.9761 -0.4732
   97SAPS   C34 9696   5.877   2.641   6.915  0.1095  0.3576  0.0417
   97SAPS   H4X 9697   5.776   2.597   6.930 -1.5828  4.5406  1.6242
   97SAPS   H4Y 9698   5.854   2.735   6.860  0.5481  0.2551 -0.3120
   97SAPS   C35 9699   5.945   2.669   7.047 -0.0339  0.3573  0.1834
   97SAPS   H5X 9700   6.041   2.723   7.029  0.5759 -0.9208 -0.4689
   97SAPS   H5Y 9701   5.964   2.569   7.091  0.5954 -0.6510 -2.2906
   97SAPS   C36 9702   5.863   2.737   7.155  0.0707  0.6648  0.0097
   97SAPS   H6X 9703   5.779   2.670   7.183 -0.0449  0.2126 -1.4121
   97SAPS   H6Y 9704   5.825   2.836   7.123 -0.8281 -0.4156 -2.4324
   97SAPS   C37 9705   5.944   2.755   7.288  0.2206  0.5811  0.6971
   97SAPS   H7X 9706   6.020   2.830   7.257 -1.2370  2.1298  0.7931
   97SAPS   H7Y 9707   5.982   2.654   7.311  0.6384  0.2297 -1.4439
   97SAPS   C38 9708   5.852   2.797   7.406 -0.1445  0.5367  0.0069
   97SAPS   H8X 9709   5.754   2.748   7.391  1.3011 -2.3387 -0.3067
   97SAPS   H8Y 9710   5.830   2.906   7.399  1.5034  1.0915  2.6957
   97SAPS   C39 9711   5.887   2.742   7.542 -0.1692 -0.0792  0.0217
   97SAPS   H9X 9712   5.963   2.812   7.582 -0.4667 -0.0468  0.5258
   97SAPS   H9Y 9713   5.930   2.639   7.539 -2.3460 -1.0366  0.8702
   97SAPS  C310 9714   5.771   2.732   7.634 -0.0089 -0.1404  0.0272
   97SAPS  H10X 9715   5.701   2.660   7.587 -0.1329  0.6405 -1.0074
   97SAPS  H10Y 9716   5.722   2.831   7.644  0.5188 -0.0148  1.6527
   97SAPS  C311 9717   5.813   2.697   7.771 -1.0247  0.4567 -0.3602
   97SAPS  H11X 9718   5.900   2.757   7.806 -1.0716  0.3536 -0.0642
   97SAPS  H11Y 9719   5.841   2.589   7.769  0.4466  0.8015  0.6590
   97SAPS  C312 9720   5.687   2.697   7.858  0.1924 -0.0071 -0.1304
   97SAPS  H12X 9721   5.601   2.657   7.799 -1.5733 -0.8490  2.9090
   97SAPS  H12Y 9722   5.666   2.800   7.893  0.0704  0.3808 -1.3276
   97SAPS  C313 9723   5.698   2.622   7.988 -0.2035  0.8135  0.3882
   97SAPS  H13X 9724   5.695   2.512   7.972 -0.5532  0.9759 -0.6754
   97SAPS  H13Y 9725   5.607   2.655   8.042  2.1574 -0.3054  5.4091
   97SAPS  C314 9726   5.807   2.676   8.080 -0.4222  0.9506 -0.1518
   97SAPS  H14X 9727   5.782   2.777   8.118  0.6860  0.9555  0.6115
   97SAPS  H14Y 9728   5.904   2.690   8.027 -0.2482  1.9713  0.4312
   97SAPS  C315 9729   5.818   2.588   8.200  0.8105  0.0059 -0.4343
   97SAPS  H15X 9730   5.919   2.600   8.245 -0.0377 -0.4332  1.6179
   97SAPS  H15Y 9731   5.817   2.479   8.177  0.2879 -0.0805 -0.0022
   97SAPS  C316 9732   5.707   2.619   8.301  0.1209  0.5079 -0.0944
   97SAPS  H16X 9733   5.604   2.606   8.262 -0.1545 -2.9083  1.5703
   97SAPS  H16Y 9734   5.727   2.719   8.344  0.1363  1.1304 -1.5068
   97SAPS  C317 9735   5.705   2.513   8.412 -0.2173  0.1432 -0.6254
   97SAPS  H17X 9736   5.794   2.529   8.478  0.0339  0.2568 -0.9885
   97SAPS  H17Y 9737   5.703   2.412   8.365  2.1266 -0.5948  0.7105
   97SAPS  C318 9738   5.594   2.515   8.514  0.1955 -0.2889  0.4386
   97SAPS  H18X 9739   5.502   2.559   8.471 -2.0135 -2.2695  3.0128
   97SAPS  H18Y 9740   5.607   2.573   8.608 -0.9818 -0.8647  0.9610
   97SAPS  H18Z 9741   5.583   2.410   8.547 -0.8789 -0.4804 -0.4949
   98SAPS     N 9742   3.499   2.910   5.961 -0.1522 -0.0814  0.2136
   98SAPS   HN1 9743   3.413   2.968   5.955 -0.8084 -0.8356  1.8351
   98SAPS   HN2 9744   3.531   2.924   6.059 -1.2511  1.2410  0.3977
   98SAPS   HN3 9745   3.571   2.957   5.903 -0.5632 -0.2379 -0.4268
   98SAPS   C12 9746   3.484   2.765   5.943  0.3903 -0.4848  0.5895
   98SAPS  H12A 9747   3.390   2.741   5.992 -0.1624 -0.3489 -0.4006
   98SAPS   C13 9748   3.458   2.724   5.798 -0.2578 -0.3771  0.1447
   98SAPS  O13A 9749   3.451   2.814   5.706 -0.1876 -0.4544 -0.2297
   98SAPS  O13B 9750   3.414   2.606   5.781  0.0499  0.7640  0.6062
   98SAPS   C11 9751   3.602   2.694   6.004  0.0745  0.3208 -0.8612
   98SAPS  H11A 9752   3.595   2.583   6.003  0.3072  0.2599  1.4783
   98SAPS  H11B 9753   3.601   2.720   6.112 -0.4293  0.4338 -0.8910
   98SAPS     P 9754   3.864   2.678   6.007  0.3335 -0.0302  0.3474
   98SAPS   O13 9755   3.901   2.560   5.925  0.1167 -0.7187  0.0692
   98SAPS   O14 9756   3.957   2.795   6.007  0.0772 -0.1417 -0.1881
   98SAPS   O12 9757   3.729   2.728   5.945  1.1976  0.4255 -0.2807
   98SAPS   O11 9758   3.836   2.619   6.155 -0.0295  0.4530  0.1327
   98SAPS    C1 9759   3.825   2.701   6.273  0.2016  0.1923 -0.0856
   98SAPS    HA 9760   3.856   2.804   6.248 -0.2669  0.7478  1.5723
   98SAPS    HB 9761   3.717   2.710   6.297  0.5097  0.3450  1.2336
   98SAPS    C2 9762   3.893   2.649   6.402  0.5981 -0.0851 -0.9673
   98SAPS    HS 9763   3.999   2.628   6.376  1.2504  0.7938  0.9207
   98SAPS   O21 9764   3.824   2.526   6.438 -0.0869  0.0141 -0.0374
   98SAPS   C21 9765   3.906   2.420   6.463 -0.4612  0.2117  0.3773
   98SAPS   O22 9766   4.026   2.416   6.439 -0.0718 -0.2023 -0.0853
   98SAPS   C22 9767   3.833   2.318   6.545 -0.1064  0.0357 -0.3418
   98SAPS   H2R 9768   3.726   2.320   6.515 -0.1246 -1.7843 -0.4517
   98SAPS   H2S 9769   3.869   2.215   6.526 -0.7645 -0.0565 -1.1123
   98SAPS    C3 9770   3.912   2.755   6.507  0.4942 -0.2636  1.3463
   98SAPS    HX 9771   3.815   2.808   6.513 -0.1045 -0.8665 -2.3834
   98SAPS    HY 9772   3.977   2.840   6.476 -2.4646  1.4422 -0.4365
   98SAPS   O31 9773   3.944   2.707   6.640  0.3107 -0.0839 -0.0429
   98SAPS   C31 9774   4.051   2.761   6.697 -0.0172  0.0701 -0.0701
   98SAPS   O32 9775   4.124   2.846   6.650  0.0054 -0.0664 -0.1979
   98SAPS   C32 9776   4.077   2.703   6.834  0.6598 -0.6138  0.4787
   98SAPS   H2X 9777   4.104   2.597   6.818  0.3739 -0.6386  0.1498
   98SAPS   H2Y 9778   3.990   2.706   6.904  0.2827  2.6151 -0.0312
   98SAPS   C23 9779   3.851   2.342   6.699 -0.3464 -0.0510  0.1656
   98SAPS   H3R 9780   3.818   2.447   6.714 -1.2399 -0.4504  1.1159
   98SAPS   H3S 9781   3.960   2.344   6.719 -0.4294 -1.7554  0.9229
   98SAPS   C24 9782   3.778   2.249   6.795 -1.1534  0.0020 -0.4881
   98SAPS   H4R 9783   3.784   2.277   6.902  3.1563  4.1120 -1.6144
   98SAPS   H4S 9784   3.838   2.156   6.794 -0.5694  0.3352  1.2080
   98SAPS   C25 9785   3.637   2.221   6.749  0.4736  0.3859  0.1579
   98SAPS   H5R 9786   3.623   2.155   6.662 -0.9800 -0.1555  0.7856
   98SAPS   C26 9787   3.521   2.266   6.806  0.5086 -0.3205 -0.2657
   98SAPS   H6R 9788   3.428   2.252   6.749  0.7337 -1.8183 -0.3015
   98SAPS   C27 9789   3.513   2.345   6.933 -0.2732 -0.5450 -0.6266
   98SAPS   H7R 9790   3.574   2.303   7.016  0.4274  0.2083 -0.7633
   98SAPS   H7S 9791   3.411   2.350   6.976  0.4794 -0.2969  1.1846
   98SAPS   C28 9792   3.554   2.487   6.901 -0.6490  0.3005 -0.5354
   98SAPS   H8R 9793   3.487   2.526   6.822  0.7672 -0.9720 -2.4071
   98SAPS   C29 9794   3.656   2.561   6.952  0.4459 -0.1077  0.1050
   98SAPS   H9R 9795   3.695   2.643   6.891  1.3912  0.8591  1.9529
   98SAPS  C210 9796   3.747   2.519   7.064  0.1253  0.5055  0.1823
   98SAPS  H10R 9797   3.832   2.463   7.022 -0.6741 -0.8268  0.3271
   98SAPS  H10S 9798   3.693   2.446   7.129  1.6918 -0.7994  0.0350
   98SAPS  C211 9799   3.810   2.632   7.140 -0.1726 -0.8022  0.0193
   98SAPS  H11R 9800   3.855   2.711   7.079 -2.7911  1.6859  1.1875
   98SAPS  C212 9801   3.820   2.630   7.277 -0.0127 -0.1340  0.2467
   98SAPS  H12R 9802   3.873   2.718   7.316 -2.1083  0.7619  1.1011
   98SAPS  C213 9803   3.772   2.537   7.390 -0.5258 -0.3173 -0.0423
   98SAPS  H13R 9804   3.814   2.573   7.486  3.2422 -2.0380 -0.9511
   98SAPS  H13S 9805   3.815   2.436   7.373 -0.6487 -0.0665 -1.9572
   98SAPS  C214 9806   3.622   2.525   7.404 -0.4242 -0.0083  0.2085
   98SAPS  H14R 9807   3.571   2.520   7.307  1.1108 -0.2696 -0.6088
   98SAPS  C215 9808   3.544   2.510   7.510 -0.2602 -0.1758 -0.4854
   98SAPS  H15R 9809   3.437   2.488   7.496 -0.3813  0.0869  0.0174
   98SAPS  C216 9810   3.568   2.492   7.657  0.3106  0.2246  0.4002
   98SAPS  H16R 9811   3.640   2.567   7.695 -0.5499  0.8079  0.8828
   98SAPS  H16S 9812   3.621   2.396   7.676 -0.7062 -0.2254  0.9887
   98SAPS  C217 9813   3.444   2.499   7.752 -0.2452 -0.5891  0.3216
   98SAPS  H17R 9814   3.373   2.420   7.718 -0.9776 -0.5815  1.7953
   98SAPS  H17S 9815   3.386   2.593   7.745 -1.1030 -0.9386  2.4858
   98SAPS  C218 9816   3.474   2.448   7.891  0.4321  0.4801 -0.2255
   98SAPS  H18R 9817   3.540   2.515   7.950  0.3321  1.9101 -1.6988
   98SAPS  H18S 9818   3.532   2.354   7.875  1.3309  0.9517  0.1920
   98SAPS  C219 9819   3.343   2.422   7.972 -0.8473  0.1705  0.6880
   98SAPS  H19R 9820   3.273   2.365   7.908  0.2377  1.3244 -1.5543
   98SAPS  H19S 9821   3.294   2.521   7.983 -0.2925  0.4948  0.2654
   98SAPS  C220 9822   3.367   2.343   8.109  0.0600  0.2164  0.0753
   98SAPS  H20R 9823   3.427   2.414   8.169  2.2261  2.5811 -4.6020
   98SAPS  H20S 9824   3.429   2.253   8.091 -0.0431  0.6212 -2.5903
   98SAPS  H20T 9825   3.277   2.311   8.166  0.5874 -2.0776 -0.3552
   98SAPS   C33 9826   4.175   2.794   6.914 -0.2228  0.4428  0.3851
   98SAPS   H3X 9827   4.135   2.898   6.905 -2.4198 -0.3821  0.3826
   98SAPS   H3Y 9828   4.278   2.790   6.874  0.0593 -0.7920  1.1951
   98SAPS   C34 9829   4.191   2.742   7.061  0.0158  0.5307 -0.1299
   98SAPS   H4X 9830   4.095   2.760   7.112 -0.0091  2.3578 -0.7734
   98SAPS   H4Y 9831   4.260   2.806   7.120 -1.9106  4.0445 -1.5346
   98SAPS   C35 9832   4.223   2.590   7.070  0.3798 -0.0466  0.1106
   98SAPS   H5X 9833   4.295   2.551   6.995 -1.1483  0.5081 -1.6854
   98SAPS   H5Y 9834   4.131   2.528   7.054 -0.7070  1.2348  1.2828
   98SAPS   C36 9835   4.274   2.561   7.214 -0.7543  0.2601  0.1952
   98SAPS   H6X 9836   4.358   2.629   7.238  1.3488 -1.2998 -2.4507
   98SAPS   H6Y 9837   4.306   2.454   7.214  1.5005  0.9097  1.1366
   98SAPS   C37 9838   4.173   2.568   7.329 -0.3400  0.3488  0.6480
   98SAPS   H7X 9839   4.092   2.495   7.306  0.5205 -0.7293  0.9759
   98SAPS   H7Y 9840   4.138   2.672   7.341  0.8073  0.6146  1.7385
   98SAPS   C38 9841   4.232   2.517   7.456 -0.2253  0.4814 -0.6914
   98SAPS   H8X 9842   4.313   2.591   7.470  0.1073 -0.1087  0.5135
   98SAPS   H8Y 9843   4.280   2.419   7.440  0.7541  1.2925 -2.9823
   98SAPS   C39 9844   4.130   2.513   7.569  0.2194 -0.4114  0.7119
   98SAPS   H9X 9845   4.058   2.596   7.553 -1.1063 -2.1312 -2.7882
   98SAPS   H9Y 9846   4.176   2.528   7.669 -2.6151 -1.1765  2.1662
   98SAPS  C310 9847   4.058   2.381   7.579  0.3853 -0.5468 -0.4063
   98SAPS  H10X 9848   4.123   2.301   7.619 -0.1495 -0.3886  0.8071
   98SAPS  H10Y 9849   4.017   2.358   7.479 -0.0238  0.4324 -0.4707
   98SAPS  C311 9850   3.938   2.377   7.678  0.4743  0.2905 -0.4844
   98SAPS  H11X 9851   3.895   2.276   7.694 -0.1911  0.6606  0.0984
   98SAPS  H11Y 9852   3.871   2.445   7.622  1.5553  0.0165 -2.1297
   98SAPS  C312 9853   3.967   2.422   7.821  0.2961 -0.2419 -0.7315
   98SAPS  H12X 9854   4.021   2.520   7.823  1.4033 -0.8643  0.9217
   98SAPS  H12Y 9855   4.034   2.352   7.874 -0.7816  0.4328  1.5601
   98SAPS  C313 9856   3.838   2.457   7.897 -0.2340  0.3287 -0.7195
   98SAPS  H13X 9857   3.765   2.374   7.890  0.8780 -1.0878  2.9502
   98SAPS  H13Y 9858   3.792   2.548   7.853  0.5357  1.3274  0.4856
   98SAPS  C314 9859   3.873   2.481   8.045 -0.3216 -0.0790 -0.1917
   98SAPS  H14X 9860   3.810   2.559   8.095  1.3013  1.7622 -0.9745
   98SAPS  H14Y 9861   3.975   2.523   8.057 -0.6282  0.0680  2.2214
   98SAPS  C315 9862   3.844   2.358   8.133 -0.4732 -0.0497  0.0973
   98SAPS  H15X 9863   3.924   2.284   8.113  0.7419  1.1878  0.3405
   98SAPS  H15Y 9864   3.750   2.313   8.093  0.0362 -0.8927 -0.1474
   98SAPS  C316 9865   3.840   2.391   8.281  0.4668 -0.1268  0.1906
   98SAPS  H16X 9866   3.789   2.317   8.346  0.9594 -0.8648 -0.2466
   98SAPS  H16Y 9867   3.771   2.478   8.289 -2.2494 -2.0490 -1.3667
   98SAPS  C317 9868   3.977   2.427   8.334 -0.0771 -0.3122  0.4060
   98SAPS  H17X 9869   4.049   2.463   8.257 -0.6790  1.1267  0.5074
   98SAPS  H17Y 9870   4.021   2.333   8.374  0.7170 -1.5826 -3.2692
   98SAPS  C318 9871   3.984   2.532   8.446 -0.4910 -0.1985 -0.2412
   98SAPS  H18X 9872   4.087   2.566   8.469 -0.7068 -1.1366  2.3536
   98SAPS  H18Y 9873   3.949   2.497   8.546 -1.1579  1.7158  0.2325
   98SAPS  H18Z 9874   3.924   2.623   8.425 -1.1297 -0.1174  1.7667
   99SAPS     N 9875   3.883   0.321   5.998 -0.7272 -0.3529 -0.3432
   99SAPS   HN1 9876   3.826   0.235   6.014 -0.9818 -0.3914 -1.4356
   99SAPS   HN2 9877   3.854   0.369   5.911 -0.6609  0.6282  0.1749
   99SAPS   HN3 9878   3.981   0.290   5.989 -0.4543  0.7082 -0.9882
   99SAPS   C12 9879   3.874   0.412   6.114  0.1407  0.7709  0.4035
   99SAPS  H12A 9880   3.924   0.372   6.201 -0.1832  1.3651  0.8649
   99SAPS   C13 9881   3.927   0.553   6.088  0.1665 -0.3305  0.0596
   99SAPS  O13A 9882   3.963   0.587   5.975  0.1108  0.0802 -0.4012
   99SAPS  O13B 9883   3.900   0.634   6.183 -0.1391  0.5020  1.2432
   99SAPS   C11 9884   3.724   0.408   6.144 -0.1936 -0.2712 -0.5288
   99SAPS  H11A 9885   3.671   0.457   6.059 -0.2592  2.1031  0.8435
   99SAPS  H11B 9886   3.708   0.465   6.238 -1.6967 -1.6307  0.0603
   99SAPS     P 9887   3.513   0.250   6.183  0.1335  0.4498 -0.0783
   99SAPS   O13 9888   3.451   0.304   6.059 -0.3409  0.4205  0.4211
   99SAPS   O14 9889   3.483   0.116   6.227 -0.5831  0.1702 -0.0167
   99SAPS   O12 9890   3.674   0.274   6.163  0.1198  1.3097 -0.3464
   99SAPS   O11 9891   3.479   0.348   6.298 -0.3186 -0.1693  0.0100
   99SAPS    C1 9892   3.545   0.327   6.428 -0.5603 -0.3440 -0.0163
   99SAPS    HA 9893   3.529   0.221   6.458  1.4124  0.1149  2.8777
   99SAPS    HB 9894   3.655   0.335   6.421 -0.5822 -1.2023 -1.5710
   99SAPS    C2 9895   3.496   0.429   6.534 -0.4274 -0.1484  0.1930
   99SAPS    HS 9896   3.508   0.384   6.636 -2.8903  1.6957  1.3511
   99SAPS   O21 9897   3.360   0.475   6.512 -0.6228 -0.2598 -0.1786
   99SAPS   C21 9898   3.256   0.403   6.543  0.4670  0.1655  0.3695
   99SAPS   O22 9899   3.251   0.282   6.562  0.2136  0.1685  0.3801
   99SAPS   C22 9900   3.142   0.491   6.586 -0.0130  0.0114  0.2746
   99SAPS   H2R 9901   3.172   0.594   6.560 -1.0686  0.1511 -0.4348
   99SAPS   H2S 9902   3.062   0.460   6.514  1.2755 -0.3134 -1.0448
   99SAPS    C3 9903   3.587   0.561   6.541 -0.0847 -0.2744 -0.6746
   99SAPS    HX 9904   3.579   0.615   6.444  2.5330 -1.2676 -1.4890
   99SAPS    HY 9905   3.692   0.523   6.544 -0.2795 -0.8405 -1.0086
   99SAPS   O31 9906   3.570   0.643   6.656  1.1711  0.3141 -0.4653
   99SAPS   C31 9907   3.506   0.753   6.646  0.1694 -0.0770  0.1390
   99SAPS   O32 9908   3.450   0.797   6.545 -0.3541 -0.3047  0.4732
   99SAPS   C32 9909   3.497   0.810   6.794  1.2743  0.4279 -0.5112
   99SAPS   H2X 9910   3.456   0.913   6.788  0.2051  0.1086  1.0248
   99SAPS   H2Y 9911   3.591   0.795   6.850 -0.7984 -0.2105  2.9491
   99SAPS   C23 9912   3.121   0.466   6.738 -0.3945 -0.2784  0.0076
   99SAPS   H3R 9913   3.180   0.539   6.798 -0.2039  0.2393 -0.7974
   99SAPS   H3S 9914   3.160   0.367   6.769 -2.5762 -1.8084 -2.0326
   99SAPS   C24 9915   2.972   0.455   6.774 -0.1480  0.2594 -0.0020
   99SAPS   H4R 9916   2.981   0.408   6.874  4.8563  1.5641  0.2878
   99SAPS   H4S 9917   2.918   0.383   6.709  1.3773 -0.4682 -0.4912
   99SAPS   C25 9918   2.886   0.573   6.766 -0.5319 -0.1260 -0.4585
   99SAPS   H5R 9919   2.913   0.640   6.683 -1.4242  1.1315  0.2330
   99SAPS   C26 9920   2.781   0.610   6.843 -0.4773 -0.3788 -0.5024
   99SAPS   H6R 9921   2.749   0.714   6.828 -0.8937 -0.2177  1.3495
   99SAPS   C27 9922   2.719   0.523   6.956  0.5358 -0.1917  0.3606
   99SAPS   H7R 9923   2.735   0.577   7.051 -0.1036 -2.0518  1.5392
   99SAPS   H7S 9924   2.779   0.431   6.972 -0.0653 -0.8300 -0.9505
   99SAPS   C28 9925   2.578   0.481   6.948 -0.7678 -0.9029  0.5995
   99SAPS   H8R 9926   2.544   0.450   6.848  0.2575  2.7670 -0.9743
   99SAPS   C29 9927   2.490   0.480   7.045  0.8757  0.9589  0.2061
   99SAPS   H9R 9928   2.382   0.462   7.030  1.0838 -1.6465  1.5457
   99SAPS  C210 9929   2.513   0.527   7.191 -0.3591  0.9822 -0.2563
   99SAPS  H10R 9930   2.410   0.519   7.232  0.1700 -1.2428  0.7256
   99SAPS  H10S 9931   2.560   0.628   7.194 -0.3670  0.9686  0.6513
   99SAPS  C211 9932   2.595   0.431   7.273  0.7614 -0.1770 -0.3956
   99SAPS  H11R 9933   2.625   0.342   7.215  0.9788 -1.5087  1.7136
   99SAPS  C212 9934   2.629   0.454   7.400 -0.1339  0.2770 -0.1719
   99SAPS  H12R 9935   2.701   0.389   7.453 -1.5444 -1.7596 -0.7268
   99SAPS  C213 9936   2.602   0.582   7.474 -0.2689 -0.2905 -0.3541
   99SAPS  H13R 9937   2.585   0.569   7.583 -1.2440  0.7132 -0.3785
   99SAPS  H13S 9938   2.505   0.618   7.434  0.9065  2.0375 -1.1565
   99SAPS  C214 9939   2.717   0.674   7.450 -0.0702  0.3742 -0.4605
   99SAPS  H14R 9940   2.729   0.685   7.341  3.4838 -1.2147 -0.3166
   99SAPS  C215 9941   2.795   0.732   7.544 -0.2060 -0.3546  0.0310
   99SAPS  H15R 9942   2.872   0.800   7.506 -1.4281  0.4801 -1.0051
   99SAPS  C216 9943   2.789   0.727   7.690 -0.2831 -0.1345 -0.3830
   99SAPS  H16R 9944   2.890   0.705   7.730 -1.4356 -0.1460  2.6209
   99SAPS  H16S 9945   2.716   0.650   7.722  0.8405 -2.3396 -2.9117
   99SAPS  C217 9946   2.737   0.862   7.736 -0.6197  0.0284 -0.4219
   99SAPS  H17R 9947   2.629   0.879   7.714  0.0233  3.8466 -0.9649
   99SAPS  H17S 9948   2.794   0.949   7.696  0.1265 -0.9038 -1.3847
   99SAPS  C218 9949   2.750   0.876   7.883 -0.4469 -0.5782 -0.4491
   99SAPS  H18R 9950   2.721   0.980   7.906 -0.9846 -0.2590 -2.5558
   99SAPS  H18S 9951   2.857   0.870   7.914 -0.9529  1.5103  1.8571
   99SAPS  C219 9952   2.655   0.784   7.971  0.1678  0.6534  0.8932
   99SAPS  H19R 9953   2.698   0.682   7.958  0.5395  0.9560 -0.2881
   99SAPS  H19S 9954   2.550   0.788   7.935  0.9131 -2.8257 -1.9722
   99SAPS  C220 9955   2.667   0.828   8.112  0.5202 -0.1011 -0.4319
   99SAPS  H20R 9956   2.597   0.771   8.177 -0.6920  2.6850  0.7931
   99SAPS  H20S 9957   2.650   0.937   8.122 -2.5445 -0.6188  0.5875
   99SAPS  H20T 9958   2.772   0.818   8.148  1.5085  3.6531 -2.0186
   99SAPS   C33 9959   3.404   0.726   6.875  0.5147  0.1048 -0.6807
   99SAPS   H3X 9960   3.306   0.710   6.824 -0.0307  0.4372  0.2447
   99SAPS   H3Y 9961   3.379   0.779   6.969 -0.1372 -1.7463  0.2295
   99SAPS   C34 9962   3.452   0.582   6.925  0.2839  0.3270 -0.2292
   99SAPS   H4X 9963   3.494   0.519   6.844  1.1701 -0.5339  0.8748
   99SAPS   H4Y 9964   3.360   0.530   6.960  0.3101 -0.4771 -1.3426
   99SAPS   C35 9965   3.552   0.593   7.045  0.1105 -0.4024 -0.1115
   99SAPS   H5X 9966   3.523   0.676   7.112 -0.3770 -0.5999 -0.0774
   99SAPS   H5Y 9967   3.645   0.624   6.993 -0.9414 -3.3589 -3.9972
   99SAPS   C36 9968   3.568   0.469   7.130  0.7558  0.4334 -0.0941
   99SAPS   H6X 9969   3.648   0.503   7.199  1.4999 -0.8481 -0.3005
   99SAPS   H6Y 9970   3.594   0.368   7.091 -1.4360  0.7956 -2.5656
   99SAPS   C37 9971   3.441   0.438   7.213 -0.5612  0.1704  0.0589
   99SAPS   H7X 9972   3.369   0.404   7.136 -0.1621 -0.7945  0.1056
   99SAPS   H7Y 9973   3.393   0.529   7.254  1.2447  1.6856 -1.0772
   99SAPS   C38 9974   3.453   0.328   7.315  0.2414 -0.5010 -0.3969
   99SAPS   H8X 9975   3.535   0.258   7.287  0.9208  1.2993 -3.1973
   99SAPS   H8Y 9976   3.354   0.277   7.326 -0.0296  0.0799 -0.1599
   99SAPS   C39 9977   3.493   0.383   7.452  0.3491  0.2585 -0.2661
   99SAPS   H9X 9978   3.421   0.465   7.474 -0.2653 -0.3971  0.1745
   99SAPS   H9Y 9979   3.602   0.404   7.441  1.2061 -1.6564  3.8093
   99SAPS  C310 9980   3.480   0.285   7.576  0.7621  0.2007  0.4292
   99SAPS  H10X 9981   3.545   0.197   7.557  3.4135  2.0926  0.6464
   99SAPS  H10Y 9982   3.376   0.246   7.574  1.0715 -0.6209  0.2370
   99SAPS  C311 9983   3.523   0.344   7.710 -0.2692 -0.4515 -0.1016
   99SAPS  H11X 9984   3.496   0.451   7.726 -0.8277 -0.9079  2.2300
   99SAPS  H11Y 9985   3.633   0.348   7.703 -0.2282 -0.4316  0.4949
   99SAPS  C312 9986   3.478   0.252   7.828 -0.4300 -0.1086 -0.1674
   99SAPS  H12X 9987   3.510   0.154   7.785  1.8089 -0.0960  1.4233
   99SAPS  H12Y 9988   3.368   0.235   7.836 -0.2969  0.3520  3.3467
   99SAPS  C313 9989   3.538   0.288   7.958 -0.5559 -0.4280 -0.0904
   99SAPS  H13X 9990   3.497   0.387   7.987  0.5422 -0.0388  0.1510
   99SAPS  H13Y 9991   3.649   0.293   7.963 -0.4051 -1.7738 -1.5998
   99SAPS  C314 9992   3.501   0.189   8.073  0.1957 -0.0305 -0.5179
   99SAPS  H14X 9993   3.530   0.083   8.053 -1.9201 -0.5261 -1.0494
   99SAPS  H14Y 9994   3.391   0.199   8.081  0.2584 -0.8045  2.0476
   99SAPS  C315 9995   3.555   0.237   8.210 -0.2686 -0.2654  0.0109
   99SAPS  H15X 9996   3.514   0.337   8.236 -1.2523 -0.8722  0.8464
   99SAPS  H15Y 9997   3.665   0.229   8.194  0.0677  3.2251  0.2370
   99SAPS  C316 9998   3.509   0.140   8.320 -0.0150 -0.6265 -0.5553
   99SAPS  H16X 9999   3.543   0.039   8.286  2.0413 -0.3447  0.5811
   99SAPS  H16Y10000   3.400   0.137   8.342  0.4366 -2.0291  1.6900
   99SAPS  C31710001   3.582   0.180   8.449 -0.2927  0.2420  0.3462
   99SAPS  H17X10002   3.528   0.268   8.490  0.9606  2.1575 -1.9877
   99SAPS  H17Y10003   3.688   0.203   8.426  0.0788 -1.8991 -0.2098
   99SAPS  C31810004   3.565   0.080   8.556 -0.5821 -0.1361 -0.0127
   99SAPS  H18X10005   3.603  -0.019   8.523  1.9811  1.1695 -1.1505
   99SAPS  H18Y10006   3.459   0.076   8.589 -0.1254  0.9194  1.6698
   99SAPS  H18Z10007   3.610   0.117   8.650 -3.6993  0.9182  1.1348
  100SAPS     N10008   5.893   2.623   6.405  0.1176 -0.4133  0.5221
  100SAPS   HN110009   5.930   2.534   6.447  1.4932  0.9024  2.1960
  100SAPS   HN210010   5.909   2.697   6.476  0.4967 -0.6215  0.6572
  100SAPS   HN310011   5.792   2.621   6.382 -0.2334 -4.2342  2.0067
  100SAPS   C1210012   5.985   2.650   6.287 -0.9976 -0.0544 -0.0035
  100SAPS  H12A10013   5.962   2.590   6.200 -0.3072  2.0858 -1.7027
  100SAPS   C1310014   5.967   2.795   6.229 -0.1171  0.0699 -0.1137
  100SAPS  O13A10015   5.907   2.886   6.298  0.4992 -0.4091  0.2238
  100SAPS  O13B10016   6.016   2.831   6.122 -0.2459 -0.6696  0.0757
  100SAPS   C1110017   6.135   2.619   6.317  0.9064  0.6820  0.2971
  100SAPS  H11A10018   6.158   2.683   6.405 -0.2388  1.0509  0.3369
  100SAPS  H11B10019   6.201   2.648   6.233 -0.1009  1.6971 -0.1609
  100SAPS     P10020   6.260   2.392   6.295 -0.3023  0.3323 -0.1531
  100SAPS   O1310021   6.201   2.263   6.248 -0.0545 -0.2130  0.3225
  100SAPS   O1410022   6.348   2.455   6.192  0.3252  0.1466 -0.3106
  100SAPS   O1210023   6.150   2.488   6.357 -0.2613 -0.4181 -0.4525
  100SAPS   O1110024   6.362   2.360   6.418 -0.9257  0.0406  0.1112
  100SAPS    C110025   6.442   2.464   6.484  0.6925 -0.5168 -0.0960
  100SAPS    HA10026   6.524   2.503   6.421  0.5857 -1.3625 -0.7644
  100SAPS    HB10027   6.378   2.551   6.509  0.0628 -0.1934 -2.7261
  100SAPS    C210028   6.502   2.410   6.613  0.2512  0.2415  0.2774
  100SAPS    HS10029   6.595   2.358   6.581  0.0653  0.0485  0.0430
  100SAPS   O2110030   6.412   2.320   6.680 -0.1580  0.5772 -0.5069
  100SAPS   C2110031   6.468   2.194   6.716 -0.1841 -0.0422 -0.0598
  100SAPS   O2210032   6.589   2.172   6.717 -0.0464 -0.1724  0.1031
  100SAPS   C2210033   6.367   2.091   6.750 -0.2029 -0.8123 -0.0201
  100SAPS   H2R10034   6.267   2.138   6.755  0.8819  1.4234  1.3992
  100SAPS   H2S10035   6.367   2.021   6.664  1.0535 -0.9079  0.0466
  100SAPS    C310036   6.535   2.522   6.712  0.0471  0.2884 -0.4679
  100SAPS    HX10037   6.445   2.580   6.739  0.6777  1.4383 -0.7729
  100SAPS    HY10038   6.578   2.603   6.648  1.3920 -1.2813 -1.5910
  100SAPS   O3110039   6.606   2.487   6.831  0.3707 -0.2390 -0.1387
  100SAPS   C3110040   6.733   2.511   6.840  0.5874 -0.1733 -0.4182
  100SAPS   O3210041   6.804   2.563   6.759 -0.4452 -0.4301 -0.7585
  100SAPS   C3210042   6.781   2.453   6.967  0.2750  0.3298  0.4940
  100SAPS   H2X10043   6.880   2.403   6.961  0.1220  0.3945 -3.6165
  100SAPS   H2Y10044   6.703   2.387   7.010 -0.6769  0.1333 -1.4940
  100SAPS   C2310045   6.418   2.015   6.869  0.4281  0.6740 -0.1692
  100SAPS   H3R10046   6.439   2.080   6.957  1.9226 -0.0999  0.0630
  100SAPS   H3S10047   6.519   1.972   6.851  0.3349  0.6294 -0.5871
  100SAPS   C2410048   6.312   1.906   6.911 -0.5405  0.0095 -0.2258
  100SAPS   H4R10049   6.275   1.850   6.823 -1.4470 -0.9336  0.7542
  100SAPS   H4S10050   6.217   1.954   6.942 -0.1618 -1.1094  2.7471
  100SAPS   C2510051   6.366   1.814   7.013 -0.1089  0.3879 -0.6341
  100SAPS   H5R10052   6.427   1.731   6.972 -0.6823 -1.4841  2.1076
  100SAPS   C2610053   6.330   1.810   7.143  0.5652 -0.0690 -0.3893
  100SAPS   H6R10054   6.370   1.732   7.209 -1.0427 -0.4465  0.1669
  100SAPS   C2710055   6.229   1.900   7.212  0.1888 -0.0597  0.9979
  100SAPS   H7R10056   6.128   1.856   7.205 -0.3844  1.4227 -0.5507
  100SAPS   H7S10057   6.203   1.993   7.157  1.0630  0.0731  0.8024
  100SAPS   C2810058   6.256   1.939   7.360  0.4124  0.9532 -0.6714
  100SAPS   H8R10059   6.344   2.003   7.380  0.7430  0.2793  0.0527
  100SAPS   C2910060   6.191   1.904   7.474 -0.4592  0.1881 -0.1842
  100SAPS   H9R10061   6.223   1.946   7.570 -0.9950  0.6296 -0.1965
  100SAPS  C21010062   6.083   1.807   7.477 -0.1857  0.5591  0.2429
  100SAPS  H10R10063   6.119   1.710   7.516  0.7433  0.7301 -0.1700
  100SAPS  H10S10064   6.058   1.780   7.372 -2.2727 -1.5349  1.2323
  100SAPS  C21110065   5.973   1.857   7.565  0.5624  0.3654  0.4550
  100SAPS  H11R10066   5.939   1.960   7.544 -0.8690 -0.2384 -0.3123
  100SAPS  C21210067   5.922   1.797   7.670  0.7017  0.1302  0.7336
  100SAPS  H12R10068   5.834   1.851   7.708  0.9842  0.5728  0.7648
  100SAPS  C21310069   5.962   1.663   7.718  0.3263 -0.2967  0.3771
  100SAPS  H13R10070   6.071   1.671   7.733  0.6222  0.2608 -1.9438
  100SAPS  H13S10071   5.940   1.590   7.637  3.1732 -0.3929 -0.3459
  100SAPS  C21410072   5.899   1.621   7.849  0.1483  0.2036 -0.9715
  100SAPS  H14R10073   5.807   1.561   7.843 -2.1171  2.9839  3.1950
  100SAPS  C21510074   5.927   1.668   7.972 -0.3144  0.1213 -0.3006
  100SAPS  H15R10075   5.859   1.634   8.051  1.4942  0.6229  1.5034
  100SAPS  C21610076   6.030   1.771   8.021 -0.4211 -0.3830  0.2502
  100SAPS  H16R10077   5.991   1.781   8.124  0.0811 -0.4692  0.4513
  100SAPS  H16S10078   6.021   1.872   7.976 -0.2509 -0.1262  0.7985
  100SAPS  C21710079   6.172   1.717   8.020  0.5443 -0.2313 -1.0162
  100SAPS  H17R10080   6.244   1.796   8.050 -0.4482  0.5639 -0.6957
  100SAPS  H17S10081   6.185   1.678   7.917  1.6092  0.2971 -1.0842
  100SAPS  C21810082   6.195   1.599   8.117  0.3108  0.5143  0.5071
  100SAPS  H18R10083   6.147   1.509   8.075  0.1733 -0.0424  1.8426
  100SAPS  H18S10084   6.151   1.625   8.215 -1.6012  0.5849 -0.3497
  100SAPS  C21910085   6.336   1.545   8.117  0.3059 -0.0182  0.1565
  100SAPS  H19R10086   6.392   1.640   8.123 -0.2464  0.4836 -2.2257
  100SAPS  H19S10087   6.360   1.494   8.022  0.7754  0.8446 -0.1946
  100SAPS  C22010088   6.346   1.458   8.240 -0.2124  0.5776 -0.2726
  100SAPS  H20R10089   6.448   1.415   8.247 -0.2770  0.8093  2.3006
  100SAPS  H20S10090   6.287   1.366   8.216  0.3114 -0.6282  2.8447
  100SAPS  H20T10091   6.312   1.509   8.332 -1.3760 -0.7465  0.0458
  100SAPS   C3310092   6.801   2.572   7.067 -0.2113  0.2641 -0.6710
  100SAPS   H3X10093   6.724   2.648   7.043  0.7919  0.9324 -1.8129
  100SAPS   H3Y10094   6.900   2.620   7.056 -0.4073  1.5155  2.2944
  100SAPS   C3410095   6.788   2.527   7.216  0.3390  0.7285  0.2766
  100SAPS   H4X10096   6.871   2.453   7.227 -0.2806  0.4030  2.9932
  100SAPS   H4Y10097   6.689   2.482   7.236  0.7444  0.8488  2.6119
  100SAPS   C3510098   6.807   2.642   7.318 -0.0204  0.4790  0.3152
  100SAPS   H5X10099   6.759   2.738   7.287 -1.0186 -0.1229 -0.0283
  100SAPS   H5Y10100   6.914   2.671   7.310  0.4215 -0.2532  3.0105
  100SAPS   C3610101   6.784   2.602   7.462 -0.7860  0.3358  0.6903
  100SAPS   H6X10102   6.841   2.507   7.469 -1.3535 -0.3322 -2.7095
  100SAPS   H6Y10103   6.676   2.581   7.476 -1.0309  1.2685  0.2169
  100SAPS   C3710104   6.838   2.694   7.570 -0.4129 -0.0729 -0.0973
  100SAPS   H7X10105   6.797   2.795   7.549 -0.7758 -0.1040  0.4341
  100SAPS   H7Y10106   6.948   2.693   7.560 -0.7349 -2.9830 -5.2056
  100SAPS   C3810107   6.798   2.647   7.709 -0.6094  0.1270 -0.1261
  100SAPS   H8X10108   6.687   2.647   7.714 -0.5423  1.4643  2.0969
  100SAPS   H8Y10109   6.837   2.724   7.780  0.6762  1.6316 -2.3967
  100SAPS   C3910110   6.863   2.517   7.751 -0.0919  0.1039 -0.2543
  100SAPS   H9X10111   6.972   2.532   7.743 -0.2148  1.2862  0.0900
  100SAPS   H9Y10112   6.838   2.432   7.684 -0.4658  0.3416 -0.4232
  100SAPS  C31010113   6.835   2.482   7.900  0.3613  0.1149  0.1061
  100SAPS  H10X10114   6.864   2.563   7.971 -1.1826  1.4334 -0.7295
  100SAPS  H10Y10115   6.883   2.389   7.938 -0.6459 -0.7484 -0.7059
  100SAPS  C31110116   6.681   2.460   7.924 -0.1784  0.0403 -0.0338
  100SAPS  H11X10117   6.633   2.396   7.847  2.5206 -1.3922 -0.6132
  100SAPS  H11Y10118   6.636   2.560   7.904  1.0033  0.3848 -1.0422
  100SAPS  C31210119   6.634   2.415   8.059 -0.2125 -0.3234  0.1580
  100SAPS  H12X10120   6.660   2.501   8.124 -0.9858 -0.2578  0.3778
  100SAPS  H12Y10121   6.692   2.328   8.098  1.1883  0.4948 -0.0787
  100SAPS  C31310122   6.482   2.397   8.065  0.3937  0.0950  0.0603
  100SAPS  H13X10123   6.462   2.297   8.021  0.3240  0.5126 -0.8795
  100SAPS  H13Y10124   6.440   2.471   7.993  3.3921 -0.4457 -2.3879
  100SAPS  C31410125   6.411   2.420   8.194 -0.0465 -0.1716  0.0511
  100SAPS  H14X10126   6.458   2.356   8.271 -0.1827  2.3800  2.3714
  100SAPS  H14Y10127   6.305   2.389   8.180 -0.3233  1.9000 -2.9635
  100SAPS  C31510128   6.403   2.559   8.252 -0.2872  0.4864  0.0749
  100SAPS  H15X10129   6.369   2.622   8.167  1.0836 -2.8085 -3.0756
  100SAPS  H15Y10130   6.496   2.591   8.304  0.5552  1.1015 -1.7684
  100SAPS  C31610131   6.281   2.566   8.350  0.0684 -0.3217 -0.8478
  100SAPS  H16X10132   6.292   2.480   8.420  1.0795  0.3352 -0.1843
  100SAPS  H16Y10133   6.184   2.559   8.297 -1.5430 -1.7901  2.1930
  100SAPS  C31710134   6.286   2.707   8.424  0.2088  0.8136 -0.3027
  100SAPS  H17X10135   6.298   2.797   8.360  4.8666 -0.5596 -1.6293
  100SAPS  H17Y10136   6.375   2.698   8.490  1.6242  0.6936 -2.1571
  100SAPS  C31810137   6.165   2.709   8.515 -0.3952 -0.0080  0.0231
  100SAPS  H18X10138   6.071   2.680   8.463 -1.6983 -0.9833  2.8288
  100SAPS  H18Y10139   6.147   2.807   8.565 -0.6717  0.4870 -1.0151
  100SAPS  H18Z10140   6.176   2.637   8.598 -1.7613  0.0830  0.3007
  101OSM      N10141   4.883   2.031  10.884 -0.0149 -0.4028 -0.8643
  101OSM    C1510142   5.020   2.081  10.910 -0.3068  0.2765  0.3093
  101OSM   H15A10143   5.025   2.178  10.957  1.5279  0.2850  0.1423
  101OSM   H15B10144   5.075   2.108  10.822 -2.3933  3.4661 -0.0707
  101OSM   H15C10145   5.080   2.010  10.966  0.0966  0.9383  0.7254
  101OSM    C1410146   4.877   1.979  10.745 -0.0243  0.3941 -0.5314
  101OSM   H14A10147   4.941   1.894  10.731 -0.7214 -0.3188  0.5560
  101OSM   H14B10148   4.895   2.057  10.673  0.0472  0.4272 -0.4765
  101OSM   H14C10149   4.775   1.942  10.735 -1.1464  2.4101  2.7697
  101OSM    C1310150   4.853   1.917  10.975 -0.3602 -0.1972  0.9075
  101OSM   H13A10151   4.925   1.839  10.959  0.4981  0.9058 -0.9129
  101OSM   H13B10152   4.754   1.879  10.955 -0.9361  2.0312 -0.8175
  101OSM   H13C10153   4.861   1.943  11.079 -1.2038 -0.8052  1.1246
  101OSM    C1210154   4.777   2.141  10.914  0.0612 -0.5779 -0.4589
  101OSM   H12A10155   4.818   2.234  10.877  1.6260 -1.0012  0.1810
  101OSM   H12B10156   4.773   2.143  11.022  1.3977  0.9692 -0.4164
  101OSM    C1110157   4.640   2.113  10.851 -0.0596  0.5654  0.4522
  101OSM   H11A10158   4.608   2.012  10.885  2.4333  0.9083  4.1466
  101OSM   H11B10159   4.647   2.102  10.741 -0.3005  1.2581  0.3640
  101OSM      P10160   4.556   2.369  10.862  0.6021 -0.0623  0.1271
  101OSM    O1310161   4.451   2.447  10.919  0.5644 -0.0093  0.1604
  101OSM    O1410162   4.693   2.428  10.876 -0.5795  0.3649 -0.2642
  101OSM    O1110163   4.525   2.364  10.711 -0.1189  0.1185  0.0293
  101OSM    O1210164   4.544   2.219  10.898 -0.0271  0.8970  0.2523
  101OSM    C1S10165   4.406   2.355  10.639 -0.3021  0.7125  0.5142
  101OSM    H1S10166   4.329   2.426  10.677 -1.6497  1.0667 -2.6863
  101OSM    H1T10167   4.371   2.250  10.643  3.9348 -0.8158  0.1411
  101OSM     NF10168   4.316   2.443  10.416 -0.2129  0.0300  0.5141
  101OSM    HNF10169   4.256   2.389  10.357 -0.5429  0.2380  0.6642
  101OSM    C2S10170   4.430   2.373  10.485  0.5181  0.1105 -0.1501
  101OSM    H2S10171   4.510   2.449  10.472 -1.6955  2.2837 -1.4311
  101OSM    C3S10172   4.475   2.237  10.422 -0.7479  0.6982  0.3278
  101OSM    H3S10173   4.395   2.161  10.428  0.0031 -0.0982  0.3116
  101OSM     O310174   4.583   2.175  10.491 -0.1260  0.0048 -0.6030
  101OSM    HO310175   4.611   2.244  10.552 -0.0115 -0.2988 -0.3071
  101OSM    C4S10176   4.505   2.278  10.278  0.0870  0.0828  0.5989
  101OSM    H4S10177   4.419   2.260  10.213 -0.8058  0.7212  1.5942
  101OSM    C5S10178   4.621   2.335  10.231  0.4264  0.6179  0.4052
  101OSM    H5S10179   4.705   2.357  10.298 -0.3728  0.3591  1.4996
  101OSM    C6S10180   4.633   2.375  10.084  0.0456  0.2768 -0.0516
  101OSM    H6S10181   4.668   2.480  10.083  3.1927 -0.7135 -2.1770
  101OSM    H6T10182   4.534   2.371  10.033  0.4498  0.0653 -0.8199
  101OSM    C7S10183   4.737   2.304  10.005  1.1969 -0.2032  0.4775
  101OSM    H7S10184   4.721   2.194   9.997  1.1743 -0.2227  0.7634
  101OSM    H7T10185   4.835   2.319  10.056  0.7998  1.1601  0.8644
  101OSM    C8S10186   4.758   2.349   9.860 -0.5271 -0.1468 -0.3206
  101OSM    H8S10187   4.662   2.320   9.815 -0.6187  0.7145 -0.6869
  101OSM    H8T10188   4.842   2.289   9.817  0.2077 -0.4573  1.4710
  101OSM    C9S10189   4.804   2.490   9.832 -0.5352  0.1388 -0.0805
  101OSM    H9S10190   4.902   2.517   9.875  0.2674  0.7433 -2.2333
  101OSM    H9T10191   4.727   2.566   9.860 -0.3289  0.0624  0.6900
  101OSM   C10S10192   4.835   2.496   9.680 -0.4675  0.4532  0.4566
  101OSM   H10S10193   4.741   2.481   9.624  0.7556  0.5276 -1.6932
  101OSM   H10T10194   4.908   2.413   9.669  1.7545  2.5916 -1.6740
  101OSM   C11S10195   4.907   2.629   9.635 -0.0487 -0.7411  0.2989
  101OSM   H11S10196   5.005   2.634   9.687  0.0966  0.5565 -0.0918
  101OSM   H11T10197   4.860   2.725   9.662 -2.0052 -1.7844  0.6699
  101OSM   C12S10198   4.943   2.629   9.486  0.0382 -0.1572 -0.5333
  101OSM   H12S10199   4.861   2.688   9.440  0.3833  1.6203  1.0616
  101OSM   H12T10200   4.963   2.527   9.446  0.5282  0.2340 -1.2984
  101OSM   C13S10201   5.067   2.717   9.463 -0.4918  0.2549 -0.3212
  101OSM   H13S10202   5.149   2.686   9.532 -1.4678  0.3393  0.8886
  101OSM   H13T10203   5.032   2.819   9.488  1.2560  1.2513 -1.8845
  101OSM   C14S10204   5.122   2.712   9.315 -0.5116 -0.4255  0.9465
  101OSM   H14S10205   5.040   2.749   9.250 -0.6059  0.4148  1.5219
  101OSM   H14T10206   5.151   2.608   9.293 -0.4890 -0.3286  0.5190
  101OSM   C15S10207   5.249   2.798   9.308 -0.5550 -0.3163  0.1979
  101OSM   H15S10208   5.315   2.763   9.226 -2.8311  0.5074 -2.0873
  101OSM   H15T10209   5.301   2.796   9.406 -0.6420  0.3594  0.2605
  101OSM   C16S10210   5.210   2.944   9.268 -0.0803 -0.1717 -0.1744
  101OSM   H16S10211   5.133   2.975   9.342  0.9995  1.0121  0.4777
  101OSM   H16T10212   5.170   2.954   9.165 -1.1644 -2.3316  0.0235
  101OSM   C17S10213   5.337   3.047   9.267  0.8516 -0.1291  0.2523
  101OSM   H17S10214   5.377   3.040   9.370 -0.8527  1.0630  1.0014
  101OSM   H17T10215   5.296   3.149   9.251  1.8461 -0.0340 -1.8076
  101OSM   C18S10216   5.440   3.005   9.154  0.5870  0.0386 -0.4898
  101OSM   H18S10217   5.386   2.995   9.058  2.7060 -2.0907 -1.5194
  101OSM   H18T10218   5.498   2.912   9.173 -2.6348 -1.3848  3.1531
  101OSM   H18U10219   5.520   3.082   9.141  0.3337  0.4784  0.4938
  101OSM    C1F10220   4.282   2.568  10.442  0.2304 -0.1858 -0.5723
  101OSM     OF10221   4.362   2.640  10.501  0.1934 -0.3129 -0.2908
  101OSM    C2F10222   4.159   2.626  10.368 -0.1373 -0.2492  0.0589
  101OSM    H2F10223   4.071   2.632  10.436  0.9202  2.1960  1.2566
  101OSM    H2G10224   4.126   2.558  10.287  3.9462 -3.3597  0.8641
  101OSM    C3F10225   4.186   2.768  10.301 -0.4882 -0.5634  0.4804
  101OSM    H3F10226   4.231   2.833  10.379 -1.3247  0.0575  0.4488
  101OSM    H3G10227   4.086   2.810  10.279 -0.1521  0.7854  1.4513
  101OSM    C4F10228   4.286   2.765  10.190  0.6440  0.1448 -0.4076
  101OSM    H4F10229   4.375   2.709  10.224 -0.8296 -1.5533  0.7568
  101OSM    H4G10230   4.306   2.872  10.169  3.5994 -0.1955  0.5136
  101OSM    C5F10231   4.228   2.694  10.063  0.1539  0.3992  0.4090
  101OSM    H5F10232   4.135   2.749  10.038 -0.6247 -0.5744  1.1279
  101OSM    H5G10233   4.185   2.595  10.090 -2.6358  1.8329  1.4895
  101OSM    C6F10234   4.330   2.675   9.952 -0.2271  0.4268  1.2993
  101OSM    H6F10235   4.435   2.667   9.986 -0.1867 -0.0460  1.0707
  101OSM    H6G10236   4.332   2.765   9.886 -1.2768 -0.4692  0.0215
  101OSM    C7F10237   4.303   2.544   9.863 -0.5305 -0.2205  0.1374
  101OSM    H7F10238   4.204   2.545   9.813  0.4279  1.5080 -1.8056
  101OSM    H7G10239   4.306   2.453   9.926  0.0906 -1.8983 -2.2302
  101OSM    C8F10240   4.414   2.526   9.761  0.1650 -0.3333 -0.0637
  101OSM    H8F10241   4.399   2.421   9.725 -1.5128 -0.2269  0.3368
  101OSM    H8G10242   4.514   2.531   9.810  0.0722  3.1835 -0.1065
  101OSM    C9F10243   4.407   2.619   9.640  0.0882 -0.0169 -0.2579
  101OSM    H9F10244   4.450   2.715   9.671 -0.9689 -0.5171  2.9589
  101OSM   C10F10245   4.365   2.605   9.509  0.4996 -0.8300 -0.2912
  101OSM   H10F10246   4.389   2.681   9.433  1.3525 -1.3584 -0.5599
  101OSM   C11F10247   4.307   2.480   9.448  0.7934 -0.4602 -0.3270
  101OSM   H11F10248   4.198   2.476   9.466  0.7978 -1.7047 -0.5688
  101OSM   H11G10249   4.354   2.395   9.502 -0.1166 -0.5187  0.3633
  101OSM   C12F10250   4.308   2.474   9.294 -0.4673  0.4960 -0.1559
  101OSM   H12F10251   4.270   2.377   9.255 -2.8971  1.2412  0.2917
  101OSM   H12G10252   4.416   2.472   9.266 -0.7623 -1.5635 -1.2465
  101OSM   C13F10253   4.223   2.579   9.226 -0.1232  0.4292  0.5068
  101OSM   H13F10254   4.250   2.682   9.257  0.1449  0.7924 -0.8735
  101OSM   H13G10255   4.118   2.573   9.262 -0.0960 -0.1966  0.4936
  101OSM   C14F10256   4.233   2.555   9.075 -0.0996 -0.6086 -0.3104
  101OSM   H14F10257   4.184   2.457   9.058  1.2820 -1.0679 -1.8520
  101OSM   H14G10258   4.336   2.523   9.047  0.1113  2.0121 -2.8280
  101OSM   C15F10259   4.177   2.666   8.986  0.3121  0.0305 -0.0083
  101OSM   H15F10260   4.258   2.742   8.976  0.6140 -0.3158 -0.2053
  101OSM   H15G10261   4.090   2.716   9.033  0.0897  0.2462 -0.6486
  101OSM   C16F10262   4.132   2.615   8.846 -0.6888  0.1084  0.5858
  101OSM   H16F10263   4.041   2.553   8.850  1.4437 -3.2492 -0.6254
  101OSM   H16G10264   4.210   2.543   8.815  0.8262  1.7295  0.4950
  101OSM   C17F10265   4.123   2.728   8.741  0.4442  0.1211  0.1025
  101OSM   H17F10266   4.056   2.806   8.782 -1.1063 -1.2231  0.1917
  101OSM   H17G10267   4.065   2.678   8.661  1.7773  2.1611 -2.2077
  101OSM   C18F10268   4.261   2.793   8.702 -0.5561  0.6779  0.2940
  101OSM   H18F10269   4.251   2.883   8.638 -2.0203 -0.1234 -0.6453
  101OSM   H18G10270   4.325   2.716   8.654 -1.1044 -0.2866  1.0917
  101OSM   H18H10271   4.316   2.817   8.795 -2.0095 -1.5255  1.7789
  102OSM      N10272   3.955   1.707  10.929 -0.2645 -0.4993 -0.0629
  102OSM    C1510273   4.047   1.624  11.008  0.7192 -0.3535 -0.0497
  102OSM   H15A10274   4.012   1.606  11.108  1.3046  0.0716  0.2309
  102OSM   H15B10275   4.143   1.671  11.020  0.1388  0.8052  0.1873
  102OSM   H15C10276   4.073   1.529  10.964 -2.2049 -1.2332  0.0225
  102OSM    C1410277   3.821   1.648  10.916  0.1207  0.2062 -0.2749
  102OSM   H14A10278   3.812   1.561  10.853 -1.4262  0.6567 -0.6926
  102OSM   H14B10279   3.750   1.720  10.878 -1.2293 -0.5909  0.7157
  102OSM   H14C10280   3.787   1.614  11.013 -0.2097  1.0252 -0.1019
  102OSM    C1310281   3.930   1.837  10.997  0.4536 -0.1986  0.1954
  102OSM   H13A10282   4.016   1.900  10.986  1.0821 -0.9373  0.8081
  102OSM   H13B10283   3.910   1.841  11.103  1.1823  0.4937  0.3054
  102OSM   H13C10284   3.840   1.871  10.948 -2.0244 -4.8123  1.2818
  102OSM    C1210285   4.018   1.739  10.792 -0.2745  0.3556  0.2202
  102OSM   H12A10286   4.021   1.647  10.736 -0.9342 -0.2635  1.1746
  102OSM   H12B10287   4.122   1.763  10.809  0.2991 -0.8393 -1.4711
  102OSM    C1110288   3.944   1.846  10.705 -0.4663  0.6063  0.1820
  102OSM   H11A10289   3.835   1.830  10.722  0.1490 -0.9093  2.9811
  102OSM   H11B10290   3.972   1.827  10.600 -0.4738  1.1688  0.0722
  102OSM      P10291   4.123   2.035  10.726  0.0768  0.0960 -0.5439
  102OSM    O1310292   4.119   2.180  10.760 -0.4184  0.0801 -0.4502
  102OSM    O1410293   4.233   1.956  10.788  0.4312 -0.1155 -0.3295
  102OSM    O1110294   4.153   2.010  10.569  0.2766 -0.1084 -0.4373
  102OSM    O1210295   3.981   1.970  10.752  0.0056  0.0606  0.2687
  102OSM    C1S10296   4.080   2.087  10.476  0.3904  0.0609  0.3432
  102OSM    H1S10297   4.118   2.191  10.485 -1.4883  0.7426  0.5233
  102OSM    H1T10298   3.971   2.087  10.497  0.2021 -0.2676 -0.5952
  102OSM     NF10299   4.008   2.122  10.248 -0.0130 -0.3081 -0.1236
  102OSM    HNF10300   3.911   2.105  10.235 -0.3640  1.1400  0.5404
  102OSM    C2S10301   4.094   2.034  10.327  0.0531  0.4133  0.0719
  102OSM    H2S10302   4.194   2.059  10.287  0.2084 -0.4800 -0.1252
  102OSM    C3S10303   4.061   1.879  10.314  0.1684 -0.4417  0.5375
  102OSM    H3S10304   3.954   1.868  10.344  0.2455 -0.3645  0.8393
  102OSM     O310305   4.136   1.801  10.399 -0.0999  1.0366 -0.7653
  102OSM    HO310306   4.168   1.867  10.460  0.1933  0.2922 -0.1128
  102OSM    C4S10307   4.072   1.836  10.167 -0.7188 -0.0352 -0.4483
  102OSM    H4S10308   4.151   1.883  10.105  0.1949  1.4411  1.7514
  102OSM    C5S10309   3.989   1.743  10.108 -0.1118 -0.2989  0.1947
  102OSM    H5S10310   3.903   1.706  10.165  0.6074 -0.2497  1.3402
  102OSM    C6S10311   4.003   1.692   9.971 -0.3957  0.2434  0.8476
  102OSM    H6S10312   3.985   1.583   9.967  1.0754  0.0470 -1.0897
  102OSM    H6T10313   4.109   1.696   9.937 -0.0066  1.4501  2.1736
  102OSM    C7S10314   3.911   1.764   9.872  0.6886 -0.1399  0.1878
  102OSM    H7S10315   3.937   1.870   9.853 -0.1613 -0.6207 -4.2262
  102OSM    H7T10316   3.809   1.761   9.917 -0.3132 -0.7908 -2.0407
  102OSM    C8S10317   3.885   1.689   9.738  0.0346 -0.4966  0.2918
  102OSM    H8S10318   3.794   1.725   9.687 -0.3934  1.4748  2.3643
  102OSM    H8T10319   3.873   1.579   9.744 -0.3587 -0.5703 -1.6961
  102OSM    C9S10320   4.013   1.702   9.653 -0.2312  0.7263  0.1089
  102OSM    H9S10321   4.087   1.624   9.680  1.3991  2.5895  1.1416
  102OSM    H9T10322   4.051   1.806   9.654  0.2087  0.5615  1.5930
  102OSM   C10S10323   3.993   1.674   9.503 -0.1553  0.5676  0.1861
  102OSM   H10S10324   3.934   1.759   9.461 -0.6479 -0.1861 -0.6721
  102OSM   H10T10325   3.929   1.583   9.497 -2.2533  2.1078 -1.9134
  102OSM   C11S10326   4.131   1.671   9.432  1.0055  0.2951  0.3069
  102OSM   H11S10327   4.172   1.569   9.449 -0.0563 -0.1120  0.4818
  102OSM   H11T10328   4.191   1.757   9.469  0.1885  2.1254 -2.4978
  102OSM   C12S10329   4.109   1.689   9.280  0.9146 -0.0313  0.0429
  102OSM   H12S10330   4.083   1.797   9.274 -0.1333 -0.4183 -3.0848
  102OSM   H12T10331   4.026   1.625   9.244  0.4449  1.1524 -1.0141
  102OSM   C13S10332   4.235   1.655   9.207 -0.3207 -0.6872  0.4909
  102OSM   H13S10333   4.255   1.549   9.235 -1.6049 -1.4670 -1.4403
  102OSM   H13T10334   4.317   1.720   9.245 -1.2149  0.9156 -0.2894
  102OSM   C14S10335   4.231   1.666   9.050 -0.5931 -0.1359 -0.5412
  102OSM   H14S10336   4.175   1.578   9.013 -1.9207  0.8312 -0.8909
  102OSM   H14T10337   4.335   1.678   9.014 -0.1850  1.2783  1.0749
  102OSM   C15S10338   4.180   1.801   9.000 -0.3332  0.3804  0.2864
  102OSM   H15S10339   4.249   1.879   9.038  0.1898  0.4327 -0.7531
  102OSM   H15T10340   4.081   1.824   9.046 -0.5469  0.0037  0.0225
  102OSM   C16S10341   4.162   1.824   8.846 -0.7350  0.4370  0.0321
  102OSM   H16S10342   4.117   1.923   8.826  0.7871  1.3795  1.1992
  102OSM   H16T10343   4.088   1.743   8.825  0.8474 -0.1799 -3.4083
  102OSM   C17S10344   4.290   1.809   8.762  0.2189 -0.0009  0.5764
  102OSM   H17S10345   4.331   1.707   8.778 -1.6544 -0.6541  1.3851
  102OSM   H17T10346   4.362   1.887   8.792 -1.2055  2.1769 -1.4534
  102OSM   C18S10347   4.268   1.814   8.612  0.2492  0.3821  0.5303
  102OSM   H18S10348   4.255   1.921   8.584 -1.3184  0.1399  0.2930
  102OSM   H18T10349   4.177   1.765   8.572  1.4840 -1.1051 -0.4962
  102OSM   H18U10350   4.354   1.782   8.550 -1.0959  0.2296 -1.3034
  102OSM    C1F10351   4.046   2.247  10.222 -0.4463  0.5381 -0.7797
  102OSM     OF10352   4.159   2.294  10.256 -0.4105 -0.4964  0.0511
  102OSM    C2F10353   3.943   2.328  10.146 -0.3839 -0.9291  1.1765
  102OSM    H2F10354   3.931   2.425  10.199  3.2909  0.5986 -0.5968
  102OSM    H2G10355   3.846   2.275  10.155 -1.2732  0.3605 -0.5248
  102OSM    C3F10356   3.980   2.363  10.001  0.6882  0.5989  0.2417
  102OSM    H3F10357   4.086   2.392  10.006  0.7844  0.8723 -2.4971
  102OSM    H3G10358   3.928   2.455   9.968  0.0771 -0.0640 -0.7019
  102OSM    C4F10359   3.962   2.252   9.897 -0.2772  0.2267 -0.4503
  102OSM    H4F10360   3.859   2.212   9.906  0.2689 -1.2749 -0.7721
  102OSM    H4G10361   4.033   2.167   9.913 -0.5552 -0.0722 -0.7992
  102OSM    C5F10362   3.983   2.290   9.747  0.4950 -0.2745 -0.7061
  102OSM    H5F10363   4.070   2.360   9.745  0.4782 -0.2251  0.0543
  102OSM    H5G10364   3.896   2.352   9.717 -0.1677 -0.3723  0.9349
  102OSM    C6F10365   4.001   2.168   9.655  0.1833 -0.1423  1.3046
  102OSM    H6F10366   3.919   2.095   9.668  1.1251 -0.8238  3.6141
  102OSM    H6G10367   4.095   2.115   9.679  1.2952  0.4021 -1.5560
  102OSM    C7F10368   4.010   2.211   9.501  0.0852  0.0042 -0.6363
  102OSM    H7F10369   4.095   2.280   9.483  1.4992 -1.9179 -1.4347
  102OSM    H7G10370   3.909   2.241   9.464 -1.1601 -1.6900  1.2510
  102OSM    C8F10371   4.052   2.094   9.420  1.1109 -0.4866 -0.3370
  102OSM    H8F10372   3.963   2.027   9.415  0.5758  0.0969  1.2661
  102OSM    H8G10373   4.129   2.033   9.471  0.4175 -0.8113  0.3349
  102OSM    C9F10374   4.103   2.124   9.280  0.2871  0.5530  0.3142
  102OSM    H9F10375   4.212   2.119   9.265  0.1153 -0.3827 -0.6218
  102OSM   C10F10376   4.035   2.158   9.174 -0.3737  0.1804  0.5105
  102OSM   H10F10377   4.086   2.191   9.083 -1.3692  1.7082  0.4810
  102OSM   C11F10378   3.884   2.161   9.161 -0.0511 -0.0370  0.1354
  102OSM   H11F10379   3.833   2.200   9.252 -1.7105 -1.6451 -0.0821
  102OSM   H11G10380   3.852   2.057   9.141 -1.0620  0.6135 -1.7707
  102OSM   C12F10381   3.828   2.255   9.040 -0.2635 -0.1882  0.0880
  102OSM   H12F10382   3.850   2.357   9.077 -0.3439 -0.1539  0.0413
  102OSM   H12G10383   3.718   2.239   9.042 -0.8824  3.5458  3.9073
  102OSM   C13F10384   3.895   2.241   8.903 -0.9776 -0.7288  0.0296
  102OSM   H13F10385   4.003   2.263   8.919 -1.7308  2.0159  1.5753
  102OSM   H13G10386   3.857   2.308   8.824  1.2772  2.2060  1.3273
  102OSM   C14F10387   3.887   2.103   8.838  0.2549  0.0868 -0.4175
  102OSM   H14F10388   3.784   2.066   8.859  0.2898  0.8522  1.1528
  102OSM   H14G10389   3.950   2.035   8.899 -1.8740  0.1221  1.8976
  102OSM   C15F10390   3.924   2.094   8.683 -0.8562 -0.0813  0.0172
  102OSM   H15F10391   4.034   2.107   8.684 -0.8241 -0.3480  0.1932
  102OSM   H15G10392   3.875   2.179   8.631  1.8022  1.6875  0.3087
  102OSM   C16F10393   3.876   1.967   8.619  0.1428 -0.5839  0.4065
  102OSM   H16F10394   3.765   1.968   8.619  0.1235 -1.3759  1.7705
  102OSM   H16G10395   3.901   1.876   8.678  0.5469 -0.7946 -0.0852
  102OSM   C17F10396   3.932   1.951   8.473 -0.7520 -0.1973 -0.3667
  102OSM   H17F10397   3.949   1.843   8.453 -1.7134 -0.5685  0.7778
  102OSM   H17G10398   4.038   1.986   8.470 -0.6708 -0.3911  0.1119
  102OSM   C18F10399   3.857   2.019   8.362  0.2188  0.2302  0.1169
  102OSM   H18F10400   3.916   2.080   8.291  1.8150 -0.8303  0.5224
  102OSM   H18G10401   3.779   2.090   8.396 -1.6183 -0.0287 -3.3315
  102OSM   H18H10402   3.811   1.944   8.295  1.5902  0.1116 -0.7053
  103OSM      N10403   5.854   4.634  11.102  0.0781 -0.2492 -0.4246
  103OSM    C1510404   5.787   4.504  11.085 -0.1278  0.3480 -0.5856
  103OSM   H15A10405   5.842   4.434  11.025 -2.6497 -2.2992  0.0718
  103OSM   H15B10406   5.697   4.529  11.031  0.5704 -0.0933 -1.9678
  103OSM   H15C10407   5.754   4.453  11.174 -0.4836  2.2193  0.3832
  103OSM    C1410408   5.767   4.733  11.171 -0.1162 -0.3719  0.2617
  103OSM   H14A10409   5.686   4.758  11.103  0.1963  1.2565  0.4604
  103OSM   H14B10410   5.816   4.828  11.187  3.4964 -2.1408  0.2323
  103OSM   H14C10411   5.728   4.692  11.263  1.8795 -0.3610  1.1285
  103OSM    C1310412   5.974   4.613  11.189 -0.3308  0.8809 -0.2253
  103OSM   H13A10413   6.029   4.705  11.205 -0.1864  1.6164 -4.3377
  103OSM   H13B10414   6.034   4.539  11.138 -0.5111  1.0584 -0.7003
  103OSM   H13C10415   5.946   4.559  11.278 -0.2829  0.0662 -0.7031
  103OSM    C1210416   5.894   4.681  10.964 -0.2458  0.3779  0.2563
  103OSM   H12A10417   5.950   4.605  10.913  1.7211  1.1174  1.2545
  103OSM   H12B10418   5.949   4.771  10.988 -0.5666  0.2086  1.6714
  103OSM    C1110419   5.775   4.722  10.869 -0.9934  0.4915  0.0794
  103OSM   H11A10420   5.699   4.642  10.856 -0.3673 -0.3497  1.5643
  103OSM   H11B10421   5.827   4.735  10.772 -0.4097 -2.9091 -0.1046
  103OSM      P10422   5.743   4.981  10.884  0.2904 -0.2367 -0.1912
  103OSM    O1310423   5.623   5.062  10.908  0.5060 -0.4510  0.6375
  103OSM    O1410424   5.861   5.013  10.968  0.0437  0.4179 -0.4317
  103OSM    O1110425   5.781   4.976  10.729 -0.1946 -0.2252  0.0255
  103OSM    O1210426   5.701   4.832  10.914 -0.4305  0.1853 -0.5039
  103OSM    C1S10427   5.677   4.965  10.634 -0.2844  0.3125  0.4501
  103OSM    H1S10428   5.616   5.057  10.649  1.0910  1.5704 -1.5120
  103OSM    H1T10429   5.628   4.866  10.640 -0.3151  0.3459  0.7875
  103OSM     NF10430   5.614   5.029  10.405  0.6577  0.3013 -0.3050
  103OSM    HNF10431   5.578   4.969  10.334  1.1109  0.7175 -0.8869
  103OSM    C2S10432   5.727   4.982  10.485 -0.0777 -0.3540  0.1716
  103OSM    H2S10433   5.810   5.055  10.480  1.3209 -1.7890  1.8820
  103OSM    C3S10434   5.800   4.851  10.441  0.4545  0.2324  0.1108
  103OSM    H3S10435   5.735   4.763  10.457  0.7987 -0.1660 -0.6190
  103OSM     O310436   5.906   4.819  10.530  0.0888  0.1039  0.2705
  103OSM    HO310437   5.885   4.871  10.607  1.3460  1.0432  0.0108
  103OSM    C4S10438   5.840   4.857  10.300 -0.1916  0.5056  0.4983
  103OSM    H4S10439   5.759   4.816  10.237 -0.7921  1.7479  0.4345
  103OSM    C5S10440   5.957   4.898  10.246  0.2297  0.4778  1.0753
  103OSM    H5S10441   6.039   4.942  10.306  2.0986  0.1332 -1.1241
  103OSM    C6S10442   5.994   4.895  10.096  0.1313  0.3211  0.6006
  103OSM    H6S10443   6.103   4.870  10.090  0.2151  0.7115  0.5000
  103OSM    H6T10444   5.993   4.997  10.053 -3.3361  0.7676  1.6397
  103OSM    C7S10445   5.908   4.812   9.995  0.1595 -0.8490 -0.0013
  103OSM    H7S10446   5.811   4.857   9.966  1.2127 -0.2483 -2.7465
  103OSM    H7T10447   5.882   4.712  10.037  0.8453 -1.1133 -0.2004
  103OSM    C8S10448   5.993   4.784   9.866  0.5897  0.5524  0.5514
  103OSM    H8S10449   6.082   4.734   9.909  1.6898  0.2830 -1.9503
  103OSM    H8T10450   6.033   4.878   9.821 -0.5210  1.1055  0.6975
  103OSM    C9S10451   5.926   4.694   9.758 -0.1177  0.3020  0.6568
  103OSM    H9S10452   5.987   4.707   9.667 -1.4114  0.6496 -0.1791
  103OSM    H9T10453   5.835   4.748   9.723 -0.3550  0.3067  1.2616
  103OSM   C10S10454   5.898   4.548   9.790  0.0610  0.0455 -0.3025
  103OSM   H10S10455   5.857   4.535   9.892 -1.2987 -0.4455 -0.8982
  103OSM   H10T10456   5.991   4.488   9.792 -0.7373 -1.1896  0.7232
  103OSM   C11S10457   5.814   4.471   9.688  0.0703  0.6599 -0.5889
  103OSM   H11S10458   5.819   4.361   9.708 -0.7361  0.2987 -2.2863
  103OSM   H11T10459   5.849   4.486   9.584  0.1934  0.5864 -0.5595
  103OSM   C12S10460   5.668   4.497   9.702 -0.0791  0.2483  0.2510
  103OSM   H12S10461   5.657   4.591   9.761 -3.0298 -0.4123  0.8119
  103OSM   H12T10462   5.627   4.414   9.763 -0.0103 -0.2804 -0.4101
  103OSM   C13S10463   5.578   4.524   9.576 -0.0436 -0.2745  0.0580
  103OSM   H13S10464   5.562   4.424   9.530 -1.0884  0.5838 -1.4998
  103OSM   H13T10465   5.632   4.580   9.497 -1.6356  1.0631 -0.1281
  103OSM   C14S10466   5.437   4.583   9.601  0.2362  0.2856  0.0118
  103OSM   H14S10467   5.462   4.687   9.631  0.6967  0.7856 -2.0423
  103OSM   H14T10468   5.397   4.522   9.685  1.2729 -1.0651 -0.4632
  103OSM   C15S10469   5.356   4.587   9.480  0.6428  0.4708  0.3056
  103OSM   H15S10470   5.320   4.487   9.448 -0.3425  0.9749 -0.1708
  103OSM   H15T10471   5.424   4.623   9.399 -0.1106  1.0712 -0.0677
  103OSM   C16S10472   5.238   4.689   9.480 -0.8132  0.8713 -0.7579
  103OSM   H16S10473   5.267   4.792   9.512  3.2764 -1.1388  2.3701
  103OSM   H16T10474   5.170   4.645   9.556  0.3078 -0.3035 -0.4412
  103OSM   C17S10475   5.166   4.691   9.338  0.2995 -0.7846  0.0654
  103OSM   H17S10476   5.057   4.707   9.341  0.3442 -0.4143 -0.3016
  103OSM   H17T10477   5.194   4.597   9.284 -1.7252 -0.6003 -1.3551
  103OSM   C18S10478   5.214   4.809   9.253 -1.0772 -0.0823  0.2597
  103OSM   H18S10479   5.321   4.795   9.225 -1.9154 -2.1343 -2.0803
  103OSM   H18T10480   5.193   4.913   9.284  1.1169 -0.1679  2.1621
  103OSM   H18U10481   5.155   4.806   9.160 -0.5802  3.3887 -0.2174
  103OSM    C1F10482   5.577   5.153  10.405  0.2269 -0.1902 -0.9064
  103OSM     OF10483   5.617   5.230  10.491  0.2244  0.5426 -0.5772
  103OSM    C2F10484   5.481   5.197  10.301 -0.1110 -0.1031 -0.3079
  103OSM    H2F10485   5.404   5.266  10.340  0.8575  1.2962 -0.8131
  103OSM    H2G10486   5.424   5.105  10.274  0.0578 -0.9772  2.1614
  103OSM    C3F10487   5.539   5.257  10.173  0.0436  0.5593  0.7103
  103OSM    H3F10488   5.592   5.352  10.197 -1.1706  1.0040  1.6756
  103OSM    H3G10489   5.458   5.290  10.105  0.1966 -0.6636 -0.0810
  103OSM    C4F10490   5.631   5.152  10.097  1.6151  0.2314  0.1434
  103OSM    H4F10491   5.567   5.063  10.081 -1.0509  1.9922  0.5711
  103OSM    H4G10492   5.720   5.134  10.162  1.3674 -2.6866 -0.2652
  103OSM    C5F10493   5.686   5.206   9.968 -0.5881 -0.4662 -0.0165
  103OSM    H5F10494   5.758   5.131   9.929 -2.1933 -0.6572 -2.7192
  103OSM    H5G10495   5.728   5.308   9.981  0.0492 -0.5215 -1.5938
  103OSM    C6F10496   5.584   5.237   9.858  0.3689 -0.7285  0.6859
  103OSM    H6F10497   5.524   5.326   9.885  2.3746  1.4752 -1.8461
  103OSM    H6G10498   5.512   5.153   9.844 -0.0894  0.0944 -2.0707
  103OSM    C7F10499   5.642   5.272   9.723 -0.0755 -0.5383 -0.3492
  103OSM    H7F10500   5.689   5.372   9.717 -0.6130 -0.3840 -2.5575
  103OSM    H7G10501   5.557   5.279   9.651  0.7715  0.6955 -1.2457
  103OSM    C8F10502   5.729   5.168   9.655 -0.0160  0.7009 -0.4423
  103OSM    H8F10503   5.829   5.161   9.702  0.7071  0.3134 -1.9967
  103OSM    H8G10504   5.758   5.220   9.561  0.7661 -0.3516 -0.7848
  103OSM    C9F10505   5.666   5.036   9.634 -0.9182  0.0984  0.3013
  103OSM    H9F10506   5.665   4.978   9.728  0.6431  0.7851  0.7537
  103OSM   C10F10507   5.617   4.983   9.518  0.4029  0.1863  0.0362
  103OSM   H10F10508   5.571   4.883   9.519  1.2331 -0.2187 -1.7428
  103OSM   C11F10509   5.623   5.051   9.384 -1.0668  0.6634  0.0907
  103OSM   H11F10510   5.691   4.999   9.314 -1.5555 -0.7583  0.6457
  103OSM   H11G10511   5.658   5.156   9.395  0.4017  0.0440  1.5685
  103OSM   C12F10512   5.490   5.073   9.314  0.0239 -0.0739  0.1339
  103OSM   H12F10513   5.437   5.153   9.370  0.1656 -0.6490  1.0933
  103OSM   H12G10514   5.429   4.981   9.328 -1.3729  0.7221 -0.6059
  103OSM   C13F10515   5.492   5.108   9.165 -0.3290  0.5603 -0.3028
  103OSM   H13F10516   5.593   5.151   9.147  0.4128 -0.6656  0.8589
  103OSM   H13G10517   5.477   5.010   9.113  0.5680  0.4647 -0.3854
  103OSM   C14F10518   5.385   5.213   9.131  0.5414 -0.0158  0.1148
  103OSM   H14F10519   5.413   5.311   9.173 -0.3125  0.1394  0.3217
  103OSM   H14G10520   5.294   5.170   9.177  1.1264  0.4996  1.7560
  103OSM   C15F10521   5.363   5.235   8.980  0.4467 -0.9536 -0.0993
  103OSM   H15F10522   5.302   5.150   8.942  0.8777 -2.0729  1.6524
  103OSM   H15G10523   5.460   5.226   8.928  1.2989  1.7754  0.9357
  103OSM   C16F10524   5.304   5.364   8.928 -0.4786  0.5049 -0.8158
  103OSM   H16F10525   5.200   5.377   8.965 -0.2082 -1.7778  0.8935
  103OSM   H16G10526   5.298   5.364   8.817  1.5183  1.3795 -0.9325
  103OSM   C17F10527   5.376   5.496   8.964 -0.5396 -0.0291  0.5191
  103OSM   H17F10528   5.485   5.488   8.947 -0.5864  0.3061  0.0778
  103OSM   H17G10529   5.366   5.520   9.072 -0.8469 -0.8022  0.6661
  103OSM   C18F10530   5.347   5.617   8.885 -0.0331 -0.4913  0.2906
  103OSM   H18F10531   5.393   5.600   8.786 -0.3587 -0.3439  0.1124
  103OSM   H18G10532   5.405   5.708   8.910  1.4331 -0.7910 -1.8667
  103OSM   H18H10533   5.239   5.642   8.878 -0.1522 -0.6391  1.4842
  104OSM      N10534   1.995   4.033  10.880 -0.0395  0.8420 -0.1991
  104OSM    C1510535   2.091   3.916  10.857 -0.0885  0.2205 -0.5485
  104OSM   H15A10536   2.051   3.860  10.774 -1.0263  1.7453 -1.1346
  104OSM   H15B10537   2.097   3.852  10.944 -3.9102  0.4712 -0.0386
  104OSM   H15C10538   2.189   3.953  10.830  0.4842 -0.5455  0.4261
  104OSM    C1410539   1.855   3.980  10.909 -0.3970 -0.3784 -0.6797
  104OSM   H14A10540   1.854   3.906  10.988 -1.3863  0.3062 -0.0432
  104OSM   H14B10541   1.808   3.928  10.826 -1.0437  0.9441 -1.1599
  104OSM   H14C10542   1.791   4.066  10.916 -1.4949 -1.2951  1.0510
  104OSM    C1310543   2.046   4.105  11.000 -0.1511  0.3310 -0.2110
  104OSM   H13A10544   2.151   4.125  10.990  0.1171 -2.1899 -3.3002
  104OSM   H13B10545   2.038   4.043  11.089  3.9873  0.7135  0.4904
  104OSM   H13C10546   1.997   4.196  11.031 -0.3332 -0.0846  0.7671
  104OSM    C1210547   1.995   4.121  10.757 -0.1472  0.3826  0.1248
  104OSM   H12A10548   1.917   4.195  10.765 -0.8709 -0.4414  0.8234
  104OSM   H12B10549   1.980   4.059  10.670 -0.5443  0.6030  0.0361
  104OSM    C1110550   2.128   4.187  10.722  0.3234  0.4159  0.0497
  104OSM   H11A10551   2.115   4.239  10.625  2.4090 -0.5615 -0.7779
  104OSM   H11B10552   2.212   4.114  10.726  0.3304  0.4621  0.9541
  104OSM      P10553   2.293   4.332  10.859 -0.0954  0.3229 -0.0504
  104OSM    O1310554   2.276   4.444  10.963 -0.3412 -0.4463 -0.0885
  104OSM    O1410555   2.356   4.211  10.913 -0.2500  0.8575  0.3232
  104OSM    O1110556   2.368   4.383  10.731 -0.0209  0.1502 -0.5230
  104OSM    O1210557   2.145   4.302  10.802 -0.0024 -0.9559 -0.7363
  104OSM    C1S10558   2.302   4.460  10.634  0.7994 -0.0409 -0.3422
  104OSM    H1S10559   2.287   4.560  10.682 -1.5462 -0.3828 -0.3255
  104OSM    H1T10560   2.204   4.425  10.597  0.8435 -0.5614  0.0401
  104OSM     NF10561   2.310   4.573  10.428 -0.0855  0.1039 -0.1073
  104OSM    HNF10562   2.242   4.553  10.358 -0.4758 -0.3885  0.4074
  104OSM    C2S10563   2.377   4.471  10.500 -0.3374 -0.8941 -0.5057
  104OSM    H2S10564   2.484   4.497  10.516 -0.0755 -0.9619 -2.0377
  104OSM    C3S10565   2.385   4.334  10.436  0.6013 -0.8243  0.1747
  104OSM    H3S10566   2.288   4.284  10.414 -1.2500  2.1989  1.1433
  104OSM     O310567   2.444   4.244  10.525  0.0642  0.4753  0.4758
  104OSM    HO310568   2.435   4.286  10.611 -0.7603  1.3233 -0.0126
  104OSM    C4S10569   2.460   4.331  10.299  0.3942  0.0211  0.3721
  104OSM    H4S10570   2.404   4.380  10.218 -2.3146 -1.6515  1.1958
  104OSM    C5S10571   2.581   4.282  10.270 -1.0882  0.4463 -0.2597
  104OSM    H5S10572   2.636   4.249  10.360  1.1483  3.3890 -0.4719
  104OSM    C6S10573   2.654   4.291  10.143  0.0681 -0.2467  0.0759
  104OSM    H6S10574   2.714   4.200  10.125 -0.2663 -0.4939  0.2017
  104OSM    H6T10575   2.726   4.375  10.152  0.4007 -0.5650  0.3925
  104OSM    C7S10576   2.558   4.310  10.024 -0.8033 -0.2512 -0.8335
  104OSM    H7S10577   2.499   4.404  10.030 -0.8586 -0.1687 -2.4463
  104OSM    H7T10578   2.495   4.219  10.029  0.1989 -0.9140 -0.0975
  104OSM    C8S10579   2.642   4.321   9.896 -0.8551 -0.8212 -0.1482
  104OSM    H8S10580   2.722   4.244   9.893 -1.0234 -1.0007  0.0183
  104OSM    H8T10581   2.703   4.414   9.896 -1.2064 -0.5554 -2.5493
  104OSM    C9S10582   2.574   4.288   9.761 -0.5205  0.1500  0.2052
  104OSM    H9S10583   2.477   4.340   9.746  0.2818  1.0736 -2.1362
  104OSM    H9T10584   2.564   4.177   9.759  2.5858 -0.1864  1.4714
  104OSM   C10S10585   2.664   4.330   9.643  0.3154  0.7738 -0.3620
  104OSM   H10S10586   2.767   4.298   9.669  0.5867  1.7555 -0.2021
  104OSM   H10T10587   2.653   4.441   9.648 -0.2781  0.7653 -1.3744
  104OSM   C11S10588   2.616   4.287   9.501  0.0417 -0.1578 -0.2978
  104OSM   H11S10589   2.507   4.307   9.494  0.2622  0.3372 -2.5967
  104OSM   H11T10590   2.626   4.178   9.489  0.0220  0.0908 -2.6799
  104OSM   C12S10591   2.687   4.351   9.388 -0.3129  0.0853  0.1818
  104OSM   H12S10592   2.784   4.298   9.379  0.7404  1.9167  0.4453
  104OSM   H12T10593   2.705   4.459   9.405 -1.3120  0.1977  0.5685
  104OSM   C13S10594   2.627   4.326   9.248  0.8986  1.0452 -0.6167
  104OSM   H13S10595   2.686   4.392   9.181  0.4211  2.5406  0.3962
  104OSM   H13T10596   2.518   4.347   9.240  0.6440  0.7458  1.6059
  104OSM   C14S10597   2.647   4.179   9.196 -0.1916  0.3029  0.0229
  104OSM   H14S10598   2.607   4.111   9.273  1.2037 -0.4252  0.1230
  104OSM   H14T10599   2.757   4.165   9.187 -0.3700 -0.4344 -1.1626
  104OSM   C15S10600   2.583   4.154   9.058  0.0260  0.3555 -0.2903
  104OSM   H15S10601   2.629   4.229   8.990  1.6775  0.0402  0.4546
  104OSM   H15T10602   2.473   4.171   9.064  0.2197  1.7560 -0.5827
  104OSM   C16S10603   2.605   4.013   9.003 -0.3944 -0.8125  0.4582
  104OSM   H16S10604   2.516   3.980   8.945 -1.1712 -0.4961  1.4514
  104OSM   H16T10605   2.602   3.940   9.086  1.4701 -0.5664  0.7524
  104OSM   C17S10606   2.736   4.003   8.926 -0.1621  1.0453 -0.5174
  104OSM   H17S10607   2.821   4.044   8.985 -0.1419 -0.0957  0.2574
  104OSM   H17T10608   2.728   4.066   8.835 -0.4564 -0.6242 -1.6728
  104OSM   C18S10609   2.760   3.855   8.874 -0.4885  0.3434 -0.4479
  104OSM   H18S10610   2.837   3.858   8.793 -1.2449  0.6919 -1.1666
  104OSM   H18T10611   2.666   3.816   8.828 -1.0589 -0.4364  1.3508
  104OSM   H18U10612   2.791   3.786   8.954  0.0564 -0.3136 -1.2210
  104OSM    C1F10613   2.313   4.702  10.466  0.0319  0.4738  0.0084
  104OSM     OF10614   2.397   4.748  10.540  0.3390 -0.1087 -0.0943
  104OSM    C2F10615   2.218   4.801  10.395  0.1352  1.0541  0.5563
  104OSM    H2F10616   2.184   4.870  10.476  0.1300  2.4768 -0.6439
  104OSM    H2G10617   2.130   4.745  10.356  2.0515 -1.2765 -0.5507
  104OSM    C3F10618   2.289   4.874  10.276  0.3316  0.1542  0.5540
  104OSM    H3F10619   2.217   4.946  10.232 -0.0748 -0.7670 -0.3129
  104OSM    H3G10620   2.309   4.791  10.205  1.3651 -1.4463  2.6522
  104OSM    C4F10621   2.409   4.961  10.313 -1.1750 -0.5003 -0.5111
  104OSM    H4F10622   2.497   4.900  10.343 -0.7237  0.3775 -0.0252
  104OSM    H4G10623   2.382   5.008  10.410  0.7289 -1.7797  0.6715
  104OSM    C5F10624   2.435   5.080  10.222  0.1118  0.0247  0.0932
  104OSM    H5F10625   2.507   5.155  10.260 -0.7453  0.9743 -0.1595
  104OSM    H5G10626   2.333   5.121  10.213  1.0821  2.5752  0.3359
  104OSM    C6F10627   2.481   5.038  10.074 -0.2156  0.5226  0.0292
  104OSM    H6F10628   2.402   4.965  10.045 -0.4287  1.5540 -2.0527
  104OSM    H6G10629   2.581   4.991  10.085 -0.5751 -0.3564 -0.4579
  104OSM    C7F10630   2.470   5.162   9.979 -0.3264  0.2395 -0.1259
  104OSM    H7F10631   2.562   5.223   9.993  0.3657 -1.0589  1.1766
  104OSM    H7G10632   2.389   5.226  10.021 -3.7566 -3.2226 -1.2295
  104OSM    C8F10633   2.461   5.125   9.830 -0.2802 -1.2074 -0.0549
  104OSM    H8F10634   2.539   5.048   9.811  2.0322  0.9588  0.3589
  104OSM    H8G10635   2.484   5.202   9.753 -1.7097 -0.8849 -0.1751
  104OSM    C9F10636   2.327   5.067   9.793  0.1441  0.6842 -0.2058
  104OSM    H9F10637   2.245   5.073   9.866  0.6752  1.4067  0.3368
  104OSM   C10F10638   2.297   5.021   9.667  0.3944  0.6583 -1.0252
  104OSM   H10F10639   2.196   4.987   9.639 -0.3070  2.8308 -1.2106
  104OSM   C11F10640   2.381   5.015   9.544  0.3549 -0.1726  0.6346
  104OSM   H11F10641   2.389   4.907   9.519 -0.6660 -0.2973  0.7899
  104OSM   H11G10642   2.488   5.041   9.557  1.2936 -2.4641 -2.0092
  104OSM   C12F10643   2.323   5.086   9.423 -0.0593  0.1289  0.5196
  104OSM   H12F10644   2.316   5.194   9.449  2.8155  0.8500 -1.4343
  104OSM   H12G10645   2.221   5.052   9.395  0.0257  1.6920 -1.8206
  104OSM   C13F10646   2.413   5.061   9.294 -0.2760  0.4592  0.2442
  104OSM   H13F10647   2.412   4.951   9.277  0.2662  0.3341  1.0125
  104OSM   H13G10648   2.518   5.094   9.309 -0.2171  0.0414  0.7676
  104OSM   C14F10649   2.352   5.133   9.176 -0.0964  1.0670  0.2083
  104OSM   H14F10650   2.333   5.238   9.207  1.9104  0.7969  2.5029
  104OSM   H14G10651   2.261   5.079   9.142 -0.2676  1.6406 -0.2443
  104OSM   C15F10652   2.445   5.123   9.060 -0.1204 -0.3828 -0.1323
  104OSM   H15F10653   2.462   5.014   9.049 -0.0563 -0.4826  0.9025
  104OSM   H15G10654   2.541   5.172   9.086 -0.3469  0.2804 -0.5373
  104OSM   C16F10655   2.392   5.175   8.928 -0.0254  0.1873 -0.3093
  104OSM   H16F10656   2.372   5.283   8.944  1.4266  0.1089  2.1331
  104OSM   H16G10657   2.296   5.122   8.910 -0.0744  0.4106 -0.7340
  104OSM   C17F10658   2.472   5.146   8.804  0.4870  0.3452 -0.1274
  104OSM   H17F10659   2.571   5.195   8.817 -0.5709  1.8527  2.5274
  104OSM   H17G10660   2.421   5.202   8.723  0.7977  1.5974  0.5373
  104OSM   C18F10661   2.491   4.998   8.771 -0.4263 -0.3216  0.5182
  104OSM   H18F10662   2.522   4.981   8.666  0.3531  1.9551  0.3565
  104OSM   H18G10663   2.396   4.942   8.785  0.1076 -0.7559  2.5417
  104OSM   H18H10664   2.574   4.969   8.838 -0.3361  1.1812  1.0730
  105OSM      N10665   3.085   3.707  11.135  0.5379 -0.2412 -0.6146
  105OSM    C1510666   3.129   3.847  11.173  0.6370 -0.2142  0.6106
  105OSM   H15A10667   3.204   3.831  11.249  0.4632  0.9791  1.0398
  105OSM   H15B10668   3.047   3.908  11.209 -0.0289 -1.0193  0.4782
  105OSM   H15C10669   3.175   3.906  11.095 -1.5399 -1.7913 -1.9604
  105OSM    C1410670   3.205   3.644  11.063 -0.1552 -0.1372 -0.4628
  105OSM   H14A10671   3.189   3.545  11.024  2.0455 -0.0286 -1.6914
  105OSM   H14B10672   3.277   3.627  11.142  0.0762 -1.5854 -0.9847
  105OSM   H14C10673   3.241   3.697  10.976  1.6545 -1.6013 -0.6355
  105OSM    C1310674   3.059   3.630  11.255 -0.2932 -0.3387 -0.4990
  105OSM   H13A10675   3.152   3.617  11.309 -0.6037 -2.0165 -0.3364
  105OSM   H13B10676   3.026   3.529  11.232  0.9360 -1.0788  0.8887
  105OSM   H13C10677   2.988   3.674  11.323 -0.7642 -1.4095 -0.2803
  105OSM    C1210678   2.957   3.702  11.048  0.6423  0.2433  0.8573
  105OSM   H12A10679   2.898   3.785  11.084 -0.5067 -0.5724  0.8956
  105OSM   H12B10680   2.907   3.606  11.057  0.8666 -0.3040 -2.7202
  105OSM    C1110681   2.962   3.749  10.902 -0.7720  0.1529 -0.2586
  105OSM   H11A10682   3.041   3.695  10.845  1.6014  2.2716  0.9141
  105OSM   H11B10683   2.998   3.854  10.896  1.2939 -0.5210 -0.0156
  105OSM      P10684   2.762   3.597  10.832  0.2291  0.0147  0.1123
  105OSM    O1310685   2.831   3.508  10.731  0.1689 -0.1023 -0.2823
  105OSM    O1410686   2.736   3.538  10.961  0.4585 -0.2207  0.6308
  105OSM    O1110687   2.627   3.640  10.766  0.2108 -0.3390  0.0545
  105OSM    O1210688   2.837   3.740  10.841 -0.6063 -0.0966  0.0889
  105OSM    C1S10689   2.625   3.737  10.656 -0.1835 -0.6149 -0.4012
  105OSM    H1S10690   2.716   3.796  10.633  0.8077 -1.6375  0.8833
  105OSM    H1T10691   2.552   3.814  10.689 -1.1522 -1.6791 -0.0268
  105OSM     NF10692   2.572   3.789  10.424  0.7321  0.3926 -0.0223
  105OSM    HNF10693   2.483   3.823  10.394  2.2820  1.8674 -3.1729
  105OSM    C2S10694   2.574   3.678  10.522 -0.4205  0.1169  0.2115
  105OSM    H2S10695   2.650   3.603  10.493  0.2084  0.7639  0.1624
  105OSM    C3S10696   2.440   3.602  10.539  0.2770  0.0364 -0.4721
  105OSM    H3S10697   2.367   3.686  10.552  0.0908 -0.3310  0.9748
  105OSM     O310698   2.435   3.512  10.653  0.0257 -0.5198  0.2341
  105OSM    HO310699   2.516   3.546  10.692 -1.3959  3.1218  0.2141
  105OSM    C4S10700   2.403   3.530  10.409 -0.8366 -0.8554  0.8671
  105OSM    H4S10701   2.337   3.598  10.354 -0.8076  0.3000  2.2409
  105OSM    C5S10702   2.425   3.403  10.368 -0.1990 -0.1447  0.7671
  105OSM    H5S10703   2.490   3.340  10.431  0.0068  1.8517  2.6039
  105OSM    C6S10704   2.386   3.348  10.229  0.1204  0.5550 -0.0280
  105OSM    H6S10705   2.463   3.278  10.191 -0.7066 -1.6143  2.1714
  105OSM    H6T10706   2.402   3.428  10.153 -0.6310  0.8729  0.1396
  105OSM    C7S10707   2.232   3.306  10.205 -0.6690 -0.1642  0.7142
  105OSM    H7S10708   2.180   3.402  10.187  0.7286  0.2704 -1.0964
  105OSM    H7T10709   2.201   3.257  10.300  0.3006 -2.4729 -0.1295
  105OSM    C8S10710   2.193   3.224  10.081 -0.1118  0.6509 -0.4911
  105OSM    H8S10711   2.086   3.198  10.094 -0.1040  1.4581  1.3337
  105OSM    H8T10712   2.246   3.126  10.084  0.0527  0.7716  1.9622
  105OSM    C9S10713   2.215   3.298   9.946  0.3503  0.3031  0.0853
  105OSM    H9S10714   2.324   3.310   9.930  0.6045 -0.2241  1.3112
  105OSM    H9T10715   2.161   3.395   9.951 -1.8199 -0.7742 -1.4930
  105OSM   C10S10716   2.174   3.216   9.827  0.5304  0.2772  0.3252
  105OSM   H10S10717   2.069   3.181   9.819  0.8116 -0.7356  0.9920
  105OSM   H10T10718   2.228   3.118   9.829  0.1514  0.0776  1.4093
  105OSM   C11S10719   2.202   3.286   9.688  0.6371 -0.0700 -0.4931
  105OSM   H11S10720   2.303   3.272   9.643  1.2776  1.2707  0.5093
  105OSM   H11T10721   2.187   3.395   9.702 -0.4679 -0.2844 -0.0031
  105OSM   C12S10722   2.103   3.248   9.580 -0.4608 -0.3433 -0.0484
  105OSM   H12S10723   1.997   3.254   9.614 -0.9647 -0.4806 -1.5677
  105OSM   H12T10724   2.118   3.140   9.564 -1.9447 -0.4013 -1.0871
  105OSM   C13S10725   2.111   3.332   9.449  0.7344  0.7960  0.3784
  105OSM   H13S10726   2.213   3.327   9.404  0.3944 -0.0892 -0.3040
  105OSM   H13T10727   2.094   3.437   9.483  2.5050  2.3525 -3.2699
  105OSM   C14S10728   2.007   3.282   9.344 -0.9176  0.1024  0.3082
  105OSM   H14S10729   1.906   3.287   9.389 -0.3265 -0.4543  1.7264
  105OSM   H14T10730   2.021   3.178   9.305 -2.2445  0.3554 -0.9002
  105OSM   C15S10731   1.998   3.362   9.215  0.2989  0.6078  0.0981
  105OSM   H15S10732   1.937   3.454   9.230 -1.4014 -0.3414 -0.8135
  105OSM   H15T10733   1.943   3.305   9.137 -1.9955 -0.8615  2.7009
  105OSM   C16S10734   2.129   3.392   9.148  0.0099 -0.7469  0.6920
  105OSM   H16S10735   2.186   3.301   9.119 -1.6238 -0.8015 -2.5875
  105OSM   H16T10736   2.196   3.447   9.218 -0.5381 -0.2860  0.8582
  105OSM   C17S10737   2.117   3.488   9.029  0.9225 -0.6914  0.2806
  105OSM   H17S10738   2.054   3.575   9.059 -0.3658 -1.7255  0.6206
  105OSM   H17T10739   2.052   3.454   8.945 -1.0975  0.3936  1.3622
  105OSM   C18S10740   2.251   3.552   8.980  0.7698 -0.6232  0.0575
  105OSM   H18S10741   2.314   3.594   9.061  0.6839 -1.2101  0.4291
  105OSM   H18T10742   2.234   3.630   8.903 -1.4481 -1.0255  0.0998
  105OSM   H18U10743   2.317   3.478   8.929 -1.6406 -1.7959 -1.4520
  105OSM    C1F10744   2.678   3.851  10.373 -0.5915 -0.0571 -0.8601
  105OSM     OF10745   2.796   3.829  10.409  0.0255  0.7825 -0.4747
  105OSM    C2F10746   2.651   3.968  10.284 -0.0495 -0.3248 -0.4008
  105OSM    H2F10747   2.744   4.029  10.288  0.4617 -1.0996 -0.3572
  105OSM    H2G10748   2.567   4.019  10.334 -0.3349 -4.4507  3.6004
  105OSM    C3F10749   2.625   3.930  10.133  0.6757  0.0163 -0.5384
  105OSM    H3F10750   2.597   4.029  10.090 -0.8172  0.3701  1.1672
  105OSM    H3G10751   2.539   3.860  10.131  0.9645 -0.3378 -0.5737
  105OSM    C4F10752   2.752   3.883  10.058 -0.2935 -0.0506 -0.0249
  105OSM    H4F10753   2.796   3.789  10.098 -0.0526  0.4654  0.9553
  105OSM    H4G10754   2.823   3.964  10.085 -0.9257  1.4510 -2.7953
  105OSM    C5F10755   2.733   3.885   9.904 -0.8230  0.1606  0.8549
  105OSM    H5F10756   2.693   3.984   9.876  0.5780  0.0203 -1.7658
  105OSM    H5G10757   2.655   3.815   9.865 -0.9115  0.3197  0.7462
  105OSM    C6F10758   2.868   3.863   9.821 -0.2488 -0.2821  0.5537
  105OSM    H6F10759   2.910   3.766   9.854  0.8687  0.1992  0.5764
  105OSM    H6G10760   2.939   3.947   9.839 -0.4432 -0.3593  1.6652
  105OSM    C7F10761   2.838   3.864   9.664  0.5787  0.6227 -0.1854
  105OSM    H7F10762   2.937   3.869   9.616  0.0462 -0.9918 -1.4977
  105OSM    H7G10763   2.783   3.957   9.640 -1.3027 -0.1391  1.0392
  105OSM    C8F10764   2.757   3.741   9.612  0.2437 -0.5694 -0.0861
  105OSM    H8F10765   2.666   3.722   9.672 -0.2668 -0.4362 -0.8162
  105OSM    H8G10766   2.819   3.649   9.618  1.5372  0.2697 -0.2330
  105OSM    C9F10767   2.703   3.757   9.474  0.2696 -0.0427  0.2255
  105OSM    H9F10768   2.630   3.838   9.462 -0.3970 -0.5876  0.5379
  105OSM   C10F10769   2.744   3.690   9.363  0.3347 -0.2087 -0.2206
  105OSM   H10F10770   2.707   3.730   9.268  0.5694 -0.2954 -0.3474
  105OSM   C11F10771   2.843   3.576   9.357  0.1095  0.5033 -0.2378
  105OSM   H11F10772   2.828   3.509   9.270 -0.0429  0.3944 -0.1270
  105OSM   H11G10773   2.845   3.511   9.447 -1.0075 -0.8465 -1.1684
  105OSM   C12F10774   2.987   3.626   9.348 -0.1744  0.1687 -0.4389
  105OSM   H12F10775   3.058   3.540   9.351 -0.4849 -0.1372 -1.5450
  105OSM   H12G10776   3.014   3.684   9.438  2.0188 -0.8763 -0.3732
  105OSM   C13F10777   3.019   3.706   9.221  0.1528 -0.4675  0.4116
  105OSM   H13F10778   2.982   3.810   9.235  0.8364  0.5562 -4.5702
  105OSM   H13G10779   2.957   3.665   9.138 -1.3080  2.0254  0.2451
  105OSM   C14F10780   3.162   3.692   9.171 -0.0534 -0.0032  0.5919
  105OSM   H14F10781   3.186   3.587   9.145  2.1854  0.8118 -0.7394
  105OSM   H14G10782   3.223   3.716   9.261  0.5086 -2.6116  0.9424
  105OSM   C15F10783   3.219   3.793   9.068  0.0876 -0.4566  0.5669
  105OSM   H15F10784   3.311   3.741   9.033 -0.6813 -1.1589 -0.4164
  105OSM   H15G10785   3.258   3.880   9.126  0.8416  0.5452 -1.3794
  105OSM   C16F10786   3.121   3.835   8.954 -0.1282 -0.1518 -0.8446
  105OSM   H16F10787   3.026   3.863   9.005 -0.3189 -2.4021  0.0823
  105OSM   H16G10788   3.113   3.756   8.877 -1.1545 -1.5862  0.7009
  105OSM   C17F10789   3.171   3.970   8.883  0.0696  0.0055 -0.2070
  105OSM   H17F10790   3.253   3.948   8.812 -1.1099  0.5190 -1.7631
  105OSM   H17G10791   3.217   4.040   8.956  0.1341 -0.6930  0.4314
  105OSM   C18F10792   3.065   4.046   8.795  0.5474  0.0812 -0.0194
  105OSM   H18F10793   3.113   4.129   8.739  0.5558 -0.6195 -1.0656
  105OSM   H18G10794   2.995   4.101   8.862  0.6094 -0.4792  0.5138
  105OSM   H18H10795   3.011   3.975   8.729  1.5622  0.3898 -1.2029
  106OSM      N10796   3.707   2.353  10.851 -0.1517  0.4148 -0.1033
  106OSM    C1510797   3.568   2.329  10.895 -0.4870 -0.8529  0.0420
  106OSM   H15A10798   3.528   2.428  10.914 -0.6810 -0.8017 -0.6088
  106OSM   H15B10799   3.560   2.252  10.969 -1.1667 -1.6521 -0.8565
  106OSM   H15C10800   3.502   2.288  10.820  0.2698  0.2522 -1.2595
  106OSM    C1410801   3.713   2.458  10.745 -0.0978  0.3350  0.0788
  106OSM   H14A10802   3.806   2.452  10.689 -0.1752 -0.4792  0.0293
  106OSM   H14B10803   3.717   2.549  10.805  0.4952 -1.1274  2.3354
  106OSM   H14C10804   3.628   2.456  10.679  0.7686  0.8592 -1.0768
  106OSM    C1310805   3.773   2.391  10.976 -0.5053 -0.2251 -0.3134
  106OSM   H13A10806   3.762   2.319  11.056 -0.7070  2.6139  2.3340
  106OSM   H13B10807   3.722   2.475  11.021 -0.7868 -0.4524 -0.2077
  106OSM   H13C10808   3.877   2.418  10.965 -0.2457 -0.0925  2.1339
  106OSM    C1210809   3.762   2.214  10.804  0.3923  0.3100 -0.8584
  106OSM   H12A10810   3.726   2.139  10.872  0.0589  1.9165  0.7940
  106OSM   H12B10811   3.869   2.218  10.796  0.6456 -1.6793  1.0496
  106OSM    C1110812   3.701   2.166  10.670 -0.0655  0.0635 -1.2842
  106OSM   H11A10813   3.761   2.083  10.627 -0.7674  0.4218 -3.0185
  106OSM   H11B10814   3.694   2.251  10.599 -0.2499  0.5049 -0.7450
  106OSM      P10815   3.540   1.972  10.726  0.1949 -0.0934  0.5392
  106OSM    O1310816   3.590   1.939  10.862 -0.4204  0.1272 -0.0073
  106OSM    O1410817   3.395   1.947  10.701 -0.9246 -0.6885 -0.3339
  106OSM    O1110818   3.622   1.891  10.626 -0.5726  0.6483  0.3443
  106OSM    O1210819   3.575   2.116  10.692  0.5692 -0.4637 -0.1940
  106OSM    C1S10820   3.580   1.905  10.485  0.4546  0.1149  1.0068
  106OSM    H1S10821   3.597   2.005  10.440 -0.3521 -1.3845 -2.8106
  106OSM    H1T10822   3.476   1.874  10.460 -0.0224  2.0340  0.4838
  106OSM     NF10823   3.634   1.831  10.260  0.0339 -0.8534  0.3310
  106OSM    HNF10824   3.560   1.787  10.209  1.3622 -1.5644 -1.0405
  106OSM    C2S10825   3.657   1.806  10.404 -0.1737  0.4304 -0.3155
  106OSM    H2S10826   3.767   1.803  10.418  0.0323 -1.4641 -2.1149
  106OSM    C3S10827   3.608   1.659  10.449 -0.1133 -1.0874 -0.8442
  106OSM    H3S10828   3.497   1.663  10.438 -0.2112  2.3665  0.6589
  106OSM     O310829   3.629   1.631  10.582  0.2805 -0.4023  0.0374
  106OSM    HO310830   3.629   1.712  10.634  0.1253 -0.5649  0.2934
  106OSM    C4S10831   3.668   1.561  10.357 -0.3691  0.0032 -0.3433
  106OSM    H4S10832   3.609   1.521  10.273  1.1558 -4.5658  0.6271
  106OSM    C5S10833   3.789   1.497  10.369 -0.0754  0.2166  0.0578
  106OSM    H5S10834   3.855   1.527  10.453  0.6613 -0.1573 -0.3830
  106OSM    C6S10835   3.848   1.408  10.268  0.1320  0.0659  0.2196
  106OSM    H6S10836   3.854   1.315  10.328  0.5039  0.1696  0.3452
  106OSM    H6T10837   3.946   1.443  10.229 -0.4588  2.2047  0.5759
  106OSM    C7S10838   3.761   1.375  10.146 -0.7861  0.6831 -0.0926
  106OSM    H7S10839   3.781   1.450  10.066 -0.2403  0.3937 -0.2280
  106OSM    H7T10840   3.651   1.372  10.165 -0.6842  0.6794  0.5151
  106OSM    C8S10841   3.802   1.241  10.085 -0.4385  0.6100  0.1929
  106OSM    H8S10842   3.792   1.162  10.163 -3.5590 -0.6938 -1.4609
  106OSM    H8T10843   3.911   1.259  10.077 -0.4112 -0.4121 -1.9307
  106OSM    C9S10844   3.741   1.203   9.946  0.0129  0.3176  0.6236
  106OSM    H9S10845   3.743   1.294   9.881  0.7105 -0.0385  0.1479
  106OSM    H9T10846   3.640   1.156   9.954 -0.0065 -0.4596 -3.1079
  106OSM   C10S10847   3.831   1.104   9.863  0.2794  0.1060 -0.0733
  106OSM   H10S10848   3.869   1.024   9.930 -0.6588  0.5362  0.9940
  106OSM   H10T10849   3.921   1.158   9.826 -0.0715  0.0074 -1.0785
  106OSM   C11S10850   3.766   1.037   9.742  0.3265  0.4259 -0.3928
  106OSM   H11S10851   3.668   0.992   9.767 -0.2457 -0.1869 -3.5427
  106OSM   H11T10852   3.834   0.963   9.696 -0.4259  1.2632 -2.9356
  106OSM   C12S10853   3.730   1.123   9.621  0.7504 -0.3432 -0.0856
  106OSM   H12S10854   3.811   1.190   9.584  1.4025 -0.1452  1.6509
  106OSM   H12T10855   3.642   1.187   9.641  1.0708 -0.1594  0.7589
  106OSM   C13S10856   3.704   1.034   9.495 -0.3559  0.2502 -0.1852
  106OSM   H13S10857   3.628   0.956   9.516  0.4864 -0.9615 -1.5806
  106OSM   H13T10858   3.796   0.985   9.457 -0.7486 -0.4980 -0.1799
  106OSM   C14S10859   3.637   1.123   9.388 -0.0147  0.0338  0.3879
  106OSM   H14S10860   3.713   1.199   9.361 -1.5352  1.2414 -0.5395
  106OSM   H14T10861   3.549   1.178   9.428  0.3717  0.7700  0.2401
  106OSM   C15S10862   3.618   1.053   9.255  0.1859 -0.1749  0.8097
  106OSM   H15S10863   3.578   0.950   9.269  0.9162 -0.5288  0.3524
  106OSM   H15T10864   3.720   1.045   9.213  0.6865 -2.2406  2.3065
  106OSM   C16S10865   3.521   1.130   9.169 -0.2570 -0.1015 -0.1094
  106OSM   H16S10866   3.527   1.082   9.069  0.1213 -2.3100  0.9355
  106OSM   H16T10867   3.543   1.238   9.161 -0.6280 -0.0312 -0.1956
  106OSM   C17S10868   3.374   1.124   9.214 -0.3339  0.0494  0.0495
  106OSM   H17S10869   3.358   1.183   9.307  1.1063 -0.1502  0.4495
  106OSM   H17T10870   3.333   1.022   9.225 -0.0283  0.1672  2.6613
  106OSM   C18S10871   3.296   1.196   9.102 -0.3205  0.7170  0.1622
  106OSM   H18S10872   3.188   1.199   9.127 -0.8663 -0.0015 -2.0081
  106OSM   H18T10873   3.312   1.128   9.016  1.3152  1.1347  0.1206
  106OSM   H18U10874   3.327   1.303   9.091  0.4284  0.7428  2.2121
  106OSM    C1F10875   3.686   1.944  10.199  0.9210  0.0668  0.3626
  106OSM     OF10876   3.751   2.026  10.258 -0.3042  0.0373  0.5083
  106OSM    C2F10877   3.647   1.975  10.058 -0.4142 -0.6270 -0.0643
  106OSM    H2F10878   3.729   1.956   9.986 -0.5780 -1.0650 -0.1323
  106OSM    H2G10879   3.636   2.086  10.059 -1.3688 -0.7185  0.8363
  106OSM    C3F10880   3.514   1.921  10.010  0.9300 -0.2102  0.3314
  106OSM    H3F10881   3.430   1.968  10.065  1.2029  0.8532 -0.1412
  106OSM    H3G10882   3.515   1.810  10.015  0.7012 -0.2185  0.2129
  106OSM    C4F10883   3.481   1.961   9.866 -0.5214  0.0483  0.0100
  106OSM    H4F10884   3.472   2.071   9.873  2.3092  0.3320 -0.3332
  106OSM    H4G10885   3.387   1.909   9.834 -0.1056 -1.4189  1.1088
  106OSM    C5F10886   3.587   1.928   9.765  0.4217 -0.4292  0.1404
  106OSM    H5F10887   3.637   1.830   9.777  1.7056  0.0993 -0.7183
  106OSM    H5G10888   3.680   1.987   9.780  1.2688 -1.6581 -0.2131
  106OSM    C6F10889   3.543   1.935   9.611  0.3763  0.4041  0.2871
  106OSM    H6F10890   3.439   1.896   9.599  0.1310  0.6525  1.5035
  106OSM    H6G10891   3.616   1.868   9.561 -0.6521  1.0492 -2.1676
  106OSM    C7F10892   3.572   2.076   9.552 -0.4870  0.2961  1.2928
  106OSM    H7F10893   3.674   2.116   9.570 -0.9313  2.6617 -1.1866
  106OSM    H7G10894   3.512   2.159   9.597  4.2266  3.9511  1.2484
  106OSM    C8F10895   3.565   2.075   9.394  0.0471 -0.1700 -0.6316
  106OSM    H8F10896   3.630   1.991   9.363 -0.4121 -0.7816  0.0477
  106OSM    H8G10897   3.605   2.171   9.353 -0.5015  1.4383  2.4173
  106OSM    C9F10898   3.426   2.042   9.348 -0.3431 -0.0220  0.2378
  106OSM    H9F10899   3.402   1.951   9.404  2.8781 -2.0838 -1.5710
  106OSM   C10F10900   3.341   2.105   9.265  0.8525 -0.3122 -0.8151
  106OSM   H10F10901   3.237   2.072   9.248  0.8241 -0.4048 -0.4530
  106OSM   C11F10902   3.388   2.222   9.184  0.0626  0.7057  1.1015
  106OSM   H11F10903   3.495   2.242   9.205  0.2948 -0.1247  0.7110
  106OSM   H11G10904   3.336   2.306   9.234 -1.2883  1.4377 -1.4207
  106OSM   C12F10905   3.339   2.201   9.041  0.4895 -0.6368  0.1174
  106OSM   H12F10906   3.349   2.298   8.987  0.9407 -1.3223 -1.0506
  106OSM   H12G10907   3.229   2.189   9.039  0.4712 -0.7156  1.4337
  106OSM   C13F10908   3.413   2.098   8.958 -1.2758 -0.4728 -0.1411
  106OSM   H13F10909   3.379   1.996   8.985 -0.1556 -0.8376 -0.0842
  106OSM   H13G10910   3.517   2.091   8.998 -1.0253 -0.4131 -0.7742
  106OSM   C14F10911   3.416   2.116   8.804 -0.6907 -0.0427 -0.0421
  106OSM   H14F10912   3.471   2.210   8.782 -2.1313  0.9106  0.3551
  106OSM   H14G10913   3.308   2.119   8.779 -1.0320 -2.6581  1.0051
  106OSM   C15F10914   3.479   1.999   8.729 -0.3525  0.4840  0.0836
  106OSM   H15F10915   3.424   1.904   8.744 -0.3719 -0.0533 -3.1349
  106OSM   H15G10916   3.580   1.971   8.766  0.6119 -0.2144 -2.9734
  106OSM   C16F10917   3.472   2.025   8.580 -0.0313  0.3273 -0.3929
  106OSM   H16F10918   3.539   2.108   8.549  0.3256  0.8217  1.6278
  106OSM   H16G10919   3.368   2.056   8.559  0.0195  0.1958 -0.8384
  106OSM   C17F10920   3.510   1.905   8.499 -0.1768  0.3840  0.2329
  106OSM   H17F10921   3.452   1.816   8.532 -2.3320  1.7990  0.4133
  106OSM   H17G10922   3.618   1.881   8.504 -0.2754 -0.0966  0.0629
  106OSM   C18F10923   3.488   1.930   8.346  0.2054 -0.9551 -0.5675
  106OSM   H18F10924   3.380   1.945   8.326 -0.2494 -1.1873  1.6287
  106OSM   H18G10925   3.523   1.853   8.274 -0.5324 -2.9640  1.1543
  106OSM   H18H10926   3.538   2.027   8.325  0.8076 -1.0438  0.3775
  107OSM      N10927   3.485   6.593  10.845  0.1534 -0.4402 -0.4121
  107OSM    C1510928   3.367   6.600  10.936 -0.5061  0.1718  1.1331
  107OSM   H15A10929   3.272   6.621  10.890 -1.4854 -0.9122  2.6341
  107OSM   H15B10930   3.388   6.672  11.014  0.1661  1.3059 -0.0574
  107OSM   H15C10931   3.348   6.502  10.976 -1.0350  0.5952  1.9415
  107OSM    C1410932   3.455   6.497  10.733 -0.2377  0.0408  0.3588
  107OSM   H14A10933   3.530   6.521  10.658 -1.2047  0.5228 -0.4589
  107OSM   H14B10934   3.356   6.517  10.695 -0.5104 -0.9728  0.5219
  107OSM   H14C10935   3.463   6.394  10.765 -2.8656  0.0268  1.0861
  107OSM    C1310936   3.499   6.727  10.787 -0.3664  0.3274 -0.4908
  107OSM   H13A10937   3.403   6.767  10.756 -1.1373  0.4339  1.9222
  107OSM   H13B10938   3.566   6.716  10.703  0.1157 -0.1565 -0.0421
  107OSM   H13C10939   3.535   6.795  10.862  3.0493 -0.7716 -1.0472
  107OSM    C1210940   3.606   6.553  10.924 -0.0629 -0.0498  0.1668
  107OSM   H12A10941   3.648   6.635  10.981  0.8098  0.9242 -1.8271
  107OSM   H12B10942   3.684   6.535  10.852  0.2096  0.9112  0.2093
  107OSM    C1110943   3.586   6.425  11.009  0.1128 -0.2308  0.7087
  107OSM   H11A10944   3.564   6.340  10.941  0.2350  0.2166  0.1056
  107OSM   H11B10945   3.506   6.429  11.086  0.2467 -1.2165  0.9026
  107OSM      P10946   3.812   6.303  11.028  0.1170 -0.2096  0.0274
  107OSM    O1310947   3.948   6.335  11.074  0.1892 -0.0526  0.6529
  107OSM    O1410948   3.760   6.165  11.047  0.5734 -0.8521  0.1338
  107OSM    O1110949   3.814   6.322  10.875  0.2690 -0.5623  0.0980
  107OSM    O1210950   3.706   6.413  11.080 -0.3476  0.5083  0.4757
  107OSM    C1S10951   3.920   6.257  10.798  0.5627 -0.9094 -0.3431
  107OSM    H1S10952   3.919   6.151  10.832  0.4573 -0.0706  2.3724
  107OSM    H1T10953   4.019   6.299  10.826 -0.9467  1.2364  1.9195
  107OSM     NF10954   4.040   6.194  10.577  0.1688  0.1914  0.7094
  107OSM    HNF10955   4.131   6.233  10.573  0.5766 -0.8394 -0.4186
  107OSM    C2S10956   3.926   6.266  10.642  1.4715 -0.0051 -0.1289
  107OSM    H2S10957   3.836   6.211  10.607  1.2474  0.8631 -0.9370
  107OSM    C3S10958   3.920   6.411  10.596  0.0508  0.2827 -0.1655
  107OSM    H3S10959   4.006   6.473  10.628  1.0835 -0.1125 -2.1134
  107OSM     O310960   3.800   6.478  10.643  0.3064 -0.0524 -0.4261
  107OSM    HO310961   3.749   6.411  10.689  0.1216  0.6587  0.4061
  107OSM    C4S10962   3.905   6.424  10.451 -0.4162  0.4897 -0.2559
  107OSM    H4S10963   3.802   6.415  10.414  0.1951 -1.1528 -1.6171
  107OSM    C5S10964   4.004   6.454  10.371 -0.0016  0.3842  0.5319
  107OSM    H5S10965   4.103   6.454  10.420 -0.1831  2.0291  0.9241
  107OSM    C6S10966   3.987   6.467  10.222  0.4871  0.0895  0.0440
  107OSM    H6S10967   4.013   6.568  10.183  0.1350  0.5893  1.0604
  107OSM    H6T10968   3.882   6.442  10.198  0.8063  0.5865 -1.9547
  107OSM    C7S10969   4.078   6.363  10.158 -0.1133 -0.7459  0.3938
  107OSM    H7S10970   4.037   6.263  10.183 -0.7824 -0.5888 -0.0708
  107OSM    H7T10971   4.184   6.371  10.191 -0.0572 -0.5638  0.1744
  107OSM    C8S10972   4.069   6.389  10.008  0.0799 -0.2312 -0.4512
  107OSM    H8S10973   4.088   6.493   9.975 -2.8632  0.1318 -1.0771
  107OSM    H8T10974   3.965   6.367   9.977 -0.1105  0.2163 -0.1413
  107OSM    C9S10975   4.176   6.297   9.931  0.6261  0.4008  0.7205
  107OSM    H9S10976   4.168   6.195   9.973 -2.4096  0.0696 -0.5004
  107OSM    H9T10977   4.280   6.332   9.947  0.9085  0.0403 -0.3001
  107OSM   C10S10978   4.149   6.304   9.777 -0.2360  0.2777 -0.0217
  107OSM   H10S10979   4.107   6.405   9.758  2.4248  1.3657 -0.3793
  107OSM   H10T10980   4.068   6.229   9.763  0.8218 -0.9273  0.2396
  107OSM   C11S10981   4.275   6.269   9.705 -0.0653  0.2757  0.0886
  107OSM   H11S10982   4.316   6.174   9.747  0.5418  0.9803  1.1080
  107OSM   H11T10983   4.358   6.341   9.719 -0.3379  0.6611 -0.2625
  107OSM   C12S10984   4.259   6.244   9.560  0.1308  0.2102 -0.4809
  107OSM   H12S10985   4.257   6.341   9.506  1.1668  0.2832 -0.4044
  107OSM   H12T10986   4.165   6.189   9.539  1.1505 -1.2627 -1.2328
  107OSM   C13S10987   4.370   6.157   9.508  0.2523 -0.3648  0.1268
  107OSM   H13S10988   4.357   6.057   9.553 -2.1052 -0.2830 -0.2867
  107OSM   H13T10989   4.466   6.202   9.543  0.1363 -0.7950  1.0189
  107OSM   C14S10990   4.363   6.147   9.357  0.2898  0.1660 -0.1512
  107OSM   H14S10991   4.355   6.250   9.315 -1.4988 -0.0760 -0.4243
  107OSM   H14T10992   4.277   6.083   9.331  0.1960  0.9046 -1.7077
  107OSM   C15S10993   4.497   6.091   9.310  0.2651  0.5138 -0.5085
  107OSM   H15S10994   4.490   6.073   9.200  0.1313  1.6526 -0.6959
  107OSM   H15T10995   4.531   6.002   9.367 -1.0413 -1.3673 -2.5964
  107OSM   C16S10996   4.601   6.205   9.315 -0.7773 -0.3316  0.3061
  107OSM   H16S10997   4.562   6.299   9.361 -1.5099  0.2716 -1.5187
  107OSM   H16T10998   4.627   6.222   9.208  0.7747  0.9615  0.8472
  107OSM   C17S10999   4.728   6.162   9.393 -0.2725  0.0597 -0.4595
  107OSM   H17S11000   4.763   6.069   9.343  0.6862  0.7651 -1.1378
  107OSM   H17T11001   4.697   6.139   9.497  0.2560 -0.0022 -0.3119
  107OSM   C18S11002   4.834   6.262   9.402 -0.1967 -0.2558 -0.1282
  107OSM   H18S11003   4.819   6.341   9.479  0.0265  2.4593 -2.7516
  107OSM   H18T11004   4.839   6.312   9.303  0.6597  0.6848  0.3808
  107OSM   H18U11005   4.931   6.215   9.430 -1.4976 -2.3657  0.9397
  107OSM    C1F11006   4.035   6.066  10.548 -0.8533 -0.7636 -0.0845
  107OSM     OF11007   3.924   6.010  10.562 -0.3887 -0.0791 -0.2208
  107OSM    C2F11008   4.158   5.995  10.485 -0.5696  0.0332  1.1532
  107OSM    H2F11009   4.125   5.889  10.478 -0.1393 -0.0925  0.9646
  107OSM    H2G11010   4.239   5.988  10.561 -2.3394 -2.2636  2.9102
  107OSM    C3F11011   4.209   6.066  10.347 -0.0635  0.2295 -0.9491
  107OSM    H3F11012   4.247   6.166  10.377 -0.4704  0.2893 -0.6100
  107OSM    H3G11013   4.123   6.090  10.281 -0.7062  0.9494  0.1328
  107OSM    C4F11014   4.333   6.011  10.282  0.0925  0.3619 -0.6549
  107OSM    H4F11015   4.416   6.000  10.356  2.3192  1.8775 -2.8544
  107OSM    H4G11016   4.369   6.078  10.201  2.8946  0.1353  0.3442
  107OSM    C5F11017   4.312   5.868  10.232 -0.6028 -0.2745 -0.2286
  107OSM    H5F11018   4.259   5.807  10.308  0.9133 -0.5318  0.6442
  107OSM    H5G11019   4.412   5.823  10.219 -0.5570 -0.1909 -0.1673
  107OSM    C6F11020   4.242   5.870  10.097  0.3590  0.1735 -0.3927
  107OSM    H6F11021   4.297   5.940  10.031 -0.5871 -0.7104 -2.1575
  107OSM    H6G11022   4.138   5.909  10.096 -0.9278 -3.0204 -0.1561
  107OSM    C7F11023   4.229   5.729  10.028  0.6840 -0.1571 -1.4877
  107OSM    H7F11024   4.124   5.724   9.991 -0.1121 -1.0540  0.8449
  107OSM    H7G11025   4.222   5.641  10.095  0.9474 -0.2335 -1.5597
  107OSM    C8F11026   4.337   5.714   9.925 -0.4081 -0.1888  0.3147
  107OSM    H8F11027   4.432   5.733   9.979 -1.0373  0.0732  1.3433
  107OSM    H8G11028   4.331   5.797   9.852 -0.1748 -0.5519 -0.1212
  107OSM    C9F11029   4.337   5.580   9.854 -0.1334  0.6171  0.6058
  107OSM    H9F11030   4.374   5.501   9.921 -1.5359 -0.1365  0.5137
  107OSM   C10F11031   4.303   5.538   9.730 -0.6966 -0.1414  0.0885
  107OSM   H10F11032   4.315   5.436   9.691  0.7919  0.9249 -2.3162
  107OSM   C11F11033   4.253   5.631   9.622 -0.9888  1.1237 -0.2983
  107OSM   H11F11034   4.248   5.736   9.660 -1.9072  1.1668 -0.5080
  107OSM   H11G11035   4.145   5.608   9.605 -1.2437  0.8352  1.6280
  107OSM   C12F11036   4.335   5.619   9.492  0.2596  0.1157 -0.4447
  107OSM   H12F11037   4.443   5.611   9.515 -0.0241 -0.6764  0.6331
  107OSM   H12G11038   4.328   5.718   9.443 -0.8939  0.4956  0.4626
  107OSM   C13F11039   4.278   5.518   9.398 -0.7933  0.2767 -0.5588
  107OSM   H13F11040   4.178   5.549   9.361  0.3243 -0.0055 -4.0464
  107OSM   H13G11041   4.265   5.420   9.449  0.2327  0.5844  0.3258
  107OSM   C14F11042   4.366   5.487   9.278 -0.0213 -0.4649 -0.8489
  107OSM   H14F11043   4.339   5.385   9.241  1.1046 -1.3610  0.7234
  107OSM   H14G11044   4.472   5.484   9.308  0.4257 -1.8209 -2.4830
  107OSM   C15F11045   4.356   5.592   9.167 -0.2198  0.4127  0.3899
  107OSM   H15F11046   4.384   5.688   9.216  2.6446 -0.0158 -0.2980
  107OSM   H15G11047   4.256   5.599   9.121 -0.2144  2.8495  0.6674
  107OSM   C16F11048   4.455   5.566   9.053  0.6031 -0.4228 -0.2723
  107OSM   H16F11049   4.430   5.467   9.011  1.1508 -1.6410  2.1988
  107OSM   H16G11050   4.560   5.561   9.090  1.0138 -1.0682 -1.5078
  107OSM   C17F11051   4.428   5.672   8.940 -0.4186 -0.0693  0.7203
  107OSM   H17F11052   4.322   5.655   8.909  0.3205 -2.0498 -0.8265
  107OSM   H17G11053   4.503   5.646   8.862 -1.2778  0.6097 -0.3539
  107OSM   C18F11054   4.441   5.819   8.995  0.1799 -0.0207 -0.2727
  107OSM   H18F11055   4.441   5.887   8.907 -0.3075 -0.2861 -0.4875
  107OSM   H18G11056   4.527   5.830   9.063  2.1769  1.1179 -2.8916
  107OSM   H18H11057   4.347   5.843   9.051  0.5114  1.4865 -0.3332
  108OSM      N11058   1.442   2.496  11.001  0.1034 -0.1373  0.3117
  108OSM    C1511059   1.431   2.534  10.860  0.3552  0.1489 -0.0626
  108OSM   H15A11060   1.344   2.593  10.833 -0.8454 -2.0713 -1.2355
  108OSM   H15B11061   1.415   2.445  10.801  0.8214 -1.8164  2.6772
  108OSM   H15C11062   1.516   2.592  10.829 -0.9457  2.8295  1.2329
  108OSM    C1411063   1.422   2.614  11.086 -0.2771  0.1302  0.4141
  108OSM   H14A11064   1.421   2.581  11.188  1.1944  0.0558  0.4096
  108OSM   H14B11065   1.326   2.659  11.064 -0.8962 -1.7448 -0.9321
  108OSM   H14C11066   1.503   2.682  11.066  0.3547 -0.3162  1.4624
  108OSM    C1311067   1.335   2.395  11.033  0.1801 -0.7287  0.1297
  108OSM   H13A11068   1.334   2.366  11.137  2.8522  0.0781  0.4044
  108OSM   H13B11069   1.348   2.304  10.976  0.8419 -0.4777 -0.1191
  108OSM   H13C11070   1.238   2.439  11.013 -0.2013 -1.2537  0.7890
  108OSM    C1211071   1.573   2.433  11.039 -0.7225  0.0946 -0.4760
  108OSM   H12A11072   1.602   2.346  10.982  0.2818  0.4815 -0.5611
  108OSM   H12B11073   1.565   2.401  11.142  1.2240 -0.7184 -0.5542
  108OSM    C1111074   1.703   2.516  11.029  0.1715 -0.3706 -0.3721
  108OSM   H11A11075   1.729   2.520  10.921 -0.7216  0.1164 -0.5715
  108OSM   H11B11076   1.786   2.457  11.073  0.1607  0.1856  0.4004
  108OSM      P11077   1.787   2.761  11.012  0.1028  0.1729  0.3892
  108OSM    O1311078   1.732   2.888  11.071  0.1016 -0.0291  0.3164
  108OSM    O1411079   1.930   2.727  11.026 -0.1092 -0.2381 -0.0045
  108OSM    O1111080   1.755   2.743  10.856 -0.3508 -0.2604 -0.3103
  108OSM    O1211081   1.700   2.647  11.079  0.0118  0.3838  0.5367
  108OSM    C1S11082   1.680   2.856  10.800 -0.3580  0.5695  0.1663
  108OSM    H1S11083   1.706   2.954  10.844  0.7277  1.1596 -1.7437
  108OSM    H1T11084   1.573   2.839  10.826 -0.0675  0.8238  1.5736
  108OSM     NF11085   1.636   2.983  10.594  0.3626  0.2243  1.0263
  108OSM    HNF11086   1.555   2.963  10.540  0.8251 -0.1575  0.4525
  108OSM    C2S11087   1.701   2.870  10.649  0.0254  0.5284  0.2183
  108OSM    H2S11088   1.810   2.887  10.632  0.6642 -2.9855  0.2982
  108OSM    C3S11089   1.665   2.738  10.572  0.1825  0.4437 -0.0839
  108OSM    H3S11090   1.561   2.709  10.597  0.9600 -2.4841 -0.0115
  108OSM     O311091   1.736   2.624  10.617 -0.3027  0.6005  0.0913
  108OSM    HO311092   1.764   2.659  10.702  0.2797  2.1616 -0.7175
  108OSM    C4S11093   1.686   2.754  10.420 -0.1298  0.2448  0.7266
  108OSM    H4S11094   1.791   2.755  10.388  0.1566  3.9332  1.5912
  108OSM    C5S11095   1.593   2.773  10.323 -0.6831  0.1151 -0.1497
  108OSM    H5S11096   1.489   2.794  10.352 -0.7875 -0.7224  0.0808
  108OSM    C6S11097   1.626   2.789  10.177  0.0360 -0.1855  0.0802
  108OSM    H6S11098   1.524   2.803  10.135  0.0033  0.3498  0.3373
  108OSM    H6T11099   1.664   2.691  10.141  2.0675 -0.2195  2.2008
  108OSM    C7S11100   1.721   2.910  10.140 -0.0570  0.0631 -0.3920
  108OSM    H7S11101   1.808   2.912  10.210 -1.9267  0.8407  1.9601
  108OSM    H7T11102   1.660   3.002  10.153  2.2713  1.4049  1.5164
  108OSM    C8S11103   1.777   2.913   9.997 -0.6070  0.8890  0.0519
  108OSM    H8S11104   1.829   2.817   9.975 -0.6220  0.3615  2.2474
  108OSM    H8T11105   1.863   2.983   9.994 -0.2955  0.5596  0.9969
  108OSM    C9S11106   1.674   2.932   9.884  0.0819 -0.1719 -0.8914
  108OSM    H9S11107   1.618   3.025   9.907  0.0871 -0.1911 -0.8006
  108OSM    H9T11108   1.598   2.851   9.890 -0.2306  0.2068  0.4527
  108OSM   C10S11109   1.739   2.943   9.744  0.5825  0.3222 -0.0742
  108OSM   H10S11110   1.788   2.844   9.732 -1.6097 -0.7862 -0.1415
  108OSM   H10T11111   1.815   3.024   9.752  0.2850  0.7826 -1.7647
  108OSM   C11S11112   1.644   2.957   9.617  0.0739  0.3487 -0.8709
  108OSM   H11S11113   1.595   3.055   9.636 -2.8367 -1.5798  2.0679
  108OSM   H11T11114   1.569   2.875   9.610  0.1831  0.0056  1.6760
  108OSM   C12S11115   1.717   2.952   9.481  0.0435  0.2240 -0.4878
  108OSM   H12S11116   1.753   2.848   9.465 -0.3452 -0.3381  2.0781
  108OSM   H12T11117   1.808   3.014   9.499 -1.6593  2.2434  1.4658
  108OSM   C13S11118   1.639   2.993   9.357 -0.0261 -0.5085  0.1289
  108OSM   H13S11119   1.587   3.091   9.359  0.2308 -0.2861 -2.5521
  108OSM   H13T11120   1.553   2.923   9.351 -1.8137  1.6102  0.5963
  108OSM   C14S11121   1.737   2.991   9.237  0.0845 -0.1724  0.0625
  108OSM   H14S11122   1.769   2.888   9.208  0.8909  0.0359  0.1910
  108OSM   H14T11123   1.828   3.047   9.268  0.4151 -0.2192 -0.8027
  108OSM   C15S11124   1.667   3.060   9.118  0.4366 -0.1572 -0.1418
  108OSM   H15S11125   1.613   3.153   9.145  1.6725  1.0241 -1.5885
  108OSM   H15T11126   1.586   2.994   9.082  0.8006  0.0842 -1.4320
  108OSM   C16S11127   1.756   3.094   8.997 -0.2564 -0.0535  0.0990
  108OSM   H16S11128   1.839   3.162   9.025  0.5986  0.1732 -2.7728
  108OSM   H16T11129   1.693   3.134   8.915 -2.3901  0.0664  1.7449
  108OSM   C17S11130   1.834   2.968   8.945 -0.4797 -0.1009  0.1221
  108OSM   H17S11131   1.889   2.918   9.028  3.8506  1.7501 -1.4784
  108OSM   H17T11132   1.917   3.006   8.882 -0.1990 -1.0400 -0.0882
  108OSM   C18S11133   1.753   2.874   8.862  0.3511 -0.2057  0.2263
  108OSM   H18S11134   1.814   2.783   8.845  0.3001 -0.0125 -1.0146
  108OSM   H18T11135   1.734   2.916   8.761  0.4200 -0.9983 -0.1219
  108OSM   H18U11136   1.654   2.847   8.905  0.0446  0.1424 -0.2521
  108OSM    C1F11137   1.685   3.106  10.616 -0.4399  0.6372 -0.0423
  108OSM     OF11138   1.786   3.116  10.684 -0.9352 -0.1610  0.7142
  108OSM    C2F11139   1.615   3.219  10.555 -0.7666  0.3036 -0.3969
  108OSM    H2F11140   1.640   3.310  10.614  0.0295 -1.7770  2.6006
  108OSM    H2G11141   1.505   3.211  10.567 -0.9232  2.1630 -0.3759
  108OSM    C3F11142   1.642   3.241  10.407 -0.1427 -0.4773  0.6605
  108OSM    H3F11143   1.578   3.325  10.371  1.6545  1.1524  1.2022
  108OSM    H3G11144   1.629   3.148  10.348 -0.0216 -1.1975  1.7679
  108OSM    C4F11145   1.789   3.294  10.387 -0.5720 -0.1389 -0.2308
  108OSM    H4F11146   1.863   3.217  10.356  1.6285  1.7310  0.2043
  108OSM    H4G11147   1.813   3.334  10.488  0.2959 -0.9608 -0.1032
  108OSM    C5F11148   1.791   3.398  10.276  0.0356  0.0684 -0.3196
  108OSM    H5F11149   1.889   3.449  10.268 -0.4592  1.1322  0.3095
  108OSM    H5G11150   1.721   3.479  10.307  1.7935  2.6670 -2.8457
  108OSM    C6F11151   1.770   3.330  10.139 -0.1214 -0.2421  0.5247
  108OSM    H6F11152   1.662   3.306  10.150  0.0658 -0.5732  1.7328
  108OSM    H6G11153   1.841   3.245  10.140 -0.1352 -0.2536  1.5412
  108OSM    C7F11154   1.802   3.422  10.023 -0.7019  0.8233  0.1580
  108OSM    H7F11155   1.910   3.446  10.025 -0.1382 -1.5912  0.2066
  108OSM    H7G11156   1.748   3.519  10.029  0.1160  1.3318 -0.5757
  108OSM    C8F11157   1.788   3.347   9.891  0.4398 -0.0618  0.0553
  108OSM    H8F11158   1.834   3.246   9.891  1.8147  0.5592  0.4113
  108OSM    H8G11159   1.861   3.394   9.821  1.1990  0.0632  0.9278
  108OSM    C9F11160   1.645   3.354   9.837 -0.4486  0.0716  0.1361
  108OSM    H9F11161   1.582   3.282   9.890 -0.1526  0.3790  0.9083
  108OSM   C10F11162   1.606   3.398   9.715  0.4340 -0.3973 -0.8855
  108OSM   H10F11163   1.503   3.384   9.679  0.6269 -0.3379 -1.4644
  108OSM   C11F11164   1.695   3.461   9.607  0.8812 -0.0894 -0.0278
  108OSM   H11F11165   1.793   3.410   9.601  1.2906  0.6775  0.1031
  108OSM   H11G11166   1.696   3.568   9.637 -0.0881 -0.2362  0.5679
  108OSM   C12F11167   1.634   3.469   9.465  0.4756  0.7789  0.2365
  108OSM   H12F11168   1.527   3.495   9.479  0.0296 -0.6780 -0.3819
  108OSM   H12G11169   1.630   3.367   9.420  1.1052  1.0233 -0.3811
  108OSM   C13F11170   1.713   3.564   9.373 -0.9654  0.1389 -0.6549
  108OSM   H13F11171   1.823   3.555   9.383 -0.4956  1.5412 -3.8314
  108OSM   H13G11172   1.700   3.670   9.404  0.8333 -0.0626  0.8710
  108OSM   C14F11173   1.677   3.566   9.228  0.1782  0.8561  0.3347
  108OSM   H14F11174   1.575   3.610   9.226 -1.2381 -2.2338  1.2710
  108OSM   H14G11175   1.667   3.471   9.172 -2.1312 -0.0138  2.1067
  108OSM   C15F11176   1.763   3.669   9.150 -0.3945  0.0434  0.2930
  108OSM   H15F11177   1.872   3.652   9.165 -0.5471  1.5552  3.5514
  108OSM   H15G11178   1.759   3.774   9.188 -1.9360 -0.3216  1.1688
  108OSM   C16F11179   1.727   3.672   9.006 -0.4925  0.3028 -0.1740
  108OSM   H16F11180   1.617   3.683   8.996 -0.6244  0.9170  1.7200
  108OSM   H16G11181   1.757   3.575   8.962 -1.4470 -0.0837  0.0255
  108OSM   C17F11182   1.817   3.774   8.926 -0.2960 -0.3874  0.6874
  108OSM   H17F11183   1.920   3.734   8.916  0.7293  1.7490  2.2263
  108OSM   H17G11184   1.825   3.865   8.989  2.3732 -1.3197  1.8042
  108OSM   C18F11185   1.763   3.796   8.789 -0.2045 -0.6682 -0.0221
  108OSM   H18F11186   1.822   3.874   8.737  0.7996 -0.2696  1.6973
  108OSM   H18G11187   1.658   3.830   8.774 -1.4744 -3.5432  1.7739
  108OSM   H18H11188   1.783   3.710   8.722  0.5638  0.7453 -1.6330
  109OSM      N11189   1.585   4.661  10.837  0.3127  0.0286 -0.0822
  109OSM    C1511190   1.553   4.514  10.840 -0.1037 -0.3391 -0.2272
  109OSM   H15A11191   1.486   4.478  10.763 -0.4743 -1.3634  0.5709
  109OSM   H15B11192   1.503   4.489  10.933  1.9437 -1.5898  0.5599
  109OSM   H15C11193   1.639   4.450  10.830 -0.3680 -0.6350 -0.6648
  109OSM    C1411194   1.471   4.738  10.887 -0.3239 -0.6274  0.0685
  109OSM   H14A11195   1.391   4.720  10.816  0.5266  1.7543 -1.5647
  109OSM   H14B11196   1.481   4.845  10.874 -1.1329 -0.6140 -0.5161
  109OSM   H14C11197   1.448   4.712  10.989  1.6878  0.2524  0.7646
  109OSM    C1311198   1.704   4.691  10.927 -0.8240 -0.4461 -0.0792
  109OSM   H13A11199   1.673   4.689  11.031  0.2005  1.1128  0.2653
  109OSM   H13B11200   1.736   4.791  10.902  0.6738 -1.2217 -1.3460
  109OSM   H13C11201   1.790   4.627  10.914 -0.9355 -1.4685  3.5510
  109OSM    C1211202   1.631   4.703  10.703 -0.1452 -0.2743  0.1061
  109OSM   H12A11203   1.558   4.685  10.625 -0.2663 -1.6213  0.5328
  109OSM   H12B11204   1.716   4.638  10.694  1.4693  1.4844  2.1460
  109OSM    C1111205   1.679   4.851  10.700 -0.4652  0.2255  0.0621
  109OSM   H11A11206   1.611   4.918  10.758  0.0722  1.9146 -1.2243
  109OSM   H11B11207   1.677   4.884  10.594  2.6667  1.6892  0.3892
  109OSM      P11208   1.932   4.784  10.665  0.0033  0.1305 -0.0732
  109OSM    O1311209   2.048   4.801  10.755  0.5049  0.4110 -0.2425
  109OSM    O1411210   1.902   4.637  10.634  0.2828 -0.4573 -0.3068
  109OSM    O1111211   1.951   4.861  10.526  0.2758 -0.7042 -0.3633
  109OSM    O1211212   1.817   4.864  10.729 -0.6226  0.3897  0.0552
  109OSM    C1S11213   1.928   5.008  10.516 -0.5820 -0.0365  0.3171
  109OSM    H1S11214   1.984   5.056  10.599 -2.7489  0.4564  1.5465
  109OSM    H1T11215   1.823   5.043  10.529  0.2176  3.1615 -1.2524
  109OSM     NF11216   1.988   5.215  10.387  0.1877 -0.4568  0.1056
  109OSM    HNF11217   1.918   5.275  10.349  0.7221 -0.1139 -0.3420
  109OSM    C2S11218   1.980   5.071  10.378  0.4899 -0.1068  0.6187
  109OSM    H2S11219   2.079   5.023  10.367 -0.2703 -1.7441  0.8412
  109OSM    C3S11220   1.881   5.024  10.268 -0.1320 -0.7709 -0.7915
  109OSM    H3S11221   1.785   5.069  10.300  1.1974  0.9855  0.8530
  109OSM     O311222   1.867   4.886  10.265 -0.0738 -0.1787  0.4005
  109OSM    HO311223   1.905   4.850  10.346  0.0846  1.4978  1.0900
  109OSM    C4S11224   1.927   5.063  10.128 -0.3860 -0.1016  0.4775
  109OSM    H4S11225   1.999   4.988  10.090  0.9636  1.3592  0.1223
  109OSM    C5S11226   1.915   5.173  10.043 -0.1090  0.3319  0.1298
  109OSM    H5S11227   1.862   5.266  10.069  0.3913  0.6270  0.0841
  109OSM    C6S11228   1.976   5.177   9.907  0.4222  0.0543  0.3489
  109OSM    H6S11229   2.041   5.089   9.889  0.5057 -0.0719  1.2231
  109OSM    H6T11230   2.039   5.268   9.899  0.1329  0.1942 -0.2960
  109OSM    C7S11231   1.864   5.189   9.806 -0.0694  0.2371 -0.3720
  109OSM    H7S11232   1.801   5.278   9.828 -0.4870 -0.1366 -0.0431
  109OSM    H7T11233   1.805   5.096   9.814  0.6914 -0.1309  1.4153
  109OSM    C8S11234   1.925   5.200   9.661 -0.3849  0.4336 -0.6575
  109OSM    H8S11235   1.981   5.111   9.623  1.6596  1.4028  0.0211
  109OSM    H8T11236   2.000   5.281   9.655  0.3236 -0.1586  0.0485
  109OSM    C9S11237   1.818   5.209   9.552  0.9339  0.0296  0.2811
  109OSM    H9S11238   1.748   5.296   9.557  0.1677 -0.4894 -1.2715
  109OSM    H9T11239   1.754   5.119   9.547  0.7133  0.3050 -2.0451
  109OSM   C10S11240   1.886   5.203   9.418  0.1894 -0.5143 -0.1640
  109OSM   H10S11241   1.936   5.104   9.412 -0.4535 -0.8713  0.3717
  109OSM   H10T11242   1.961   5.285   9.412 -0.0542 -0.1691  1.3582
  109OSM   C11S11243   1.783   5.201   9.303 -0.6181 -1.1361  0.3358
  109OSM   H11S11244   1.707   5.280   9.321  1.4001  1.1300 -0.7680
  109OSM   H11T11245   1.739   5.099   9.301 -0.7411 -1.0629 -1.0969
  109OSM   C12S11246   1.851   5.222   9.171  0.4368  0.4308 -0.4947
  109OSM   H12S11247   1.942   5.285   9.174  0.1148  0.9375 -1.1461
  109OSM   H12T11248   1.774   5.269   9.105 -0.1282  0.3909  0.1308
  109OSM   C13S11249   1.907   5.093   9.103  0.0407 -0.0603  0.0983
  109OSM   H13S11250   1.824   5.039   9.055  0.4413  1.1591 -2.0085
  109OSM   H13T11251   1.955   5.034   9.184  0.6408 -1.2529 -1.1152
  109OSM   C14S11252   2.014   5.126   8.998  0.2072  0.1237 -0.1787
  109OSM   H14S11253   2.051   5.027   8.963  0.0177  0.3203 -0.9262
  109OSM   H14T11254   2.101   5.180   9.042 -0.6587  0.1448  1.5452
  109OSM   C15S11255   1.970   5.209   8.878  0.1214  0.0906 -0.5406
  109OSM   H15S11256   2.060   5.235   8.819 -1.4937  2.5181 -2.0295
  109OSM   H15T11257   1.941   5.310   8.914 -2.4776  0.0421 -2.3587
  109OSM   C16S11258   1.872   5.141   8.781  0.1794 -0.0445 -0.9532
  109OSM   H16S11259   1.790   5.102   8.845  0.0403 -0.8274 -1.5889
  109OSM   H16T11260   1.917   5.050   8.733  2.1596  0.4378 -0.0577
  109OSM   C17S11261   1.822   5.225   8.664  0.9445 -0.6171 -0.8236
  109OSM   H17S11262   1.914   5.248   8.607  2.1917  0.9941  1.7152
  109OSM   H17T11263   1.793   5.327   8.698  0.1734 -0.9098 -0.6049
  109OSM   C18S11264   1.723   5.152   8.584 -0.2300  0.0977 -0.0844
  109OSM   H18S11265   1.772   5.066   8.534  1.9148  0.3121  1.5590
  109OSM   H18T11266   1.694   5.215   8.498  2.0124  1.1421 -0.1215
  109OSM   H18U11267   1.637   5.110   8.641 -0.2941 -0.6569 -0.7413
  109OSM    C1F11268   2.087   5.276  10.448  0.1229  0.0668 -0.1625
  109OSM     OF11269   2.155   5.216  10.527  0.0109  0.1182  0.2920
  109OSM    C2F11270   2.088   5.421  10.432  0.7206  0.1136 -0.3280
  109OSM    H2F11271   2.085   5.476  10.529  1.8258  0.8733 -0.7139
  109OSM    H2G11272   1.995   5.451  10.379  0.6356 -0.3417 -0.4374
  109OSM    C3F11273   2.209   5.465  10.355 -0.4851  0.1988 -0.7949
  109OSM    H3F11274   2.305   5.421  10.392 -1.1920  0.7951  1.8610
  109OSM    H3G11275   2.212   5.570  10.390  1.0771 -0.1492  0.1623
  109OSM    C4F11276   2.195   5.468  10.202 -0.8381  0.4367 -0.5043
  109OSM    H4F11277   2.108   5.532  10.174 -0.3714  1.8504  1.1471
  109OSM    H4G11278   2.179   5.366  10.161  0.3021  0.1835 -0.3370
  109OSM    C5F11279   2.323   5.511  10.131 -0.1231 -0.4040  0.2104
  109OSM    H5F11280   2.398   5.432  10.153 -0.5584 -0.5005  1.3744
  109OSM    H5G11281   2.370   5.606  10.163 -1.2996  1.2056 -2.6437
  109OSM    C6F11282   2.292   5.515   9.979 -0.1299  0.1601 -0.1843
  109OSM    H6F11283   2.227   5.602   9.955 -0.3956 -0.5606 -2.1273
  109OSM    H6G11284   2.247   5.418   9.949  1.3501 -0.3645 -0.7114
  109OSM    C7F11285   2.422   5.527   9.897 -0.5852  0.3611  0.2941
  109OSM    H7F11286   2.499   5.455   9.932 -1.0997 -0.8298 -0.9290
  109OSM    H7G11287   2.460   5.630   9.908 -1.6476  0.8984 -0.9084
  109OSM    C8F11288   2.410   5.502   9.744  0.0450 -0.1546  0.4923
  109OSM    H8F11289   2.382   5.397   9.725 -0.6064  0.2983 -1.1522
  109OSM    H8G11290   2.514   5.509   9.705  0.9443  2.1809  3.0992
  109OSM    C9F11291   2.326   5.593   9.666  0.3301 -0.2325  0.2530
  109OSM    H9F11292   2.291   5.680   9.724 -0.7180 -1.6058  1.7115
  109OSM   C10F11293   2.311   5.575   9.536  0.0749  0.2857  0.1306
  109OSM   H10F11294   2.239   5.640   9.485  1.0799  0.7916 -0.6586
  109OSM   C11F11295   2.372   5.465   9.449  0.1368 -0.0497  0.1235
  109OSM   H11F11296   2.294   5.411   9.391 -0.0521  0.2675  0.0838
  109OSM   H11G11297   2.417   5.387   9.514 -0.0811  0.4517  0.8899
  109OSM   C12F11298   2.475   5.510   9.345 -0.1986 -0.6556  0.6976
  109OSM   H12F11299   2.528   5.423   9.301  1.4678  0.9355 -0.5088
  109OSM   H12G11300   2.558   5.552   9.405  0.9796  0.1113 -1.3881
  109OSM   C13F11301   2.418   5.607   9.241  0.4384  0.0019  0.6952
  109OSM   H13F11302   2.514   5.650   9.206 -0.6906  1.0870 -1.1245
  109OSM   H13G11303   2.351   5.687   9.278 -1.1215 -0.2930 -1.4078
  109OSM   C14F11304   2.351   5.543   9.114 -0.3465  0.0439  0.2006
  109OSM   H14F11305   2.286   5.463   9.154  1.4877 -0.2135  2.7594
  109OSM   H14G11306   2.423   5.492   9.046 -0.5702  0.0976 -0.0802
  109OSM   C15F11307   2.271   5.634   9.028 -0.5783 -0.7159  0.0581
  109OSM   H15F11308   2.337   5.687   8.956 -0.3546 -4.2066 -2.4304
  109OSM   H15G11309   2.216   5.708   9.090  0.9186 -0.3177  0.9166
  109OSM   C16F11310   2.167   5.561   8.946  0.3878 -0.1639  0.0739
  109OSM   H16F11311   2.104   5.498   9.013 -2.1550 -0.0197 -2.1147
  109OSM   H16G11312   2.215   5.483   8.882 -0.8648 -1.9246  1.2155
  109OSM   C17F11313   2.085   5.649   8.858  0.9462  0.1141  0.4391
  109OSM   H17F11314   2.019   5.586   8.794  0.0122  1.9128 -0.4182
  109OSM   H17G11315   2.157   5.697   8.788  1.7514 -1.8035 -0.0894
  109OSM   C18F11316   2.000   5.750   8.931 -0.3870 -0.2770 -0.1466
  109OSM   H18F11317   1.913   5.714   8.991 -1.1488  0.8478 -0.5592
  109OSM   H18G11318   1.943   5.805   8.854  0.0953 -2.0553 -1.8018
  109OSM   H18H11319   2.067   5.822   8.983  0.1760 -1.0031  0.1497
  110OSM      N11320   3.005   4.390  10.886  0.3688 -0.2388 -0.3911
  110OSM    C1511321   3.003   4.487  10.781  0.6847 -0.2521  0.2275
  110OSM   H15A11322   2.901   4.505  10.752  0.1235 -1.6442  1.3232
  110OSM   H15B11323   3.054   4.439  10.698  2.4342 -0.5592  1.4408
  110OSM   H15C11324   3.042   4.581  10.819  0.2059 -0.1730  0.5210
  110OSM    C1411325   2.937   4.445  11.012  0.4458 -0.1910  0.9583
  110OSM   H14A11326   2.936   4.372  11.092 -0.8613 -1.8675 -0.5356
  110OSM   H14B11327   2.831   4.461  11.000  0.6813  1.9337  1.5292
  110OSM   H14C11328   2.978   4.533  11.057 -0.8240 -0.2888  2.3200
  110OSM    C1311329   2.932   4.268  10.847 -0.5646  0.3953  0.3421
  110OSM   H13A11330   2.837   4.306  10.812 -1.8798 -2.2933  0.8380
  110OSM   H13B11331   2.901   4.195  10.920 -0.9345 -0.5208 -0.7215
  110OSM   H13C11332   2.985   4.211  10.771  2.8293  2.4489  1.0632
  110OSM    C1211333   3.150   4.350  10.913 -0.0459 -0.0093 -0.6611
  110OSM   H12A11334   3.148   4.285  10.999  0.6100  0.4929 -0.2660
  110OSM   H12B11335   3.198   4.442  10.944  0.3054 -0.4319  0.0652
  110OSM    C1111336   3.234   4.285  10.796 -0.5596 -0.6168 -0.5114
  110OSM   H11A11337   3.342   4.303  10.814 -0.7187  0.5590 -0.7154
  110OSM   H11B11338   3.218   4.340  10.701  0.7519 -1.5912 -1.3097
  110OSM      P11339   3.293   4.040  10.830  0.5191 -0.0102 -0.1707
  110OSM    O1311340   3.421   4.057  10.762 -0.2665  0.4626  0.1085
  110OSM    O1411341   3.300   4.042  10.976  0.1896  0.2165  0.0762
  110OSM    O1111342   3.235   3.900  10.780  0.3742  0.5490 -0.7643
  110OSM    O1211343   3.197   4.147  10.770  0.6384  0.1201 -0.4108
  110OSM    C1S11344   3.173   3.890  10.651  0.4118 -0.0202 -0.4105
  110OSM    H1S11345   3.132   3.986  10.612  2.6426  1.3200  0.4772
  110OSM    H1T11346   3.082   3.826  10.662 -0.5968  1.2338 -1.3212
  110OSM     NF11347   3.198   3.840  10.411 -0.2246 -0.2070  0.3289
  110OSM    HNF11348   3.132   3.777  10.370 -0.4974  1.7909 -2.4583
  110OSM    C2S11349   3.255   3.817  10.546 -0.8317 -0.4803  0.3545
  110OSM    H2S11350   3.362   3.848  10.543 -0.0300 -3.1510  0.4293
  110OSM    C3S11351   3.259   3.671  10.586  0.4495 -0.0332 -0.3022
  110OSM    H3S11352   3.155   3.631  10.591  0.2026  0.8451  2.9630
  110OSM     O311353   3.314   3.644  10.706  0.8316 -0.2772  0.8495
  110OSM    HO311354   3.300   3.732  10.742  2.1593 -0.0435  0.8266
  110OSM    C4S11355   3.347   3.606  10.479 -0.7003  0.6159 -0.2882
  110OSM    H4S11356   3.447   3.652  10.470 -0.2904  0.1154  1.5200
  110OSM    C5S11357   3.303   3.533  10.378 -0.0289 -0.3430 -0.3714
  110OSM    H5S11358   3.196   3.516  10.360 -0.0587 -1.7824  1.1234
  110OSM    C6S11359   3.390   3.482  10.270 -0.5276 -0.4307 -0.4795
  110OSM    H6S11360   3.411   3.374  10.290 -2.7565 -0.4389  2.0757
  110OSM    H6T11361   3.489   3.532  10.257 -1.3810  0.6584 -2.9911
  110OSM    C7S11362   3.320   3.483  10.131  0.0950 -0.8866 -0.1951
  110OSM    H7S11363   3.217   3.444  10.125 -1.6750  3.3519  1.0565
  110OSM    H7T11364   3.386   3.420  10.068  1.0413  1.0691 -1.2091
  110OSM    C8S11365   3.326   3.626  10.063 -0.1116 -0.0013 -0.0015
  110OSM    H8S11366   3.430   3.662  10.081  0.4299 -1.6691  0.2546
  110OSM    H8T11367   3.263   3.695  10.124 -0.2757  0.8932 -1.1742
  110OSM    C9S11368   3.297   3.630   9.909 -0.1676 -0.1679 -0.0997
  110OSM    H9S11369   3.362   3.552   9.864 -0.1258  0.6270 -1.4295
  110OSM    H9T11370   3.319   3.736   9.883  0.2299  0.2683  1.9195
  110OSM   C10S11371   3.151   3.597   9.891 -0.1378 -0.0214  0.0051
  110OSM   H10S11372   3.096   3.679   9.944  0.5555 -0.2445  1.0865
  110OSM   H10T11373   3.122   3.505   9.945  1.5525 -1.3067 -1.2322
  110OSM   C11S11374   3.098   3.589   9.750  0.3078 -0.2179  0.3788
  110OSM   H11S11375   3.103   3.684   9.692  0.1915 -0.5938 -0.2494
  110OSM   H11T11376   2.995   3.549   9.748  0.7178 -1.2824 -0.0437
  110OSM   C12S11377   3.188   3.486   9.669 -0.3869 -0.4093 -0.2648
  110OSM   H12S11378   3.292   3.519   9.653  1.5725 -5.1828  1.5722
  110OSM   H12T11379   3.139   3.457   9.573  1.1482  1.7099 -1.7282
  110OSM   C13S11380   3.186   3.354   9.742  0.3268  0.6194 -1.0402
  110OSM   H13S11381   3.082   3.324   9.768  0.7149 -1.4636 -1.7681
  110OSM   H13T11382   3.237   3.365   9.840 -1.6952 -0.3629  0.1364
  110OSM   C14S11383   3.259   3.239   9.666  0.2335 -0.1627 -0.0191
  110OSM   H14S11384   3.362   3.266   9.634 -0.1002  1.3035  0.0827
  110OSM   H14T11385   3.193   3.231   9.577  0.3591 -1.5605  0.0036
  110OSM   C15S11386   3.265   3.102   9.741  0.0775  0.0386  0.0825
  110OSM   H15S11387   3.276   3.018   9.669 -2.5525  0.1418 -0.4876
  110OSM   H15T11388   3.166   3.093   9.790 -0.0729  2.4618  0.3009
  110OSM   C16S11389   3.382   3.097   9.843  0.3719 -0.6167  0.5042
  110OSM   H16S11390   3.383   3.185   9.911  2.4171  1.2518 -1.8316
  110OSM   H16T11391   3.476   3.091   9.784 -0.4591  2.3832 -1.2672
  110OSM   C17S11392   3.374   2.966   9.919 -0.5990  0.0281 -0.4556
  110OSM   H17S11393   3.271   2.936   9.948  0.1552 -1.7791  0.3964
  110OSM   H17T11394   3.429   2.970  10.015  0.0398  0.1091 -0.8198
  110OSM   C18S11395   3.439   2.853   9.832  0.0817 -0.4441  0.3424
  110OSM   H18S11396   3.391   2.851   9.732  0.9506  3.2647 -0.2257
  110OSM   H18T11397   3.429   2.752   9.877  0.6263 -1.1497 -1.1027
  110OSM   H18U11398   3.547   2.866   9.811 -0.2768  1.7472 -0.2353
  110OSM    C1F11399   3.192   3.959  10.359 -0.9868 -0.2131 -0.2617
  110OSM     OF11400   3.250   4.049  10.416  0.3762 -0.4008 -0.0765
  110OSM    C2F11401   3.125   3.976  10.225 -0.2742 -0.4701  0.3730
  110OSM    H2F11402   3.019   3.944  10.225 -0.3903 -0.0868 -0.1702
  110OSM    H2G11403   3.175   3.908  10.153 -1.8593 -0.3117 -0.9136
  110OSM    C3F11404   3.143   4.120  10.166 -0.1403  0.0441 -0.0827
  110OSM    H3F11405   3.250   4.147  10.177  0.1995 -1.4062  0.3250
  110OSM    H3G11406   3.085   4.198  10.220 -0.7384 -0.9904  0.7782
  110OSM    C4F11407   3.098   4.118  10.020  0.6616 -0.9848  0.0834
  110OSM    H4F11408   3.005   4.058  10.025  0.3826 -0.5341  0.3397
  110OSM    H4G11409   3.176   4.071   9.955  1.2879  0.1670 -0.0068
  110OSM    C5F11410   3.068   4.260   9.979 -0.2151  0.4979 -0.1079
  110OSM    H5F11411   3.162   4.316   9.998  0.1282  0.2682 -1.1137
  110OSM    H5G11412   2.991   4.290  10.053  0.6022  0.8916  0.5944
  110OSM    C6F11413   3.018   4.284   9.836 -0.6109  0.4483 -0.3816
  110OSM    H6F11414   2.961   4.380   9.832 -0.3218  0.6831  0.8720
  110OSM    H6G11415   2.953   4.199   9.809 -1.7638  2.0868 -2.9625
  110OSM    C7F11416   3.126   4.292   9.720 -0.0317  0.5405  0.5135
  110OSM    H7F11417   3.185   4.198   9.720 -2.4598 -1.0927 -2.3514
  110OSM    H7G11418   3.196   4.378   9.726  1.1615 -0.4115  0.3678
  110OSM    C8F11419   3.055   4.312   9.585  0.3389 -0.3631  0.0253
  110OSM    H8F11420   3.130   4.349   9.511 -0.4902  1.3661  0.0201
  110OSM    H8G11421   2.978   4.392   9.595  0.4287 -0.1946 -0.6302
  110OSM    C9F11422   2.988   4.182   9.544 -0.2284 -0.1731  0.0452
  110OSM    H9F11423   2.895   4.161   9.600  0.0848  1.9791  1.4384
  110OSM   C10F11424   3.025   4.093   9.452 -0.2273  0.0287  0.4774
  110OSM   H10F11425   2.960   4.005   9.439 -0.8450  0.1989  2.3468
  110OSM   C11F11426   3.150   4.109   9.361  0.3406  0.0768 -0.0968
  110OSM   H11F11427   3.204   4.012   9.368 -0.7908 -0.4979  1.0757
  110OSM   H11G11428   3.220   4.183   9.403 -0.8323  1.0049  0.2593
  110OSM   C12F11429   3.118   4.124   9.212 -0.0649 -0.4270 -0.3500
  110OSM   H12F11430   3.056   4.039   9.178 -0.8179  1.2900 -3.4675
  110OSM   H12G11431   3.219   4.131   9.167  0.0153  2.2094  0.1544
  110OSM   C13F11432   3.037   4.253   9.177  0.3835  0.1029  0.9177
  110OSM   H13F11433   2.955   4.250   9.251  0.2049  2.6750  0.8794
  110OSM   H13G11434   3.012   4.241   9.069  1.9812  2.3705  0.2496
  110OSM   C14F11435   3.121   4.375   9.180 -0.4624  0.4347  0.3094
  110OSM   H14F11436   3.212   4.352   9.121 -1.4418  0.0514 -1.0815
  110OSM   H14G11437   3.143   4.393   9.288 -1.8525  1.2380  0.4599
  110OSM   C15F11438   3.053   4.505   9.128  0.3058  0.9745  0.0678
  110OSM   H15F11439   2.958   4.520   9.183  0.1792 -0.3374  0.2417
  110OSM   H15G11440   3.050   4.490   9.018  2.1316  1.7376 -0.1024
  110OSM   C16F11441   3.125   4.634   9.162  0.2700  0.9715  0.6994
  110OSM   H16F11442   3.143   4.633   9.272  1.6421  2.4256  0.5056
  110OSM   H16G11443   3.064   4.722   9.133 -3.6797 -2.3801 -1.7432
  110OSM   C17F11444   3.266   4.650   9.094  0.2307 -0.8584  0.6410
  110OSM   H17F11445   3.338   4.570   9.120 -0.6327 -0.2828  5.2903
  110OSM   H17G11446   3.312   4.748   9.119  0.4001 -0.0274 -2.6418
  110OSM   C18F11447   3.266   4.646   8.946  0.7198  0.2765  0.4172
  110OSM   H18F11448   3.348   4.708   8.904  0.5302 -0.6235 -1.3485
  110OSM   H18G11449   3.168   4.681   8.906  0.5497  0.3451  0.8949
  110OSM   H18H11450   3.283   4.543   8.910 -1.1425  0.6639 -1.7327
  111OSM      N11451   3.801   0.501  11.156 -0.0143 -0.1601  0.1301
  111OSM    C1511452   3.928   0.442  11.201  0.9667  0.0151 -0.4970
  111OSM   H15A11453   3.948   0.345  11.157 -2.2103  0.0091 -2.0502
  111OSM   H15B11454   3.927   0.428  11.308  2.6214 -0.2814 -0.5096
  111OSM   H15C11455   4.008   0.508  11.170 -0.4832  0.6938 -2.9427
  111OSM    C1411456   3.694   0.404  11.191  0.1044 -0.3127  0.2321
  111OSM   H14A11457   3.696   0.332  11.111 -1.4738  2.5355 -2.4682
  111OSM   H14B11458   3.599   0.456  11.194 -0.2434 -0.6988 -2.7048
  111OSM   H14C11459   3.714   0.355  11.285  0.7629 -1.7118 -0.6342
  111OSM    C1311460   3.764   0.626  11.244 -0.2455 -0.3574  0.4389
  111OSM   H13A11461   3.754   0.595  11.347  0.6874  2.8278  1.5418
  111OSM   H13B11462   3.667   0.667  11.221 -1.2287 -3.3110 -0.9536
  111OSM   H13C11463   3.848   0.691  11.227 -2.8585  2.0164 -4.1568
  111OSM    C1211464   3.792   0.535  11.005  0.0022  0.1179  0.4066
  111OSM   H12A11465   3.691   0.546  10.969 -0.3119 -1.6640  0.7175
  111OSM   H12B11466   3.819   0.442  10.957  0.1083 -0.1365  0.9529
  111OSM    C1111467   3.884   0.657  10.951 -0.0977  0.3954 -0.5589
  111OSM   H11A11468   3.834   0.751  10.982  2.5273  1.2958  1.0622
  111OSM   H11B11469   3.881   0.663  10.840  2.2682  4.4410 -0.5246
  111OSM      P11470   4.118   0.751  10.958 -0.2265 -0.0098  0.1761
  111OSM    O1311471   4.092   0.875  11.031  0.2329 -0.0362  0.3635
  111OSM    O1411472   4.247   0.696  10.993  0.3501 -0.1471 -0.2566
  111OSM    O1111473   4.109   0.786  10.803  0.5068  0.4208  0.1240
  111OSM    O1211474   4.009   0.643  11.004  0.3024  0.5888 -0.1859
  111OSM    C1S11475   4.190   0.707  10.714  0.1937 -0.0555 -0.4794
  111OSM    H1S11476   4.156   0.602  10.728  0.0958  0.1131  0.5795
  111OSM    H1T11477   4.298   0.723  10.736 -0.5146 -0.0817  3.3940
  111OSM     NF11478   4.238   0.646  10.478 -0.0911  0.2820  0.1180
  111OSM    HNF11479   4.319   0.677  10.428 -0.3142 -0.2544 -0.5851
  111OSM    C2S11480   4.170   0.743  10.564  0.0425 -0.2354 -0.3535
  111OSM    H2S11481   4.061   0.722  10.560 -0.2174  0.6723  1.5670
  111OSM    C3S11482   4.204   0.891  10.532  0.2335  0.3586 -0.1879
  111OSM    H3S11483   4.306   0.916  10.569 -0.2497  0.4019  1.1509
  111OSM     O311484   4.117   0.980  10.596  0.3431 -0.2865  0.0298
  111OSM    HO311485   4.070   0.925  10.659 -0.6239 -0.2318 -0.6243
  111OSM    C4S11486   4.192   0.917  10.381 -0.3575 -0.7563 -0.4765
  111OSM    H4S11487   4.290   0.915  10.333 -0.0159  0.4158  0.1516
  111OSM    C5S11488   4.080   0.954  10.306  0.2281 -0.2496 -0.2829
  111OSM    H5S11489   3.989   0.979  10.363  1.0514 -1.6626  1.7335
  111OSM    C6S11490   4.080   0.978  10.161  0.1620 -0.1844  0.5122
  111OSM    H6S11491   4.084   1.086  10.137 -0.0394 -0.1471  0.6467
  111OSM    H6T11492   3.976   0.948  10.135  0.2510 -0.4017  0.4066
  111OSM    C7S11493   4.183   0.900  10.076  0.0723 -0.2024  0.4574
  111OSM    H7S11494   4.175   0.790  10.095 -0.6305 -0.0364  1.1529
  111OSM    H7T11495   4.282   0.946  10.093  0.1702 -1.0408  2.3048
  111OSM    C8S11496   4.153   0.915   9.927  0.4043  0.5340 -0.2491
  111OSM    H8S11497   4.142   1.023   9.901 -1.9433  0.7120  1.3422
  111OSM    H8T11498   4.048   0.879   9.919  0.0255  1.7556 -0.9235
  111OSM    C9S11499   4.240   0.825   9.836  0.7182  0.1136  0.2420
  111OSM    H9S11500   4.206   0.721   9.854 -0.7204  0.2426 -1.5070
  111OSM    H9T11501   4.347   0.822   9.867 -0.1465 -0.6947  3.2244
  111OSM   C10S11502   4.212   0.856   9.697 -0.0464  0.7624 -0.3126
  111OSM   H10S11503   4.264   0.952   9.675 -3.0156  2.3844 -0.6446
  111OSM   H10T11504   4.103   0.868   9.677 -0.2038 -0.6050 -0.3308
  111OSM   C11S11505   4.274   0.744   9.607 -0.5279 -0.5100 -0.7505
  111OSM   H11S11506   4.212   0.655   9.633 -1.4137  0.1236 -0.6509
  111OSM   H11T11507   4.379   0.727   9.640 -0.2845  1.3471 -0.5389
  111OSM   C12S11508   4.241   0.756   9.461 -0.8576  0.2402  0.5374
  111OSM   H12S11509   4.135   0.788   9.458 -1.2692 -1.0933  0.4328
  111OSM   H12T11510   4.243   0.662   9.402 -1.0057  0.2470  0.5219
  111OSM   C13S11511   4.327   0.861   9.389  0.4175  0.2822 -0.4834
  111OSM   H13S11512   4.433   0.829   9.403 -0.1433 -2.1477 -1.5070
  111OSM   H13T11513   4.315   0.953   9.450  0.4985  0.4516 -0.7263
  111OSM   C14S11514   4.297   0.897   9.247  0.9869 -0.3493 -0.0397
  111OSM   H14S11515   4.364   0.975   9.207  1.1700 -1.0334 -1.0925
  111OSM   H14T11516   4.195   0.942   9.252  0.7793 -0.8423  0.1802
  111OSM   C15S11517   4.271   0.775   9.152 -0.3521 -0.2752 -0.9976
  111OSM   H15S11518   4.183   0.715   9.186  0.8168 -0.7518  1.2627
  111OSM   H15T11519   4.364   0.714   9.157  0.2562  0.7837  1.0120
  111OSM   C16S11520   4.246   0.816   9.003 -0.3942 -0.6256 -0.2676
  111OSM   H16S11521   4.307   0.908   8.990 -0.7520 -0.0129  2.0976
  111OSM   H16T11522   4.138   0.840   9.008 -0.2340 -0.2539  2.2257
  111OSM   C17S11523   4.295   0.709   8.903 -0.3714 -0.1336 -0.2704
  111OSM   H17S11524   4.228   0.622   8.918 -4.1738  2.5662 -1.0496
  111OSM   H17T11525   4.400   0.688   8.934  0.3347  2.1702 -0.9820
  111OSM   C18S11526   4.286   0.734   8.752  0.7345  0.4341  0.2246
  111OSM   H18S11527   4.342   0.660   8.691  1.1474  1.1539 -0.2761
  111OSM   H18T11528   4.315   0.839   8.730  2.9787 -0.2842 -0.4409
  111OSM   H18U11529   4.178   0.718   8.735  0.8118 -1.0364  1.0975
  111OSM    C1F11530   4.198   0.519  10.459 -1.2515 -1.1221 -0.1301
  111OSM     OF11531   4.086   0.485  10.497  0.2786  0.2565  0.9335
  111OSM    C2F11532   4.283   0.430  10.367  0.3197  0.5478 -0.4692
  111OSM    H2F11533   4.219   0.343  10.341  1.5184 -0.7488  0.8691
  111OSM    H2G11534   4.373   0.385  10.414 -0.7655 -2.9577 -1.5448
  111OSM    C3F11535   4.302   0.496  10.233 -0.4607 -0.1251 -0.2733
  111OSM    H3F11536   4.358   0.592  10.236 -1.8059  0.6434  0.9066
  111OSM    H3G11537   4.206   0.505  10.179  0.2993  0.9857 -1.4708
  111OSM    C4F11538   4.377   0.398  10.137 -0.6165  0.2391 -0.1357
  111OSM    H4F11539   4.319   0.305  10.122  1.0262 -0.7357 -0.5448
  111OSM    H4G11540   4.469   0.371  10.195 -0.5131  0.9899  0.0542
  111OSM    C5F11541   4.424   0.467  10.003  0.1669  0.2661 -0.1283
  111OSM    H5F11542   4.512   0.411   9.966 -0.5871 -2.4963  2.0746
  111OSM    H5G11543   4.457   0.572  10.021  0.8172  0.4168 -2.1593
  111OSM    C6F11544   4.318   0.452   9.893  0.7962 -0.0909  0.2123
  111OSM    H6F11545   4.330   0.538   9.824 -1.9186  0.0382 -0.1689
  111OSM    H6G11546   4.213   0.457   9.928 -0.1166 -1.3929 -2.2256
  111OSM    C7F11547   4.350   0.333   9.797  0.3386 -0.8108  0.1278
  111OSM    H7F11548   4.262   0.308   9.733  0.9695 -1.3411 -0.5486
  111OSM    H7G11549   4.366   0.248   9.867  1.7718  2.6800  4.2451
  111OSM    C8F11550   4.485   0.347   9.720  0.3925  0.0152  0.2181
  111OSM    H8F11551   4.579   0.345   9.778  1.1665 -2.1613 -1.0366
  111OSM    H8G11552   4.496   0.448   9.674  2.1903 -0.5366 -0.5999
  111OSM    C9F11553   4.501   0.235   9.623  0.1514  0.6096 -0.1627
  111OSM    H9F11554   4.565   0.153   9.660  0.0354 -0.6658 -2.6296
  111OSM   C10F11555   4.443   0.225   9.502 -0.8737 -0.2595  0.1153
  111OSM   H10F11556   4.464   0.134   9.444 -0.4587 -1.2688  1.7942
  111OSM   C11F11557   4.348   0.330   9.443  0.2942 -0.2984  0.4048
  111OSM   H11F11558   4.368   0.433   9.477  1.2671  0.1022 -1.3365
  111OSM   H11G11559   4.244   0.297   9.464 -0.4902  0.8827 -1.5167
  111OSM   C12F11560   4.358   0.323   9.292  0.0070  0.0121 -0.2667
  111OSM   H12F11561   4.299   0.407   9.252  0.1765  0.0106 -0.5190
  111OSM   H12G11562   4.313   0.229   9.253  1.7505 -1.6072  1.4968
  111OSM   C13F11563   4.500   0.351   9.240 -0.1826 -0.6785 -0.6457
  111OSM   H13F11564   4.553   0.253   9.243 -0.1141 -0.6114  0.6116
  111OSM   H13G11565   4.544   0.432   9.301 -2.3629  1.0447 -1.3230
  111OSM   C14F11566   4.507   0.411   9.098  0.4139 -0.0602 -0.0827
  111OSM   H14F11567   4.606   0.431   9.053 -0.5583  1.2190 -1.7368
  111OSM   H14G11568   4.456   0.510   9.102 -1.1687 -0.7829 -1.5484
  111OSM   C15F11569   4.438   0.326   8.991 -0.0037  0.8167 -0.0242
  111OSM   H15F11570   4.338   0.282   9.010  1.2006 -1.0794  2.2728
  111OSM   H15G11571   4.507   0.239   8.993 -1.1912 -0.1342  0.2606
  111OSM   C16F11572   4.449   0.371   8.840  0.1439 -0.0828  0.5866
  111OSM   H16F11573   4.552   0.406   8.821  0.5160 -0.1064  2.4459
  111OSM   H16G11574   4.379   0.446   8.798 -0.3917 -0.6495  0.4470
  111OSM   C17F11575   4.450   0.250   8.742 -0.0831 -0.4309 -0.7384
  111OSM   H17F11576   4.350   0.204   8.759 -0.5651  0.0079 -2.2712
  111OSM   H17G11577   4.527   0.171   8.752  0.7815  0.2375 -1.9522
  111OSM   C18F11578   4.454   0.295   8.594 -0.2609  1.1124  0.1248
  111OSM   H18F11579   4.357   0.338   8.562  0.2763  2.1444 -0.1530
  111OSM   H18G11580   4.485   0.209   8.531 -0.6815  0.2828  1.0494
  111OSM   H18H11581   4.537   0.365   8.571  0.6710  0.2191  0.7166
  112OSM      N11582   4.566   5.281  11.031 -0.8912  0.6228 -0.1866
  112OSM    C1511583   4.496   5.161  11.086 -0.6315 -0.0979  0.2715
  112OSM   H15A11584   4.389   5.174  11.085 -1.0146 -2.3167  3.5015
  112OSM   H15B11585   4.518   5.133  11.188 -3.9516 -1.2312  0.7387
  112OSM   H15C11586   4.514   5.075  11.024 -0.0148  1.0676 -1.2132
  112OSM    C1411587   4.482   5.404  11.060 -0.4889  0.0648  0.1676
  112OSM   H14A11588   4.543   5.485  11.022  0.1087 -0.4025  0.1121
  112OSM   H14B11589   4.455   5.415  11.164  1.0494 -0.2602  0.6300
  112OSM   H14C11590   4.402   5.399  10.988  0.8774  1.9418 -1.5594
  112OSM    C1311591   4.692   5.305  11.108  0.3591 -0.4888  0.6030
  112OSM   H13A11592   4.755   5.218  11.102  0.5980 -0.3281  0.7912
  112OSM   H13B11593   4.654   5.317  11.209 -0.2042  0.0612  0.3359
  112OSM   H13C11594   4.739   5.399  11.083 -0.6180 -0.0766  0.2755
  112OSM    C1211595   4.590   5.260  10.881  0.4388 -0.5332 -0.6873
  112OSM   H12A11596   4.612   5.354  10.832  0.2477 -0.6763 -1.0530
  112OSM   H12B11597   4.497   5.230  10.835  1.3285 -0.6243 -2.4694
  112OSM    C1111598   4.693   5.158  10.831 -0.3407  0.0482  0.0174
  112OSM   H11A11599   4.784   5.195  10.882 -0.2349  1.9010 -1.4565
  112OSM   H11B11600   4.713   5.160  10.722  1.0240 -2.0962  0.1919
  112OSM      P11601   4.746   4.909  10.891 -0.0493 -0.3974  0.2235
  112OSM    O1311602   4.888   4.951  10.870  0.6354 -0.1275  0.0998
  112OSM    O1411603   4.719   4.856  11.022  0.1102  0.4970  0.4490
  112OSM    O1111604   4.704   4.804  10.786 -0.2297 -0.1861  0.7581
  112OSM    O1211605   4.648   5.031  10.872  0.4889 -0.2500  0.5325
  112OSM    C1S11606   4.686   4.825  10.644  0.4531  0.0269 -0.4132
  112OSM    H1S11607   4.743   4.911  10.602 -0.2866  1.4787  1.4455
  112OSM    H1T11608   4.577   4.839  10.626  0.2160 -1.4370 -0.1410
  112OSM     NF11609   4.705   4.716  10.419 -0.6261  0.0141  1.3508
  112OSM    HNF11610   4.638   4.672  10.360  0.8769  0.1998 -0.5641
  112OSM    C2S11611   4.721   4.701  10.560 -0.0352  0.2580 -0.0350
  112OSM    H2S11612   4.827   4.670  10.578 -1.0290 -2.4950  1.4151
  112OSM    C3S11613   4.635   4.570  10.620 -0.8633 -0.0865  0.8796
  112OSM    H3S11614   4.528   4.597  10.631 -1.3818 -0.0807 -3.3811
  112OSM     O311615   4.676   4.518  10.748  0.4302  0.4098  0.3169
  112OSM    HO311616   4.713   4.600  10.782  0.3595  1.5021 -2.1612
  112OSM    C4S11617   4.640   4.454  10.522  0.0645 -0.2888  0.1541
  112OSM    H4S11618   4.589   4.486  10.430 -0.1399 -0.7355  0.1098
  112OSM    C5S11619   4.696   4.337  10.528  0.1724  0.0210  0.1196
  112OSM    H5S11620   4.749   4.300  10.617 -0.2840 -1.2395 -0.1221
  112OSM    C6S11621   4.694   4.238  10.415  0.4441  0.0651  0.4787
  112OSM    H6S11622   4.686   4.132  10.446 -1.5561  0.6564  2.1420
  112OSM    H6T11623   4.783   4.265  10.355  0.3250 -0.5271  0.0377
  112OSM    C7S11624   4.571   4.247  10.327 -0.3561  0.5182  1.1075
  112OSM    H7S11625   4.568   4.351  10.287  0.3697  1.2978  3.0623
  112OSM    H7T11626   4.478   4.245  10.388 -0.9149 -1.9556  0.2528
  112OSM    C8S11627   4.536   4.130  10.236  0.6330  0.1202  0.3947
  112OSM    H8S11628   4.459   4.157  10.160  2.4755  0.0290 -1.5237
  112OSM    H8T11629   4.475   4.064  10.303 -0.8164  1.2737  0.2509
  112OSM    C9S11630   4.648   4.069  10.167 -0.1523  0.6465  0.9178
  112OSM    H9S11631   4.676   3.981  10.229  1.2717 -0.1292 -0.7954
  112OSM    H9T11632   4.737   4.136  10.168 -0.3357  0.9366 -0.7523
  112OSM   C10S11633   4.616   4.032  10.017 -0.0070 -0.1138  0.1977
  112OSM   H10S11634   4.570   4.117   9.961  3.6532  1.2215 -0.9384
  112OSM   H10T11635   4.545   3.946  10.017  1.0405 -0.9958  1.4321
  112OSM   C11S11636   4.747   3.998   9.942 -0.5153 -0.1433 -1.0412
  112OSM   H11S11637   4.798   3.906   9.977 -1.2628  0.0467  0.6049
  112OSM   H11T11638   4.818   4.078   9.972 -0.5848  0.2250 -1.8635
  112OSM   C12S11639   4.713   3.995   9.793  0.6167 -0.1991 -0.3395
  112OSM   H12S11640   4.692   4.096   9.752  0.9669 -0.4902 -1.2552
  112OSM   H12T11641   4.623   3.930   9.788 -0.8942  1.9849 -2.4287
  112OSM   C13S11642   4.813   3.931   9.695 -0.6079  0.1749 -0.3157
  112OSM   H13S11643   4.850   3.830   9.723  1.7497  1.4983  1.4721
  112OSM   H13T11644   4.901   3.998   9.698 -2.8614  3.1348  3.4020
  112OSM   C14S11645   4.765   3.939   9.550 -0.4539 -0.2229 -0.6424
  112OSM   H14S11646   4.751   4.046   9.523  0.1930  0.3142  1.0404
  112OSM   H14T11647   4.675   3.878   9.528 -0.2915 -0.6151 -0.2297
  112OSM   C15S11648   4.871   3.882   9.446  0.7347 -0.1274 -0.0432
  112OSM   H15S11649   4.893   3.778   9.478  0.8742 -0.5169 -1.3775
  112OSM   H15T11650   4.961   3.944   9.461 -0.3299  1.1077  1.3821
  112OSM   C16S11651   4.824   3.889   9.302 -0.1921  0.1812  0.7422
  112OSM   H16S11652   4.791   3.993   9.282  0.5933  0.0840 -1.2511
  112OSM   H16T11653   4.745   3.815   9.276  1.8816 -0.9411 -2.7718
  112OSM   C17S11654   4.935   3.858   9.210 -0.3301 -0.7220  0.4673
  112OSM   H17S11655   5.012   3.938   9.214 -0.7627 -0.1186 -2.1592
  112OSM   H17T11656   4.892   3.860   9.107 -1.1063  0.5008  0.8020
  112OSM   C18S11657   4.994   3.721   9.226  0.3429 -0.0557  0.2533
  112OSM   H18S11658   4.908   3.656   9.250  0.6698  0.2022  2.2243
  112OSM   H18T11659   5.060   3.716   9.316  1.3587 -2.8675 -0.5944
  112OSM   H18U11660   5.050   3.687   9.136 -2.3441 -1.3495 -0.9616
  112OSM    C1F11661   4.785   4.801  10.361 -0.7873 -0.1076  0.1002
  112OSM     OF11662   4.893   4.834  10.407 -0.2450 -0.3460 -0.4291
  112OSM    C2F11663   4.736   4.860  10.237 -0.4910 -0.7325  0.4402
  112OSM    H2F11664   4.645   4.921  10.254  0.8251  2.0621 -2.0085
  112OSM    H2G11665   4.719   4.772  10.172  2.0483 -0.5787 -0.5072
  112OSM    C3F11666   4.841   4.958  10.176 -0.4290  0.0839 -0.4340
  112OSM    H3F11667   4.935   4.900  10.171 -0.1031  0.5997 -0.3881
  112OSM    H3G11668   4.861   5.047  10.240 -0.4007  1.2400 -2.0103
  112OSM    C4F11669   4.795   5.013  10.040 -0.0803 -0.1562  0.3941
  112OSM    H4F11670   4.885   5.058   9.993 -1.3353 -0.9837 -2.9759
  112OSM    H4G11671   4.725   5.095  10.065 -1.1236 -1.3457  1.5033
  112OSM    C5F11672   4.746   4.911   9.934  0.8751 -0.4406 -0.6051
  112OSM    H5F11673   4.648   4.869   9.965  2.1265 -2.4609  0.7575
  112OSM    H5G11674   4.821   4.829   9.929  0.5662 -0.7420 -0.3551
  112OSM    C6F11675   4.742   4.972   9.792 -0.1561  0.0881 -0.2057
  112OSM    H6F11676   4.843   5.011   9.763  0.2026 -1.0263 -0.4674
  112OSM    H6G11677   4.672   5.058   9.782 -2.0484 -1.1792  1.8046
  112OSM    C7F11678   4.720   4.862   9.694  0.5134  0.1542 -0.5527
  112OSM    H7F11679   4.615   4.827   9.704  0.5172  0.1999 -0.3556
  112OSM    H7G11680   4.782   4.775   9.725 -1.4904 -0.6133  1.4242
  112OSM    C8F11681   4.740   4.886   9.546 -0.4306  0.4977  0.2007
  112OSM    H8F11682   4.709   4.790   9.499 -0.8285  1.9691 -2.6859
  112OSM    H8G11683   4.845   4.914   9.526  0.0784 -1.1565  0.4585
  112OSM    C9F11684   4.651   4.997   9.493  0.1806  0.0149 -0.4022
  112OSM    H9F11685   4.547   4.972   9.521  0.3435 -0.2662 -0.0352
  112OSM   C10F11686   4.690   5.120   9.446 -0.5659  0.0327 -0.2705
  112OSM   H10F11687   4.621   5.189   9.395 -2.0670 -1.9269 -0.9364
  112OSM   C11F11688   4.828   5.171   9.431  0.1322  0.1226 -0.0279
  112OSM   H11F11689   4.903   5.089   9.432 -0.0645 -0.0546  1.2398
  112OSM   H11G11690   4.844   5.234   9.521  0.6900 -1.7200  1.1804
  112OSM   C12F11691   4.855   5.270   9.311  0.5416 -0.1751  0.6970
  112OSM   H12F11692   4.953   5.319   9.328  0.6618 -0.1996  0.0780
  112OSM   H12G11693   4.779   5.349   9.289  0.6349 -0.8974 -2.4356
  112OSM   C13F11694   4.890   5.189   9.181  0.1596  0.0664  0.0368
  112OSM   H13F11695   4.803   5.124   9.157  0.8780 -0.6865 -0.5419
  112OSM   H13G11696   4.972   5.121   9.212 -1.5872 -1.5762  1.1222
  112OSM   C14F11697   4.927   5.261   9.050  0.7773  0.4317  0.2269
  112OSM   H14F11698   4.940   5.189   8.967  0.0549  0.5037  0.0537
  112OSM   H14G11699   5.019   5.321   9.066 -0.1963  2.1395 -0.5450
  112OSM   C15F11700   4.836   5.378   9.009  0.0827  0.5083  0.2390
  112OSM   H15F11701   4.853   5.464   9.076 -0.9251 -1.2960  2.8987
  112OSM   H15G11702   4.732   5.341   9.021 -0.6149  2.3831  0.0695
  112OSM   C16F11703   4.862   5.428   8.871 -0.4336  0.3290  0.2665
  112OSM   H16F11704   4.852   5.344   8.799  1.2959  1.2216 -1.0417
  112OSM   H16G11705   4.965   5.470   8.864 -0.0703 -0.6760 -0.5532
  112OSM   C17F11706   4.761   5.535   8.816 -0.2610 -0.8130 -0.2784
  112OSM   H17F11707   4.765   5.625   8.882  0.2044 -1.3298  0.4126
  112OSM   H17G11708   4.660   5.493   8.833  0.3385 -1.4169  2.1057
  112OSM   C18F11709   4.783   5.573   8.671  0.6590 -0.1879 -0.4134
  112OSM   H18F11710   4.888   5.585   8.639  0.2798  0.4426 -1.4590
  112OSM   H18G11711   4.738   5.674   8.664 -0.0921 -0.6078 -1.9706
  112OSM   H18H11712   4.733   5.505   8.598 -0.2245  1.2693 -1.1839
  113OSM      N11713   1.126   1.307  11.098 -0.1071  0.1126  0.0555
  113OSM    C1511714   0.996   1.269  11.175  0.2762 -0.3159 -0.2679
  113OSM   H15A11715   0.997   1.321  11.269  0.6663  1.2093 -1.0961
  113OSM   H15B11716   0.994   1.161  11.177 -1.5704 -0.3945 -2.8651
  113OSM   H15C11717   0.908   1.302  11.122 -1.6461 -1.8818  1.9005
  113OSM    C1411718   1.123   1.452  11.074 -0.1899 -0.5115  0.1973
  113OSM   H14A11719   1.034   1.474  11.016  1.8237  0.4700 -2.6291
  113OSM   H14B11720   1.204   1.481  11.008  0.3207  0.8746  1.3999
  113OSM   H14C11721   1.123   1.504  11.169  2.4535  0.7792 -0.4583
  113OSM    C1311722   1.240   1.275  11.189 -0.1210  0.6232 -0.1027
  113OSM   H13A11723   1.339   1.278  11.144  0.1317 -1.6849  0.2231
  113OSM   H13B11724   1.238   1.171  11.218  1.8046  0.3342 -0.8985
  113OSM   H13C11725   1.239   1.330  11.282 -0.5022  1.6243 -0.6951
  113OSM    C1211726   1.132   1.228  10.969 -0.0780 -0.3020 -0.1625
  113OSM   H12A11727   1.040   1.241  10.913  0.7388 -1.5381 -1.8264
  113OSM   H12B11728   1.156   1.128  10.999  1.7310 -0.0706 -0.7724
  113OSM    C1111729   1.244   1.271  10.875 -0.9375  0.0472  0.6188
  113OSM   H11A11730   1.232   1.374  10.834 -1.2637 -0.3359 -0.2812
  113OSM   H11B11731   1.230   1.201  10.789 -3.7377  2.1757 -0.7792
  113OSM      P11732   1.496   1.353  10.922 -0.0625  0.0603  0.1542
  113OSM    O1311733   1.495   1.458  11.026 -0.2986 -0.6975 -0.0654
  113OSM    O1411734   1.618   1.273  10.908  0.0338  0.1413  0.0252
  113OSM    O1111735   1.462   1.424  10.783 -0.3074  0.7197  0.3344
  113OSM    O1211736   1.370   1.261  10.939 -0.2730  0.2394  0.1319
  113OSM    C1S11737   1.538   1.373  10.677 -0.4262  0.1439 -0.2762
  113OSM    H1S11738   1.513   1.269  10.647  2.3896 -0.4473 -0.7530
  113OSM    H1T11739   1.649   1.377  10.685 -0.4152 -3.5419  2.3435
  113OSM     NF11740   1.577   1.421  10.438 -0.1763 -0.0688 -0.0283
  113OSM    HNF11741   1.665   1.468  10.428 -1.7005  2.5530 -1.7508
  113OSM    C2S11742   1.504   1.468  10.552  0.0460 -1.0117 -0.5638
  113OSM    H2S11743   1.395   1.464  10.534  0.1966 -0.0454 -1.7383
  113OSM    C3S11744   1.551   1.615  10.596  0.3604  0.1918  0.5875
  113OSM    H3S11745   1.653   1.603  10.639  1.3745  3.4429 -0.7886
  113OSM     O311746   1.467   1.670  10.699 -0.3317  0.0941 -0.5331
  113OSM    HO311747   1.427   1.597  10.747  1.1215 -0.8075 -0.6633
  113OSM    C4S11748   1.554   1.707  10.485 -0.6815 -0.4599  0.3332
  113OSM    H4S11749   1.459   1.754  10.453 -0.1383  1.1371  1.0233
  113OSM    C5S11750   1.671   1.745  10.428 -0.0364  0.3021  0.1334
  113OSM    H5S11751   1.764   1.722  10.483  0.6409  4.2646  0.8060
  113OSM    C6S11752   1.700   1.841  10.315  0.1476  0.1372  0.1764
  113OSM    H6S11753   1.610   1.875  10.259  1.0336  1.7967 -0.2635
  113OSM    H6T11754   1.753   1.777  10.242 -1.0180 -0.8206  0.1559
  113OSM    C7S11755   1.795   1.956  10.353 -0.1633  0.3924  0.6624
  113OSM    H7S11756   1.895   1.916  10.380 -1.3443 -2.5272  0.9660
  113OSM    H7T11757   1.754   2.017  10.435  1.2516 -0.1229  1.7562
  113OSM    C8S11758   1.809   2.058  10.241  0.2918 -0.5149  0.1862
  113OSM    H8S11759   1.847   2.151  10.290  0.6265 -0.2194 -0.6160
  113OSM    H8T11760   1.708   2.078  10.199  0.6071  0.1075 -0.2821
  113OSM    C9S11761   1.891   2.015  10.116  0.2999 -0.1411  0.3691
  113OSM    H9S11762   1.871   1.906  10.107  0.1184 -0.0447 -0.3633
  113OSM    H9T11763   1.997   2.042  10.136 -0.3718  1.9064  1.4025
  113OSM   C10S11764   1.851   2.086   9.986 -0.1135 -0.3285  0.1030
  113OSM   H10S11765   1.854   2.195  10.007 -0.4304 -0.4642  0.8602
  113OSM   H10T11766   1.744   2.067   9.963  0.2661 -1.6689 -0.5590
  113OSM   C11S11767   1.930   2.041   9.858  0.5252 -0.0286 -0.2350
  113OSM   H11S11768   1.932   1.930   9.864  0.6137 -0.0545 -0.7242
  113OSM   H11T11769   2.037   2.070   9.870  0.6420  0.2527 -1.8226
  113OSM   C12S11770   1.872   2.084   9.723 -0.0271 -0.3128 -0.2324
  113OSM   H12S11771   1.896   2.190   9.699  0.3865  0.6460  3.9973
  113OSM   H12T11772   1.761   2.085   9.734  0.0795  1.5800  0.9284
  113OSM   C13S11773   1.915   1.996   9.611  0.0248 -0.1542  0.2419
  113OSM   H13S11774   1.867   1.898   9.630  5.2793 -2.9152  0.0950
  113OSM   H13T11775   2.022   1.967   9.614  0.1635  0.3301  0.1211
  113OSM   C14S11776   1.867   2.064   9.480  0.7040 -0.5963  0.9205
  113OSM   H14S11777   1.907   2.166   9.466  1.2215 -0.9063  0.1399
  113OSM   H14T11778   1.757   2.076   9.487  0.3241 -2.5464 -1.0831
  113OSM   C15S11779   1.919   1.970   9.363 -0.3568 -0.0582 -0.2284
  113OSM   H15S11780   1.860   1.876   9.349  1.7381 -1.0731 -2.5194
  113OSM   H15T11781   2.025   1.952   9.390  0.6757  1.8232 -2.8698
  113OSM   C16S11782   1.919   2.042   9.222 -0.5675  0.4101 -0.0039
  113OSM   H16S11783   1.976   2.136   9.237 -0.2262 -0.1206  2.2464
  113OSM   H16T11784   1.818   2.062   9.182  0.2094  3.2863 -0.6087
  113OSM   C17S11785   1.988   1.962   9.111 -0.4174 -0.3586 -0.8623
  113OSM   H17S11786   1.997   2.022   9.018 -2.2139  1.1916 -0.0836
  113OSM   H17T11787   1.936   1.873   9.071 -0.2418 -0.5152 -0.7397
  113OSM   C18S11788   2.136   1.930   9.146 -0.1030 -0.8053  0.1200
  113OSM   H18S11789   2.193   2.019   9.180 -0.6424 -1.0150  1.6009
  113OSM   H18T11790   2.180   1.899   9.049  0.1837 -0.1121  0.0241
  113OSM   H18U11791   2.129   1.846   9.219  0.8135  0.1875  1.3804
  113OSM    C1F11792   1.540   1.321  10.363 -0.4766 -0.0968 -1.0519
  113OSM     OF11793   1.437   1.259  10.395  0.5075 -0.1990 -0.0972
  113OSM    C2F11794   1.609   1.294  10.237  0.0256 -0.0482  0.1464
  113OSM    H2F11795   1.535   1.252  10.166  1.4071 -1.8991 -0.2216
  113OSM    H2G11796   1.690   1.222  10.263 -0.1784 -0.6334 -0.8421
  113OSM    C3F11797   1.661   1.425  10.174 -0.4127  0.4592  0.2494
  113OSM    H3F11798   1.704   1.495  10.249  3.0031 -1.9584  0.6462
  113OSM    H3G11799   1.565   1.465  10.133 -1.0372 -1.4602 -0.2143
  113OSM    C4F11800   1.755   1.406  10.062 -0.3493  0.0344 -0.2275
  113OSM    H4F11801   1.719   1.325   9.995 -1.8574 -0.2887  0.9562
  113OSM    H4G11802   1.859   1.392  10.097 -0.4305  0.6731  0.2731
  113OSM    C5F11803   1.765   1.533   9.978 -0.7197  0.4345 -0.2326
  113OSM    H5F11804   1.845   1.504   9.906  0.7601 -0.1343  1.5867
  113OSM    H5G11805   1.806   1.620  10.034  0.4731  0.6714 -1.4473
  113OSM    C6F11806   1.638   1.581   9.899  0.6184 -0.0015 -0.1636
  113OSM    H6F11807   1.567   1.623   9.973 -0.6791 -0.3644 -1.1789
  113OSM    H6G11808   1.592   1.495   9.843  1.7044 -0.4370 -0.4025
  113OSM    C7F11809   1.660   1.688   9.792 -0.2786  0.1198 -0.2427
  113OSM    H7F11810   1.722   1.649   9.709 -0.0140  0.3732 -0.1643
  113OSM    H7G11811   1.721   1.770   9.835  0.3912  1.5397 -3.7423
  113OSM    C8F11812   1.531   1.752   9.729 -0.0323  0.6864 -0.8575
  113OSM    H8F11813   1.568   1.826   9.654 -2.2992  1.5227 -1.1997
  113OSM    H8G11814   1.480   1.811   9.808  0.6815  2.4051 -1.6418
  113OSM    C9F11815   1.431   1.672   9.654  0.0602  0.0828 -0.2808
  113OSM    H9F11816   1.333   1.659   9.702 -0.8249 -1.5930 -2.4168
  113OSM   C10F11817   1.446   1.622   9.528  0.3471 -0.4663 -0.5018
  113OSM   H10F11818   1.366   1.558   9.487 -0.5365 -1.5107  2.6702
  113OSM   C11F11819   1.554   1.638   9.430 -0.7314 -0.0416  0.4003
  113OSM   H11F11820   1.611   1.548   9.396  0.2134  1.5277 -2.3342
  113OSM   H11G11821   1.631   1.707   9.471  1.6589 -0.3727 -3.2116
  113OSM   C12F11822   1.500   1.713   9.303 -0.7378 -0.1554 -0.4233
  113OSM   H12F11823   1.585   1.739   9.236 -0.7724  0.0711 -0.3808
  113OSM   H12G11824   1.456   1.807   9.341  1.6859  1.1516 -0.7382
  113OSM   C13F11825   1.410   1.633   9.217  0.5892 -0.0417  0.0325
  113OSM   H13F11826   1.321   1.589   9.267 -0.0085 -0.3584 -1.2760
  113OSM   H13G11827   1.466   1.550   9.169  2.3421  1.5998 -0.8075
  113OSM   C14F11828   1.358   1.710   9.088  0.1781  0.3216  0.4963
  113OSM   H14F11829   1.326   1.810   9.123 -3.5383  1.3869 -5.3169
  113OSM   H14G11830   1.282   1.640   9.049  2.9844 -2.7362  0.2389
  113OSM   C15F11831   1.456   1.719   8.968  0.1257 -0.4424  0.3416
  113OSM   H15F11832   1.489   1.616   8.942  0.6584 -0.1177 -0.2829
  113OSM   H15G11833   1.548   1.777   8.991  0.6856 -0.7388 -1.1149
  113OSM   C16F11834   1.400   1.779   8.838 -0.1039 -0.0006 -0.1377
  113OSM   H16F11835   1.472   1.750   8.759 -0.4432  0.1990 -0.5209
  113OSM   H16G11836   1.396   1.888   8.858  0.1964  0.0013 -0.0898
  113OSM   C17F11837   1.260   1.730   8.807  0.5503  0.0943  0.6205
  113OSM   H17F11838   1.191   1.785   8.874  1.3054 -0.0922  1.5591
  113OSM   H17G11839   1.262   1.622   8.830  1.6383 -0.9338 -3.8205
  113OSM   C18F11840   1.227   1.748   8.661  0.1332  0.7360 -0.0083
  113OSM   H18F11841   1.241   1.853   8.626  0.1032  0.9894  0.7284
  113OSM   H18G11842   1.124   1.719   8.631 -0.0987  2.0599 -0.5295
  113OSM   H18H11843   1.298   1.682   8.608  0.7896  1.5026 -0.0988
  114OSM      N11844   3.779   4.083  10.979  0.4206  0.3153 -0.7540
  114OSM    C1511845   3.772   3.940  11.037 -0.6445  0.1380  0.3825
  114OSM   H15A11846   3.724   3.876  10.965  1.2843 -0.6739 -0.2162
  114OSM   H15B11847   3.719   3.938  11.131  0.0168 -2.9820  0.7263
  114OSM   H15C11848   3.869   3.906  11.070 -0.1135  1.9545  0.7569
  114OSM    C1411849   3.864   4.078  10.853  0.0283  0.0834 -0.1552
  114OSM   H14A11850   3.967   4.056  10.879 -0.2566  0.0980  1.0340
  114OSM   H14B11851   3.879   4.178  10.814  1.2098  0.5765  1.5036
  114OSM   H14C11852   3.830   4.011  10.776 -1.8890  1.9773 -1.0103
  114OSM    C1311853   3.644   4.130  10.943 -0.2139  0.8015 -0.4783
  114OSM   H13A11854   3.572   4.130  11.023  0.0610  1.9250 -0.2162
  114OSM   H13B11855   3.608   4.069  10.862  0.0139  0.2207 -0.1410
  114OSM   H13C11856   3.644   4.227  10.894 -0.4040 -0.0153 -2.1141
  114OSM    C1211857   3.834   4.177  11.090 -0.4930  0.1170 -0.6790
  114OSM   H12A11858   3.934   4.141  11.113 -0.6059  0.4962  0.4423
  114OSM   H12B11859   3.778   4.159  11.181 -0.4676 -0.5892 -0.7983
  114OSM    C1111860   3.844   4.327  11.056 -0.6536 -0.0330  0.8389
  114OSM   H11A11861   3.911   4.338  10.969 -0.2966  1.7119  1.3216
  114OSM   H11B11862   3.897   4.375  11.141 -0.8058  0.7348  0.5024
  114OSM      P11863   3.694   4.543  11.003  0.4624 -0.1783  0.1140
  114OSM    O1311864   3.563   4.578  11.062 -0.4869  0.1978 -0.5543
  114OSM    O1411865   3.815   4.621  11.042 -0.1442 -0.1795  1.0238
  114OSM    O1111866   3.680   4.551  10.843 -0.7751  0.3831  0.1405
  114OSM    O1211867   3.718   4.386  11.024 -0.0031 -0.3093 -0.1519
  114OSM    C1S11868   3.581   4.479  10.772  0.4654  0.1254 -0.8837
  114OSM    H1S11869   3.481   4.526  10.785  1.1687  0.9651  1.7958
  114OSM    H1T11870   3.582   4.375  10.811  0.4313  0.8278  0.9972
  114OSM     NF11871   3.500   4.417  10.547  0.1036 -0.4501  0.6057
  114OSM    HNF11872   3.514   4.319  10.528  1.2925 -0.5675  2.0037
  114OSM    C2S11873   3.604   4.491  10.617  0.6051 -0.4894 -0.1640
  114OSM    H2S11874   3.597   4.598  10.588 -0.6830 -0.9833 -1.7553
  114OSM    C3S11875   3.747   4.453  10.567  0.0706 -0.4130  0.0377
  114OSM    H3S11876   3.753   4.342  10.569 -0.1590 -0.4677 -1.4137
  114OSM     O311877   3.856   4.512  10.639  0.3713  0.2182 -0.0743
  114OSM    HO311878   3.818   4.557  10.715  1.1086 -0.5428  0.7485
  114OSM    C4S11879   3.758   4.489  10.419  0.6572  0.5327 -0.5438
  114OSM    H4S11880   3.704   4.416  10.356  0.5115  1.3052 -1.3270
  114OSM    C5S11881   3.823   4.597  10.369  0.3430 -0.5987  0.5559
  114OSM    H5S11882   3.879   4.661  10.439 -1.3011 -0.2396  1.5677
  114OSM    C6S11883   3.829   4.625  10.220  0.1305 -0.5746  0.2678
  114OSM    H6S11884   3.918   4.689  10.204 -0.4831  0.7961  2.1083
  114OSM    H6T11885   3.747   4.695  10.194 -0.0701 -0.4674  1.1671
  114OSM    C7S11886   3.816   4.496  10.137 -0.1770 -1.3896  0.0052
  114OSM    H7S11887   3.718   4.450  10.160  0.0167 -2.0497 -0.4494
  114OSM    H7T11888   3.898   4.430  10.173  0.6063 -0.4389  0.0024
  114OSM    C8S11889   3.826   4.519   9.988 -0.3414 -0.1418 -0.2050
  114OSM    H8S11890   3.916   4.581   9.968 -0.6396  0.5849  0.6955
  114OSM    H8T11891   3.734   4.573   9.957 -0.6715  0.8365  2.3377
  114OSM    C9S11892   3.837   4.398   9.894 -1.2190  0.3940 -0.5878
  114OSM    H9S11893   3.740   4.345   9.880 -1.0477 -1.0467  3.0873
  114OSM    H9T11894   3.912   4.331   9.941 -1.7929 -0.7659 -1.3122
  114OSM   C10S11895   3.892   4.437   9.757  0.1533 -0.0084 -1.0740
  114OSM   H10S11896   3.981   4.502   9.769  0.2470  0.0279 -1.9911
  114OSM   H10T11897   3.810   4.490   9.704 -0.9609 -1.3923 -0.7763
  114OSM   C11S11898   3.924   4.325   9.661  0.2704  0.4527 -0.2617
  114OSM   H11S11899   3.837   4.257   9.667 -1.4157  2.4258 -1.6012
  114OSM   H11T11900   4.017   4.276   9.697  0.7577  1.1293 -0.5773
  114OSM   C12S11901   3.937   4.379   9.515 -0.1784  0.2086  0.0200
  114OSM   H12S11902   4.018   4.455   9.501 -0.3900  0.5673  0.7502
  114OSM   H12T11903   3.841   4.431   9.499  0.3740  1.1996 -0.1378
  114OSM   C13S11904   3.954   4.259   9.417 -0.1535 -0.0690 -0.5129
  114OSM   H13S11905   3.854   4.211   9.423 -1.1793  1.8823 -1.2688
  114OSM   H13T11906   4.035   4.187   9.442  0.0588 -0.5808 -2.5751
  114OSM   C14S11907   3.977   4.306   9.273  0.5913 -0.1091  0.3376
  114OSM   H14S11908   4.071   4.364   9.266 -0.9994  2.1709 -2.9639
  114OSM   H14T11909   3.897   4.380   9.254  0.7816 -0.0140 -0.0792
  114OSM   C15S11910   3.977   4.195   9.179  0.2223 -0.7449  0.1925
  114OSM   H15S11911   3.882   4.139   9.188  0.4334 -1.1389 -0.0162
  114OSM   H15T11912   4.060   4.123   9.193 -1.0882 -1.8662  2.4309
  114OSM   C16S11913   3.967   4.258   9.035 -0.0985 -0.3568 -1.0176
  114OSM   H16S11914   4.046   4.334   9.016 -0.3723  0.0540 -0.4934
  114OSM   H16T11915   3.867   4.305   9.035 -1.6688 -3.5711  0.3582
  114OSM   C17S11916   3.962   4.156   8.921  1.1380 -0.1781 -0.0093
  114OSM   H17S11917   3.933   4.211   8.829 -2.3390 -3.7777 -1.2048
  114OSM   H17T11918   3.885   4.079   8.941  1.2710 -0.0453  1.0453
  114OSM   C18S11919   4.095   4.084   8.889  0.1881  0.1995  0.0896
  114OSM   H18S11920   4.082   4.041   8.787  3.6795  1.1203 -0.8254
  114OSM   H18T11921   4.118   4.001   8.959 -1.2100  0.0279  0.3576
  114OSM   H18U11922   4.175   4.160   8.871  0.3197 -0.5167 -2.5478
  114OSM    C1F11923   3.379   4.469  10.521  0.6073  0.1514 -0.0270
  114OSM     OF11924   3.343   4.573  10.566 -0.0733 -0.3979 -0.2300
  114OSM    C2F11925   3.283   4.389  10.428 -0.5180 -0.3940 -0.1861
  114OSM    H2F11926   3.185   4.378  10.479 -0.9888  1.5151 -0.6563
  114OSM    H2G11927   3.331   4.291  10.405  1.0645  0.5149 -0.8256
  114OSM    C3F11928   3.255   4.470  10.296  0.0583 -0.7550 -0.6368
  114OSM    H3F11929   3.216   4.572  10.319  3.3720  0.6728 -1.0568
  114OSM    H3G11930   3.177   4.424  10.232 -1.2163 -1.0288  1.0917
  114OSM    C4F11931   3.377   4.488  10.218 -0.4019  0.2752  0.3676
  114OSM    H4F11932   3.421   4.394  10.179  1.1748  2.2033 -2.7560
  114OSM    H4G11933   3.463   4.522  10.279 -0.6012  1.1156  0.1937
  114OSM    C5F11934   3.370   4.593  10.104 -0.4726  0.2740  0.7841
  114OSM    H5F11935   3.476   4.607  10.074 -0.5597 -0.2131  0.2410
  114OSM    H5G11936   3.314   4.683  10.137 -0.3204  0.3822  0.7472
  114OSM    C6F11937   3.306   4.546   9.969  0.0481 -0.3563 -0.1864
  114OSM    H6F11938   3.202   4.508   9.982  1.0606 -4.2578 -2.6694
  114OSM    H6G11939   3.357   4.448   9.954  1.2949 -0.2877  3.1356
  114OSM    C7F11940   3.321   4.636   9.843 -0.5905 -0.4264  0.4316
  114OSM    H7F11941   3.320   4.743   9.873 -1.0844 -0.9125  2.1727
  114OSM    H7G11942   3.232   4.618   9.779 -0.0698  0.0731 -0.4559
  114OSM    C8F11943   3.457   4.628   9.775 -0.1174 -0.2389 -0.3055
  114OSM    H8F11944   3.530   4.668   9.847 -1.9719  0.2944  1.3310
  114OSM    H8G11945   3.464   4.701   9.692  0.6614 -1.1149 -1.0244
  114OSM    C9F11946   3.494   4.487   9.736  0.0836 -0.2309 -0.1115
  114OSM    H9F11947   3.528   4.424   9.819 -2.4431 -0.6393  0.6608
  114OSM   C10F11948   3.481   4.442   9.609  0.3040  0.2306 -0.0630
  114OSM   H10F11949   3.513   4.339   9.586  0.3397  0.1151  0.4895
  114OSM   C11F11950   3.425   4.515   9.487  0.9436 -0.4574 -0.1851
  114OSM   H11F11951   3.409   4.624   9.497 -1.4872 -1.0290  2.7401
  114OSM   H11G11952   3.320   4.479   9.479  0.9021 -0.1698 -0.9388
  114OSM   C12F11953   3.507   4.504   9.368 -0.8129 -0.2209  0.0251
  114OSM   H12F11954   3.611   4.542   9.372 -1.0972  0.7075 -1.3527
  114OSM   H12G11955   3.458   4.577   9.301 -0.4008 -0.0475 -0.0871
  114OSM   C13F11956   3.497   4.367   9.301 -0.2177  0.7618 -0.3897
  114OSM   H13F11957   3.390   4.340   9.285 -0.2598  0.3108  0.6094
  114OSM   H13G11958   3.537   4.290   9.370  2.3735  2.8326  0.4581
  114OSM   C14F11959   3.585   4.351   9.175  0.5166  0.4005  1.4051
  114OSM   H14F11960   3.671   4.288   9.207 -0.2034 -0.8238  0.9570
  114OSM   H14G11961   3.624   4.450   9.144  1.0081 -0.0299  0.6320
  114OSM   C15F11962   3.508   4.286   9.053 -0.2006 -0.4603  0.1163
  114OSM   H15F11963   3.434   4.364   9.024 -0.5016  0.0476  2.1713
  114OSM   H15G11964   3.446   4.196   9.074  0.5652 -1.3593 -1.4319
  114OSM   C16F11965   3.599   4.271   8.926 -0.2474 -0.6249 -0.2327
  114OSM   H16F11966   3.664   4.182   8.938  0.5560  0.2551  2.2938
  114OSM   H16G11967   3.653   4.366   8.904 -1.0163  0.1189  1.0419
  114OSM   C17F11968   3.528   4.241   8.793 -0.2869 -0.1879 -0.1920
  114OSM   H17F11969   3.464   4.330   8.772  0.8582  0.3098 -1.6932
  114OSM   H17G11970   3.446   4.165   8.796 -3.0138  2.6390 -0.5217
  114OSM   C18F11971   3.632   4.218   8.688 -0.3159 -0.5710  0.3457
  114OSM   H18F11972   3.593   4.159   8.603  0.3132 -0.2172 -0.1893
  114OSM   H18G11973   3.711   4.159   8.738 -0.4405  0.2425  1.5519
  114OSM   H18H11974   3.664   4.317   8.649  0.5636 -0.4667  1.2864
  115OSM      N11975   1.400   3.698  11.125 -0.2080  0.2531  0.5992
  115OSM    C1511976   1.521   3.726  11.205 -0.6577  0.4351  0.0170
  115OSM   H15A11977   1.593   3.647  11.193 -1.1084  0.4872 -3.5769
  115OSM   H15B11978   1.493   3.755  11.305  0.6840  1.1122  0.2183
  115OSM   H15C11979   1.573   3.812  11.165  0.9442 -1.1661 -1.4397
  115OSM    C1411980   1.277   3.782  11.163  0.1197  0.5542  0.5088
  115OSM   H14A11981   1.303   3.887  11.162 -1.1027  0.8889  1.4935
  115OSM   H14B11982   1.251   3.768  11.267  1.5052  1.7434  1.0305
  115OSM   H14C11983   1.191   3.770  11.099 -0.0401  0.5179  0.7290
  115OSM    C1311984   1.428   3.728  10.986  0.6615 -0.2495  0.0685
  115OSM   H13A11985   1.348   3.691  10.924 -0.6362 -2.1748  2.8111
  115OSM   H13B11986   1.522   3.688  10.951  1.3384  1.8849 -0.6325
  115OSM   H13C11987   1.445   3.833  10.965 -1.1629 -0.4048 -2.3748
  115OSM    C1211988   1.359   3.547  11.130 -0.1742  0.4767 -0.6934
  115OSM   H12A11989   1.340   3.538  11.236  0.9290 -0.1683 -0.5506
  115OSM   H12B11990   1.449   3.496  11.101 -0.2438  0.6683 -1.2567
  115OSM    C1111991   1.236   3.496  11.053 -0.2484 -0.0574 -0.5701
  115OSM   H11A11992   1.149   3.544  11.103  2.1643 -0.0400  3.9595
  115OSM   H11B11993   1.228   3.387  11.075  0.7498 -0.7348 -3.4283
  115OSM      P11994   1.276   3.425  10.807 -0.1143  0.2693  0.3056
  115OSM    O1311995   1.343   3.495  10.692 -0.3082 -0.6553 -0.0688
  115OSM    O1411996   1.344   3.307  10.868 -0.8086 -0.5420 -0.2724
  115OSM    O1111997   1.133   3.369  10.765 -0.1654 -0.3362 -0.3899
  115OSM    O1211998   1.237   3.532  10.917  0.1806 -0.1553  0.0268
  115OSM    C1S11999   1.027   3.461  10.724  0.2913  0.6562 -0.5715
  115OSM    H1S12000   1.065   3.566  10.722  2.2155 -0.0198 -0.4577
  115OSM    H1T12001   0.950   3.438  10.800  2.0117  3.8262  2.2518
  115OSM     NF12002   0.900   3.565  10.538 -0.0139 -0.9207  0.1133
  115OSM    HNF12003   0.801   3.555  10.547  0.1537 -3.5713 -0.7134
  115OSM    C2S12004   0.975   3.451  10.574 -0.0824  0.7075 -0.4227
  115OSM    H2S12005   1.071   3.457  10.519  0.2592  1.8874  0.2712
  115OSM    C3S12006   0.901   3.315  10.545  0.5532 -0.4734  0.8250
  115OSM    H3S12007   0.813   3.304  10.613 -1.3069 -0.4933 -1.5508
  115OSM     O312008   0.980   3.203  10.581 -0.1084  0.0942  0.0483
  115OSM    HO312009   1.050   3.239  10.636  1.7522  1.0382 -2.7763
  115OSM    C4S12010   0.867   3.302  10.398  0.0717 -0.0392  0.0814
  115OSM    H4S12011   0.946   3.320  10.324 -1.7959 -1.6871 -2.4188
  115OSM    C5S12012   0.744   3.269  10.348  0.0310 -0.7246  0.0528
  115OSM    H5S12013   0.659   3.252  10.416 -1.9416  1.1940 -1.8524
  115OSM    C6S12014   0.710   3.244  10.196 -0.5825  0.2510  0.7180
  115OSM    H6S12015   0.636   3.325  10.177 -2.1808 -0.8797  1.9912
  115OSM    H6T12016   0.673   3.141  10.180  0.7512 -0.2925  1.0554
  115OSM    C7S12017   0.823   3.260  10.093  0.7705 -0.4977 -1.2203
  115OSM    H7S12018   0.913   3.204  10.127  0.6489 -0.4749 -0.8527
  115OSM    H7T12019   0.846   3.368  10.090 -0.7805 -0.0763  0.9004
  115OSM    C8S12020   0.777   3.225   9.952  0.1542  0.2289 -0.6318
  115OSM    H8S12021   0.715   3.133   9.960 -0.1280  0.5867  1.8852
  115OSM    H8T12022   0.864   3.178   9.903  0.1057  1.2072 -1.6714
  115OSM    C9S12023   0.717   3.341   9.880  0.7029 -0.1607  0.2181
  115OSM    H9S12024   0.799   3.408   9.845  0.4401  0.6453  1.1565
  115OSM    H9T12025   0.641   3.393   9.942 -0.5697 -0.8827 -0.7197
  115OSM   C10S12026   0.646   3.301   9.755  0.3613  0.3824 -0.6387
  115OSM   H10S12027   0.581   3.382   9.717 -0.8765  0.3201  1.3159
  115OSM   H10T12028   0.577   3.216   9.770  0.3114  0.3256 -1.1723
  115OSM   C11S12029   0.730   3.261   9.638 -0.4362 -0.1126  0.3512
  115OSM   H11S12030   0.783   3.168   9.667  1.9536  1.4125  1.0686
  115OSM   H11T12031   0.804   3.338   9.606  0.8007 -1.1416  0.7323
  115OSM   C12S12032   0.646   3.239   9.512  0.0018  0.4871  1.1149
  115OSM   H12S12033   0.604   3.340   9.495 -1.5280 -0.1917  0.8238
  115OSM   H12T12034   0.561   3.169   9.524 -0.7467  0.7011 -2.5159
  115OSM   C13S12035   0.731   3.188   9.389 -0.3227  0.5469  0.0480
  115OSM   H13S12036   0.780   3.096   9.427 -1.7970 -1.2850 -2.3756
  115OSM   H13T12037   0.806   3.269   9.373  1.1167 -1.0233 -1.4303
  115OSM   C14S12038   0.648   3.160   9.261 -0.2408  0.0813 -0.3096
  115OSM   H14S12039   0.572   3.241   9.255 -2.5367 -2.1018 -2.0873
  115OSM   H14T12040   0.594   3.065   9.281  1.3189 -0.8204 -0.3783
  115OSM   C15S12041   0.729   3.152   9.126 -0.2635 -0.1519 -0.9599
  115OSM   H15S12042   0.810   3.076   9.129 -0.2589 -0.0855  1.2107
  115OSM   H15T12043   0.772   3.255   9.121 -2.0323  0.6473 -0.4372
  115OSM   C16S12044   0.645   3.143   8.999  0.0483 -0.3951  0.9447
  115OSM   H16S12045   0.542   3.180   9.016 -1.0683 -1.3833 -3.1508
  115OSM   H16T12046   0.630   3.033   8.991 -1.0058 -0.1215 -1.2314
  115OSM   C17S12047   0.715   3.204   8.879 -0.0776 -0.0560 -0.1512
  115OSM   H17S12048   0.708   3.313   8.896  0.0891 -0.1508  0.5552
  115OSM   H17T12049   0.656   3.180   8.788 -0.1769  1.0368 -0.3735
  115OSM   C18S12050   0.857   3.158   8.863  0.7561  0.8459  0.3588
  115OSM   H18S12051   0.886   3.193   8.761  1.9170 -1.4059 -0.1128
  115OSM   H18T12052   0.870   3.048   8.871 -1.9318  0.1940 -3.0558
  115OSM   H18U12053   0.923   3.212   8.934  0.8692 -0.1749  1.0216
  115OSM    C1F12054   0.945   3.687  10.516 -0.2172 -0.0582  0.7727
  115OSM     OF12055   1.062   3.711  10.538  0.0704  0.1886 -0.8601
  115OSM    C2F12056   0.850   3.802  10.483 -0.1157  0.0232 -0.2562
  115OSM    H2F12057   0.860   3.887  10.554 -0.2433  1.4213 -1.8742
  115OSM    H2G12058   0.747   3.762  10.488 -0.0937 -0.1798 -1.3951
  115OSM    C3F12059   0.874   3.851  10.338 -0.1108  0.9495  0.3303
  115OSM    H3F12060   0.970   3.907  10.327  0.2414  0.0402 -1.4020
  115OSM    H3G12061   0.788   3.916  10.314  0.0636  0.9009 -0.4205
  115OSM    C4F12062   0.879   3.740  10.224 -0.3805  0.0602 -0.0852
  115OSM    H4F12063   0.786   3.687  10.257  0.1700 -0.5031  0.5890
  115OSM    H4G12064   0.970   3.680  10.244 -2.3663 -3.0646  0.0184
  115OSM    C5F12065   0.866   3.818  10.091  0.6170  0.0645 -0.6246
  115OSM    H5F12066   0.963   3.865  10.065  2.5586 -2.9300  0.9271
  115OSM    H5G12067   0.790   3.899  10.098  0.7306  0.1849 -0.8065
  115OSM    C6F12068   0.825   3.732   9.974  0.1756  0.9615 -0.2027
  115OSM    H6F12069   0.726   3.688  10.002  0.7478  0.6277  1.3297
  115OSM    H6G12070   0.894   3.645   9.979 -1.6814 -0.5778 -0.5519
  115OSM    C7F12071   0.832   3.794   9.834 -0.4971 -0.7668 -0.5447
  115OSM    H7F12072   0.928   3.851   9.832 -1.7336  1.4340  1.8266
  115OSM    H7G12073   0.762   3.877   9.812 -1.5543 -1.1462  1.3659
  115OSM    C8F12074   0.827   3.696   9.716 -0.0534 -0.1593 -0.0803
  115OSM    H8F12075   0.720   3.683   9.689  0.2851 -1.0756 -1.0434
  115OSM    H8G12076   0.864   3.597   9.750 -0.7462 -0.2105  0.5273
  115OSM    C9F12077   0.910   3.752   9.595 -0.0622 -0.8520 -0.7371
  115OSM    H9F12078   1.001   3.806   9.625 -0.7768 -0.5587  0.9929
  115OSM   C10F12079   0.884   3.735   9.460  0.0824  0.2801  0.1313
  115OSM   H10F12080   0.947   3.790   9.388  1.1070 -1.1603 -0.0972
  115OSM   C11F12081   0.764   3.659   9.392 -0.1501  0.6354  0.2264
  115OSM   H11F12082   0.693   3.728   9.343 -0.5709  0.3521  0.4310
  115OSM   H11G12083   0.713   3.593   9.465  0.8733 -0.6626 -0.1997
  115OSM   C12F12084   0.824   3.557   9.296  0.0975  0.3364  0.5863
  115OSM   H12F12085   0.738   3.495   9.261  1.3517 -0.8597 -0.4429
  115OSM   H12G12086   0.898   3.492   9.347 -0.5050 -0.3815  0.5709
  115OSM   C13F12087   0.879   3.621   9.172  0.3917 -0.6050  0.4904
  115OSM   H13F12088   0.963   3.691   9.190 -1.2113  2.1256 -2.1498
  115OSM   H13G12089   0.795   3.686   9.140  1.0947  1.0309  1.8920
  115OSM   C14F12090   0.921   3.521   9.054  0.0120 -0.2030  0.4835
  115OSM   H14F12091   0.826   3.466   9.039  0.1363 -0.7841  1.7353
  115OSM   H14G12092   0.998   3.443   9.071 -1.4192 -1.2257  2.4726
  115OSM   C15F12093   0.949   3.600   8.931 -0.1816 -0.3568  0.6124
  115OSM   H15F12094   1.032   3.673   8.941 -0.7440  0.6235 -1.6069
  115OSM   H15G12095   0.858   3.655   8.898 -0.0387 -1.0017 -0.8864
  115OSM   C16F12096   0.964   3.511   8.804 -0.0586  0.8025  0.5950
  115OSM   H16F12097   0.893   3.430   8.831  1.5500 -0.7713  0.1760
  115OSM   H16G12098   1.066   3.467   8.807 -0.4567 -0.3017 -1.7248
  115OSM   C17F12099   0.937   3.554   8.660  0.8069 -0.5318  0.0088
  115OSM   H17F12100   0.837   3.602   8.652  1.5219  0.8541 -0.6159
  115OSM   H17G12101   0.944   3.472   8.585  0.8569 -0.8529  0.3633
  115OSM   C18F12102   1.031   3.667   8.631 -0.0767 -0.0915 -0.2642
  115OSM   H18F12103   1.033   3.692   8.523  0.4762  0.7248 -0.0678
  115OSM   H18G12104   1.132   3.627   8.653 -0.3999 -1.9778 -1.9911
  115OSM   H18H12105   1.011   3.760   8.688 -0.7966 -0.5219  0.1957
  116OSM      N12106   4.170   6.675  11.015  0.1327  0.4972 -0.2423
  116OSM    C1512107   4.152   6.731  11.151  0.8945 -0.4444 -0.4198
  116OSM   H15A12108   4.238   6.691  11.203  1.0279  0.2107 -0.1423
  116OSM   H15B12109   4.065   6.686  11.196  1.0532 -0.4456 -0.1100
  116OSM   H15C12110   4.132   6.837  11.146  0.1081 -0.6779 -2.8162
  116OSM    C1412111   4.296   6.735  10.958 -0.0772 -0.1680  0.5533
  116OSM   H14A12112   4.376   6.735  11.030  0.4492 -0.9053 -0.0161
  116OSM   H14B12113   4.282   6.832  10.912 -0.1169  0.0332  0.9924
  116OSM   H14C12114   4.337   6.672  10.880  0.3007  2.1673 -1.1947
  116OSM    C1312115   4.181   6.525  11.013  0.5976  0.1550 -0.2936
  116OSM   H13A12116   4.236   6.486  11.098 -2.2313  3.1411  3.0534
  116OSM   H13B12117   4.234   6.490  10.926 -0.0698 -1.6520  0.0004
  116OSM   H13C12118   4.082   6.486  11.025  0.4812 -0.2244 -2.3857
  116OSM    C1212119   4.058   6.721  10.926  0.8039  1.0385  0.3227
  116OSM   H12A12120   4.060   6.691  10.822  0.8270 -1.1284  0.9372
  116OSM   H12B12121   4.063   6.829  10.924  1.2147  1.0107 -0.4807
  116OSM    C1112122   3.913   6.702  10.980 -0.2470  0.7780 -0.0059
  116OSM   H11A12123   3.899   6.732  11.087  2.6767  1.2565  0.2745
  116OSM   H11B12124   3.886   6.595  10.979  0.7244  0.5403 -0.7654
  116OSM      P12125   3.770   6.913  10.936  0.0087  0.2629 -0.0263
  116OSM    O1312126   3.659   6.906  11.028 -0.2929 -0.3069  0.5608
  116OSM    O1412127   3.883   7.004  10.967  0.2119 -0.3407  0.7804
  116OSM    O1112128   3.713   6.969  10.797  0.0095  0.1800  0.0751
  116OSM    O1212129   3.830   6.777  10.892 -0.2012 -0.2953 -0.4912
  116OSM    C1S12130   3.815   6.970  10.686 -0.0279 -0.2328  0.6718
  116OSM    H1S12131   3.832   6.866  10.654 -0.9052  0.2247 -1.3531
  116OSM    H1T12132   3.906   7.025  10.719  1.4122 -2.0362 -0.2645
  116OSM     NF12133   3.881   7.056  10.457 -0.4137  0.5772 -0.4321
  116OSM    HNF12134   3.941   7.135  10.447 -0.3819  0.6213  0.1267
  116OSM    C2S12135   3.778   7.064  10.567  0.1555 -0.0256 -0.7432
  116OSM    H2S12136   3.682   7.022  10.531  1.1267 -3.2144  0.1974
  116OSM    C3S12137   3.749   7.202  10.625 -0.2569  0.2300  0.3695
  116OSM    H3S12138   3.848   7.231  10.668 -0.9203  1.0774  1.3406
  116OSM     O312139   3.647   7.211  10.724 -0.0789 -0.9845 -0.1158
  116OSM    HO312140   3.641   7.116  10.735  0.5607 -1.1624 -1.2034
  116OSM    C4S12141   3.714   7.293  10.516  0.7080 -0.2519  0.0026
  116OSM    H4S12142   3.627   7.258  10.458 -0.9272  0.5125  1.9020
  116OSM    C5S12143   3.764   7.413  10.485  0.2080 -0.2545 -0.3865
  116OSM    H5S12144   3.835   7.452  10.560 -1.5409  0.0981  1.1283
  116OSM    C6S12145   3.717   7.514  10.383 -0.1558 -0.2195 -0.0951
  116OSM    H6S12146   3.707   7.619  10.420 -0.9985 -0.8458  1.4885
  116OSM    H6T12147   3.614   7.484  10.352  0.5131 -1.0205 -1.5657
  116OSM    C7S12148   3.802   7.529  10.253  0.7290  0.0870  0.3867
  116OSM    H7S12149   3.911   7.539  10.272  0.7609  0.1299  0.1811
  116OSM    H7T12150   3.779   7.607  10.178 -0.7042 -1.7633 -1.1441
  116OSM    C8S12151   3.791   7.401  10.171 -0.5826  0.2136 -0.2968
  116OSM    H8S12152   3.684   7.377  10.156 -0.4770 -0.7999  0.5345
  116OSM    H8T12153   3.833   7.314  10.226  1.6409  0.6722 -1.2088
  116OSM    C9S12154   3.858   7.402  10.034 -0.6823 -0.0556  0.3173
  116OSM    H9S12155   3.967   7.393  10.052 -1.0107  0.3408  2.5978
  116OSM    H9T12156   3.829   7.496   9.982 -2.6241 -0.9735 -0.3429
  116OSM   C10S12157   3.817   7.276   9.960  0.2749  0.0053 -0.4357
  116OSM   H10S12158   3.708   7.283   9.938  0.6768 -0.1940 -2.7106
  116OSM   H10T12159   3.832   7.187  10.025 -1.8871 -0.2247 -0.1876
  116OSM   C11S12160   3.900   7.271   9.830  0.3412 -0.5471  0.1236
  116OSM   H11S12161   3.912   7.162   9.809  0.1151 -0.8443  1.4609
  116OSM   H11T12162   4.006   7.301   9.835  0.7996 -1.5403 -2.8725
  116OSM   C12S12163   3.825   7.354   9.712  0.0581 -0.9312 -0.6859
  116OSM   H12S12164   3.828   7.453   9.763 -5.1876 -1.3644  0.8176
  116OSM   H12T12165   3.719   7.321   9.717 -0.8603  1.8470 -0.7302
  116OSM   C13S12166   3.884   7.353   9.572 -0.3965  0.3688 -0.3870
  116OSM   H13S12167   3.898   7.250   9.532  0.4779  1.2851 -2.5119
  116OSM   H13T12168   3.988   7.393   9.575 -0.9674  2.0332 -1.9356
  116OSM   C14S12169   3.813   7.451   9.477  0.5038 -0.2457  0.3289
  116OSM   H14S12170   3.823   7.557   9.509  0.5932  0.1356 -0.9449
  116OSM   H14T12171   3.706   7.422   9.476  0.1085  1.0429  2.0206
  116OSM   C15S12172   3.866   7.441   9.332 -0.0614 -0.0724  0.1940
  116OSM   H15S12173   3.852   7.341   9.286 -0.1415  0.4197 -0.8736
  116OSM   H15T12174   3.974   7.465   9.335 -0.1280  0.2705 -0.0639
  116OSM   C16S12175   3.809   7.537   9.229  0.4918 -0.7372  0.5353
  116OSM   H16S12176   3.851   7.640   9.231 -2.3974  0.5068  0.6216
  116OSM   H16T12177   3.699   7.546   9.242  0.2045 -0.5508 -1.8447
  116OSM   C17S12178   3.837   7.497   9.085  0.3456 -0.1677  1.0509
  116OSM   H17S12179   3.790   7.401   9.057 -0.9995  0.7592  0.0498
  116OSM   H17T12180   3.946   7.497   9.063  0.3106  0.3733  0.8634
  116OSM   C18S12181   3.781   7.599   8.987 -0.0057 -0.0376  0.1426
  116OSM   H18S12182   3.840   7.605   8.893  1.7079 -0.6698  1.1757
  116OSM   H18T12183   3.791   7.700   9.033 -0.5330 -0.1213  0.4392
  116OSM   H18U12184   3.674   7.584   8.959  0.0170  2.3847 -1.4352
  116OSM    C1F12185   3.913   6.954  10.381 -0.2473 -0.6034  0.1004
  116OSM     OF12186   3.880   6.839  10.409  0.1126  0.2790  0.2796
  116OSM    C2F12187   3.980   6.978  10.254  0.7951 -0.1685 -0.3722
  116OSM    H2F12188   4.087   6.957  10.272  0.4970  0.6832  2.6042
  116OSM    H2G12189   3.969   7.081  10.215 -1.5315 -0.3062 -0.1422
  116OSM    C3F12190   3.929   6.872  10.148  0.4623  0.2997 -0.1053
  116OSM    H3F12191   3.822   6.895  10.132  0.6085  0.0991 -1.4799
  116OSM    H3G12192   3.925   6.767  10.183  1.0466  0.2888 -0.0637
  116OSM    C4F12193   4.008   6.895  10.019  0.0666  0.8371  0.4916
  116OSM    H4F12194   4.114   6.874  10.044 -0.0089  1.5227  1.4171
  116OSM    H4G12195   4.008   7.003   9.991  0.3063  0.7991  0.3469
  116OSM    C5F12196   3.964   6.794   9.916 -0.0379  0.1247 -0.2643
  116OSM    H5F12197   3.863   6.805   9.871 -0.4122  1.1213  0.7862
  116OSM    H5G12198   3.979   6.692   9.958  0.7970  0.7194  0.9033
  116OSM    C6F12199   4.064   6.810   9.803  0.3901 -0.1350 -0.0470
  116OSM    H6F12200   4.164   6.781   9.843  0.5175 -1.4238 -1.2569
  116OSM    H6G12201   4.057   6.915   9.769 -1.5178  0.5694  2.3420
  116OSM    C7F12202   4.034   6.730   9.674 -0.1510 -0.1107 -1.1712
  116OSM    H7F12203   3.934   6.755   9.634 -0.9440 -2.7706 -0.9322
  116OSM    H7G12204   4.034   6.623   9.705 -0.1174  0.6949  1.7624
  116OSM    C8F12205   4.136   6.756   9.566 -0.9331  0.0241  0.5319
  116OSM    H8F12206   4.238   6.731   9.604 -1.2592 -1.3589  0.5148
  116OSM    H8G12207   4.143   6.866   9.547 -3.1949  0.4473  2.0870
  116OSM    C9F12208   4.120   6.680   9.443  0.0097  0.0557  0.3704
  116OSM    H9F12209   4.128   6.570   9.451 -0.7691 -0.2237 -2.2052
  116OSM   C10F12210   4.075   6.726   9.326  0.0426  0.1923 -0.5299
  116OSM   H10F12211   4.071   6.655   9.241 -1.3726 -1.2699  0.7186
  116OSM   C11F12212   4.030   6.866   9.286  0.7219  0.2125  0.2178
  116OSM   H11F12213   4.056   6.953   9.350  0.7022 -1.0706  2.0335
  116OSM   H11G12214   3.919   6.863   9.288  0.7582 -0.9610  1.7352
  116OSM   C12F12215   4.071   6.890   9.133  0.0535  0.0134 -0.1823
  116OSM   H12F12216   4.049   6.804   9.066  1.6412 -0.1794 -0.4704
  116OSM   H12G12217   4.181   6.900   9.137  0.0971  0.1731 -1.6003
  116OSM   C13F12218   4.028   7.025   9.083 -0.2156 -0.7514 -0.0768
  116OSM   H13F12219   4.071   7.116   9.130 -0.2005 -0.3268 -0.9103
  116OSM   H13G12220   3.920   7.034   9.106 -0.7213  1.6874 -3.1438
  116OSM   C14F12221   4.037   7.031   8.933  0.0663 -0.0896  0.2092
  116OSM   H14F12222   3.981   6.953   8.876  0.9496 -0.9242  0.4533
  116OSM   H14G12223   4.145   7.030   8.907 -0.6151  0.2314 -2.7910
  116OSM   C15F12224   3.994   7.164   8.876 -0.0641  0.3414  0.2778
  116OSM   H15F12225   4.057   7.177   8.785  2.2812 -0.5692  1.7507
  116OSM   H15G12226   4.026   7.252   8.935  1.4496 -0.5604  0.8247
  116OSM   C16F12227   3.843   7.172   8.842 -0.2793  0.4338  0.3781
  116OSM   H16F12228   3.773   7.170   8.928 -1.2895  1.2178 -0.4089
  116OSM   H16G12229   3.824   7.086   8.774  1.4556  1.3351 -1.3127
  116OSM   C17F12230   3.825   7.292   8.754 -0.0351 -0.3688  0.5976
  116OSM   H17F12231   3.891   7.273   8.667  0.1969  0.4919  0.5766
  116OSM   H17G12232   3.855   7.381   8.814 -0.1035 -0.7661  1.2190
  116OSM   C18F12233   3.683   7.317   8.706  0.3102  0.2784  0.1417
  116OSM   H18F12234   3.659   7.230   8.641 -0.1559  0.7695 -0.3481
  116OSM   H18G12235   3.673   7.410   8.647 -2.6512  0.3599  0.7203
  116OSM   H18H12236   3.604   7.326   8.783  1.5503 -0.3936  1.5203
  117OSM      N12237   1.134   0.486  10.627 -0.9131 -0.1734 -0.5928
  117OSM    C1512238   1.103   0.357  10.572  0.5032  0.0350  0.3823
  117OSM   H15A12239   1.083   0.274  10.638 -0.3357  0.5548  0.7904
  117OSM   H15B12240   1.179   0.317  10.507  0.3484 -1.9754  1.4290
  117OSM   H15C12241   1.019   0.370  10.505 -0.3985 -0.3130  1.4322
  117OSM    C1412242   1.245   0.469  10.723  0.9020 -1.1201  0.1728
  117OSM   H14A12243   1.229   0.375  10.775 -0.9816 -0.4128  0.9124
  117OSM   H14B12244   1.232   0.544  10.799  0.6468 -0.7219 -0.2622
  117OSM   H14C12245   1.341   0.460  10.673 -0.0229  1.2567 -2.1328
  117OSM    C1312246   1.180   0.582  10.520  0.2177  0.9218 -0.3542
  117OSM   H13A12247   1.255   0.531  10.461  1.6993 -0.6051  2.7643
  117OSM   H13B12248   1.211   0.674  10.567 -1.9812  0.5427  1.8996
  117OSM   H13C12249   1.104   0.615  10.450 -0.3269 -0.8925 -0.6283
  117OSM    C1212250   1.007   0.535  10.695 -0.0282 -1.3149  0.5702
  117OSM   H12A12251   1.003   0.491  10.793  2.2419  0.8142  1.6799
  117OSM   H12B12252   0.923   0.513  10.630  1.5524  0.2353 -2.1013
  117OSM    C1112253   1.004   0.690  10.725  0.0453 -0.2791 -0.8638
  117OSM   H11A12254   0.915   0.713  10.788 -0.9583  0.3967 -2.5106
  117OSM   H11B12255   0.987   0.742  10.629  1.9859 -0.0018 -1.0731
  117OSM      P12256   1.132   0.887  10.832  0.3336  0.3434 -0.1465
  117OSM    O1312257   1.024   0.928  10.925  0.4038 -0.3308 -0.5946
  117OSM    O1412258   1.263   0.907  10.892 -0.3119  0.2263 -0.3558
  117OSM    O1112259   1.125   0.956  10.690  0.3607 -0.2429  0.7097
  117OSM    O1212260   1.115   0.735  10.800 -0.5434  0.0627 -0.3084
  117OSM    C1S12261   1.241   0.977  10.611  0.3469  0.4080  0.8143
  117OSM    H1S12262   1.308   0.891  10.589 -1.2682 -1.0740  1.5545
  117OSM    H1T12263   1.306   1.058  10.651 -0.1701  0.4812  1.5090
  117OSM     NF12264   1.312   1.033  10.371 -0.4249 -0.3083  0.1743
  117OSM    HNF12265   1.359   1.120  10.370  0.6622 -0.8699 -2.9066
  117OSM    C2S12266   1.203   1.031  10.468 -0.5811  0.5964  0.5819
  117OSM    H2S12267   1.137   0.955  10.422  0.3453  0.8280 -1.1829
  117OSM    C3S12268   1.142   1.171  10.485 -0.1100  0.1469 -0.4289
  117OSM    H3S12269   1.220   1.236  10.530  0.1972 -0.5458  0.0543
  117OSM     O312270   1.025   1.172  10.568 -0.0127 -0.0726 -0.1598
  117OSM    HO312271   1.027   1.081  10.600 -2.0407 -0.5159 -1.2169
  117OSM    C4S12272   1.092   1.219  10.354  0.1925 -0.1045 -0.0236
  117OSM    H4S12273   1.001   1.167  10.322  0.1917  0.1265 -0.3977
  117OSM    C5S12274   1.135   1.328  10.290 -0.3441 -0.8285 -0.1122
  117OSM    H5S12275   1.227   1.374  10.327  1.1522 -2.6523 -1.4987
  117OSM    C6S12276   1.085   1.376  10.160 -0.3062  1.0788 -0.6997
  117OSM    H6S12277   1.032   1.472  10.176  0.3007  1.0918  1.3358
  117OSM    H6T12278   1.010   1.306  10.116  2.3867 -2.3329 -0.0231
  117OSM    C7S12279   1.195   1.389  10.048 -0.6152 -0.1502  0.2394
  117OSM    H7S12280   1.266   1.472  10.069 -3.2005  2.2461 -0.1331
  117OSM    H7T12281   1.142   1.412   9.953  2.7763  0.3963 -1.6089
  117OSM    C8S12282   1.271   1.254  10.032 -0.5062  0.0122 -0.5840
  117OSM    H8S12283   1.196   1.172  10.034  1.2843 -1.7439 -2.0738
  117OSM    H8T12284   1.343   1.243  10.116 -0.7649 -0.0030 -0.3653
  117OSM    C9S12285   1.360   1.242   9.905 -0.3070 -0.4121 -0.1167
  117OSM    H9S12286   1.417   1.147   9.912  1.8675  0.9740  1.4325
  117OSM    H9T12287   1.438   1.321   9.915 -2.1101  1.2511  1.1332
  117OSM   C10S12288   1.287   1.267   9.764  0.5064 -0.1787  0.8851
  117OSM   H10S12289   1.350   1.305   9.681 -0.5356 -0.1931  0.0671
  117OSM   H10T12290   1.221   1.354   9.782 -0.1125 -0.5405  0.4101
  117OSM   C11S12291   1.205   1.143   9.728  0.6099 -0.3421  0.0642
  117OSM   H11S12292   1.152   1.117   9.823  3.7224 -1.8943  1.4414
  117OSM   H11T12293   1.276   1.060   9.706 -2.0935 -2.4631 -1.0176
  117OSM   C12S12294   1.095   1.157   9.620  0.5185  0.1545 -0.1621
  117OSM   H12S12295   1.023   1.231   9.663  0.1020  0.7201 -1.7931
  117OSM   H12T12296   1.032   1.065   9.613 -0.9999  1.1605  0.1024
  117OSM   C13S12297   1.131   1.214   9.484 -0.2820  0.2627  0.7628
  117OSM   H13S12298   1.193   1.306   9.490  1.6660 -0.8874 -1.2809
  117OSM   H13T12299   1.036   1.233   9.430  1.2032  0.2841 -1.9062
  117OSM   C14S12300   1.205   1.115   9.393  0.4186  0.4255  0.0355
  117OSM   H14S12301   1.151   1.018   9.393 -0.7143  1.0438 -0.3473
  117OSM   H14T12302   1.295   1.093   9.455  1.8246  2.1363 -1.3444
  117OSM   C15S12303   1.255   1.167   9.264 -0.6422  0.0721 -0.1380
  117OSM   H15S12304   1.301   1.077   9.217  0.1720  1.3827 -1.9516
  117OSM   H15T12305   1.327   1.252   9.275 -0.3377 -0.1270 -0.5694
  117OSM   C16S12306   1.146   1.218   9.171  0.4299  0.5298  0.3870
  117OSM   H16S12307   1.116   1.315   9.217  0.4908  0.0552  1.4254
  117OSM   H16T12308   1.053   1.156   9.173 -0.0345  1.1408 -1.3574
  117OSM   C17S12309   1.182   1.239   9.025 -0.3970 -0.1184  0.3182
  117OSM   H17S12310   1.100   1.292   8.972  1.4566  0.5827 -1.9302
  117OSM   H17T12311   1.204   1.141   8.979 -1.1407 -0.3375  0.4193
  117OSM   C18S12312   1.312   1.325   9.000  0.3697 -0.0457 -0.2933
  117OSM   H18S12313   1.328   1.324   8.891 -1.2922  0.6226 -0.5579
  117OSM   H18T12314   1.398   1.274   9.049  1.2927 -0.6904 -2.5392
  117OSM   H18U12315   1.299   1.430   9.032  1.2432 -0.3594  1.1409
  117OSM    C1F12316   1.380   0.925  10.324 -0.6518  0.1094 -0.1631
  117OSM     OF12317   1.338   0.810  10.339  0.5018 -0.0655 -0.3368
  117OSM    C2F12318   1.504   0.957  10.260 -0.2235 -0.1263  0.4790
  117OSM    H2F12319   1.565   1.007  10.338  2.2976 -1.2058 -0.7293
  117OSM    H2G12320   1.488   1.034  10.182  0.7946  1.6678  2.0065
  117OSM    C3F12321   1.569   0.836  10.188 -0.4598  0.4224  0.3749
  117OSM    H3F12322   1.486   0.787  10.132 -0.1869 -0.6103  0.8629
  117OSM    H3G12323   1.618   0.760  10.252 -0.2168  2.3285  2.5069
  117OSM    C4F12324   1.676   0.876  10.081 -0.5595 -0.1445 -0.4062
  117OSM    H4F12325   1.761   0.895  10.150  0.4897 -1.9407 -1.1526
  117OSM    H4G12326   1.648   0.976  10.042  1.9058  0.7698  0.0973
  117OSM    C5F12327   1.713   0.770   9.974 -0.8937 -0.5695 -0.0251
  117OSM    H5F12328   1.757   0.677  10.017  1.1436  0.0572 -0.7146
  117OSM    H5G12329   1.800   0.817   9.924 -0.5851 -1.5786 -0.4542
  117OSM    C6F12330   1.605   0.741   9.871  0.0231  0.4859  0.4453
  117OSM    H6F12331   1.574   0.839   9.828 -0.2830  1.4728  2.8243
  117OSM    H6G12332   1.525   0.700   9.937  0.5933  1.3286  1.6870
  117OSM    C7F12333   1.637   0.662   9.744 -0.5474 -0.8012  0.0660
  117OSM    H7F12334   1.667   0.560   9.777  0.0528 -0.2776  1.1738
  117OSM    H7G12335   1.729   0.709   9.704 -0.1767 -0.1301  1.6351
  117OSM    C8F12336   1.519   0.670   9.637 -0.1681  0.0967 -0.0163
  117OSM    H8F12337   1.428   0.639   9.694 -0.7365 -1.9933 -1.9653
  117OSM    H8G12338   1.524   0.584   9.567  3.0192  0.4619 -0.3062
  117OSM    C9F12339   1.491   0.806   9.588  0.6047  0.0939  0.2455
  117OSM    H9F12340   1.422   0.861   9.653 -0.3467  0.9458 -1.4319
  117OSM   C10F12341   1.527   0.848   9.465  0.0216 -0.3601  0.6554
  117OSM   H10F12342   1.491   0.946   9.430 -3.6194 -3.0501 -3.6584
  117OSM   C11F12343   1.610   0.771   9.364 -0.1079  0.7213 -0.1760
  117OSM   H11F12344   1.651   0.683   9.419  1.8203  1.8045  0.1520
  117OSM   H11G12345   1.703   0.827   9.341  1.2865 -0.4559  2.3178
  117OSM   C12F12346   1.528   0.754   9.233 -0.7362  0.4975 -0.2178
  117OSM   H12F12347   1.427   0.718   9.260 -1.5076  0.2104 -3.3259
  117OSM   H12G12348   1.573   0.678   9.166 -0.1275  0.1839  0.5353
  117OSM   C13F12349   1.515   0.884   9.146  0.1511 -0.6087 -0.1245
  117OSM   H13F12350   1.618   0.892   9.106  0.0942 -0.5940 -0.2661
  117OSM   H13G12351   1.501   0.974   9.210 -0.4070 -0.6059 -0.2436
  117OSM   C14F12352   1.408   0.878   9.036 -0.3765  0.5427  0.7672
  117OSM   H14F12353   1.409   0.977   8.986  0.0617 -0.9978 -2.4188
  117OSM   H14G12354   1.307   0.865   9.079 -0.6481 -0.8552 -0.2705
  117OSM   C15F12355   1.443   0.761   8.939  0.3170  0.0558 -0.3108
  117OSM   H15F12356   1.394   0.671   8.981 -1.9021  0.8174 -1.1472
  117OSM   H15G12357   1.553   0.759   8.927  0.5075  2.0259  0.8560
  117OSM   C16F12358   1.394   0.788   8.802 -0.1925  0.2931  0.3983
  117OSM   H16F12359   1.460   0.861   8.751 -1.1789  0.8251 -0.1288
  117OSM   H16G12360   1.291   0.829   8.808  0.9063  3.2253 -0.1675
  117OSM   C17F12361   1.377   0.659   8.732  0.6932 -0.4603  0.2321
  117OSM   H17F12362   1.323   0.596   8.806  0.8931  0.0773  0.8349
  117OSM   H17G12363   1.473   0.604   8.718  0.5934 -0.7636  0.7434
  117OSM   C18F12364   1.307   0.665   8.593  0.2236 -0.6645  0.3927
  117OSM   H18F12365   1.202   0.702   8.600  0.1249 -0.5286 -1.7104
  117OSM   H18G12366   1.314   0.557   8.569 -0.8862 -0.7122  0.2468
  117OSM   H18H12367   1.360   0.719   8.512 -0.6241  1.1769  1.0117
  118OSM      N12368   1.795   1.682  10.997  0.4505 -0.7816  0.8017
  118OSM    C1512369   1.741   1.600  11.109  0.3977  0.4611  0.5120
  118OSM   H15A12370   1.826   1.548  11.151 -1.2107 -1.9444  0.8361
  118OSM   H15B12371   1.666   1.532  11.073  0.5073  0.3641  0.4648
  118OSM   H15C12372   1.688   1.665  11.177  0.9112  0.6631  0.7242
  118OSM    C1412373   1.904   1.764  11.048  0.2288  0.1662 -0.0586
  118OSM   H14A12374   1.922   1.851  10.987 -1.4859 -0.2218 -1.1444
  118OSM   H14B12375   1.994   1.705  11.056  1.0930  1.8013  3.0178
  118OSM   H14C12376   1.885   1.795  11.150 -0.5971  0.4609 -0.3024
  118OSM    C1312377   1.848   1.595  10.892  0.1028 -0.7461 -0.0002
  118OSM   H13A12378   1.925   1.528  10.926  0.5493  0.4230  1.3453
  118OSM   H13B12379   1.903   1.663  10.827  1.0031 -1.6491 -0.2055
  118OSM   H13C12380   1.767   1.543  10.843 -1.2692  0.1668  1.2543
  118OSM    C1212381   1.683   1.764  10.943 -0.7494 -0.1126  0.1890
  118OSM   H12A12382   1.630   1.820  11.019 -1.6608  1.4092 -1.5295
  118OSM   H12B12383   1.611   1.691  10.908 -1.6417 -0.6854  3.0525
  118OSM    C1112384   1.714   1.866  10.833 -0.1446 -0.0800 -0.2827
  118OSM   H11A12385   1.619   1.917  10.806  0.3208  1.5330  1.0706
  118OSM   H11B12386   1.744   1.811  10.741 -2.4935  1.4000 -2.0006
  118OSM      P12387   1.760   2.072  10.982 -0.0231  0.5503 -0.0249
  118OSM    O1312388   1.649   2.008  11.062  0.1760  0.3523 -0.3619
  118OSM    O1412389   1.875   2.110  11.056 -0.5338  0.1673 -0.0295
  118OSM    O1112390   1.699   2.185  10.898 -0.2544 -0.3520 -0.4041
  118OSM    O1212391   1.805   1.965  10.875 -0.5910 -0.1191  0.3892
  118OSM    C1S12392   1.781   2.255  10.797 -0.7454  1.3130  0.1272
  118OSM    H1S12393   1.885   2.219  10.792 -1.0843  0.3957 -0.3699
  118OSM    H1T12394   1.802   2.363  10.814  1.2377  0.8851  0.4708
  118OSM     NF12395   1.816   2.332  10.572  0.4716  0.5360 -0.0270
  118OSM    HNF12396   1.775   2.423  10.562 -0.4811  0.1410  0.2450
  118OSM    C2S12397   1.736   2.242  10.645 -0.3404  0.4500  0.0684
  118OSM    H2S12398   1.750   2.135  10.617 -1.3235  0.3910 -0.2121
  118OSM    C3S12399   1.586   2.273  10.640 -0.6371 -0.1219 -0.8469
  118OSM    H3S12400   1.562   2.378  10.668 -0.7098 -0.2522 -0.4122
  118OSM     O312401   1.500   2.201  10.736 -0.4997 -0.2913 -0.2275
  118OSM    HO312402   1.553   2.169  10.809  0.4670 -0.9257 -1.1826
  118OSM    C4S12403   1.530   2.259  10.496  0.2487 -0.5159  0.8458
  118OSM    H4S12404   1.523   2.356  10.445 -2.3883 -0.3216  1.4716
  118OSM    C5S12405   1.485   2.157  10.430  0.6708  0.1403 -0.2738
  118OSM    H5S12406   1.472   2.060  10.479 -0.4309  1.1878  1.5686
  118OSM    C6S12407   1.431   2.160  10.288  0.2673 -0.2100 -0.0211
  118OSM    H6S12408   1.321   2.143  10.281  0.2627  0.1404 -0.8735
  118OSM    H6T12409   1.473   2.066  10.245  1.6373  0.6332 -0.5471
  118OSM    C7S12410   1.481   2.268  10.189 -0.0269 -1.0277  0.4904
  118OSM    H7S12411   1.586   2.302  10.206 -0.3182 -1.0801  2.6010
  118OSM    H7T12412   1.433   2.365  10.216 -1.4238 -1.7899  0.7676
  118OSM    C8S12413   1.472   2.224  10.043 -0.0777 -0.3076 -0.7429
  118OSM    H8S12414   1.374   2.211   9.993  0.7606 -4.4848 -1.5304
  118OSM    H8T12415   1.529   2.129  10.031  0.9457  0.4021 -1.6915
  118OSM    C9S12416   1.552   2.328   9.955 -0.1153 -1.2669 -0.0803
  118OSM    H9S12417   1.659   2.334   9.987  0.0513 -1.9983 -0.4706
  118OSM    H9T12418   1.506   2.426   9.979 -0.2368 -0.7163 -2.4528
  118OSM   C10S12419   1.541   2.305   9.805 -0.6146  0.4291  0.5232
  118OSM   H10S12420   1.441   2.298   9.757 -0.1131  0.2315 -0.4974
  118OSM   H10T12421   1.591   2.207   9.785 -0.1793  0.7303  0.1380
  118OSM   C11S12422   1.620   2.416   9.731 -0.1489 -0.1572  0.2614
  118OSM   H11S12423   1.730   2.396   9.729  0.3459  2.5918 -2.3616
  118OSM   H11T12424   1.602   2.514   9.779 -0.4397  0.3336 -0.8419
  118OSM   C12S12425   1.593   2.418   9.577 -0.2341  0.2951 -0.7154
  118OSM   H12S12426   1.488   2.442   9.552 -1.6637 -0.4866  3.9367
  118OSM   H12T12427   1.610   2.312   9.550  1.6145  0.4934 -0.3996
  118OSM   C13S12428   1.679   2.515   9.499  0.0966  0.7143 -0.3253
  118OSM   H13S12429   1.784   2.484   9.516  0.0265  2.0352  2.8629
  118OSM   H13T12430   1.669   2.619   9.538 -2.6869  0.7468 -1.0137
  118OSM   C14S12431   1.639   2.513   9.348 -0.7516 -0.6571  0.5392
  118OSM   H14S12432   1.532   2.543   9.335 -0.3975 -0.7256 -3.2592
  118OSM   H14T12433   1.646   2.412   9.300 -0.5470  0.3069 -1.5294
  118OSM   C15S12434   1.726   2.605   9.257 -0.7452 -0.9347 -0.2949
  118OSM   H15S12435   1.827   2.560   9.260 -1.8811 -3.4779  1.0961
  118OSM   H15T12436   1.733   2.706   9.303 -4.1274 -0.4604 -0.6399
  118OSM   C16S12437   1.690   2.632   9.110  0.5287  0.2736  0.3548
  118OSM   H16S12438   1.777   2.685   9.066  1.3316 -0.0150  1.5615
  118OSM   H16T12439   1.604   2.702   9.111  0.0657 -0.2652 -0.6375
  118OSM   C17S12440   1.658   2.502   9.033 -0.1540  0.0849  0.4407
  118OSM   H17S12441   1.564   2.458   9.071 -0.1104  1.3089  2.0700
  118OSM   H17T12442   1.729   2.422   9.062  0.1390  1.0746  2.5967
  118OSM   C18S12443   1.662   2.515   8.885  0.2413 -0.1433 -0.2612
  118OSM   H18S12444   1.742   2.586   8.856  1.4557 -0.1530  2.9048
  118OSM   H18T12445   1.567   2.553   8.842  0.6924 -0.3458 -1.4549
  118OSM   H18U12446   1.680   2.422   8.826 -0.1526 -1.3428  1.4699
  118OSM    C1F12447   1.947   2.300  10.547  0.4412  0.5429 -0.2782
  118OSM     OF12448   1.999   2.190  10.583 -0.4838  0.1121  0.0482
  118OSM    C2F12449   2.036   2.412  10.511 -0.5961 -0.0157 -0.2557
  118OSM    H2F12450   2.113   2.423  10.591 -0.5682 -0.2585 -0.2473
  118OSM    H2G12451   1.974   2.504  10.521 -0.8953 -0.2550  0.0974
  118OSM    C3F12452   2.103   2.399  10.380 -0.3513 -0.3094  0.3301
  118OSM    H3F12453   2.168   2.310  10.365  0.9728  0.5177  1.0493
  118OSM    H3G12454   2.183   2.476  10.389 -0.6506 -0.1067  1.3280
  118OSM    C4F12455   2.001   2.428  10.267 -0.1219  0.3132  0.0989
  118OSM    H4F12456   1.961   2.531  10.279 -1.6680 -0.3359  0.6662
  118OSM    H4G12457   1.914   2.363  10.293 -0.0122 -0.1338 -0.6394
  118OSM    C5F12458   2.039   2.400  10.121  0.0944  0.1564  0.0407
  118OSM    H5F12459   2.036   2.291  10.103  1.0461 -0.1639  1.6786
  118OSM    H5G12460   2.143   2.429  10.095 -0.5799  1.8211 -0.8640
  118OSM    C6F12461   1.944   2.484  10.024 -0.2527 -0.5085  0.1348
  118OSM    H6F12462   1.960   2.594  10.026 -1.9585 -0.2632  1.9075
  118OSM    H6G12463   1.836   2.470  10.045  0.0022 -0.4052  1.5546
  118OSM    C7F12464   1.959   2.442   9.879 -0.9668 -0.5072  1.1751
  118OSM    H7F12465   1.881   2.497   9.824  0.8726  0.1889 -0.7939
  118OSM    H7G12466   1.933   2.334   9.875 -3.1989  0.0239  0.6125
  118OSM    C8F12467   2.095   2.483   9.815  0.1250  0.5047 -0.5500
  118OSM    H8F12468   2.179   2.427   9.861  1.5007  2.5853 -0.4700
  118OSM    H8G12469   2.110   2.592   9.829 -0.8890  1.0051 -3.0476
  118OSM    C9F12470   2.088   2.453   9.664  0.0248  0.1205 -1.0410
  118OSM    H9F12471   2.105   2.345   9.648 -2.8709 -0.6091  0.3680
  118OSM   C10F12472   2.065   2.539   9.568  0.7994 -0.8440 -0.4699
  118OSM   H10F12473   2.049   2.502   9.465  0.1707  2.1287 -1.4826
  118OSM   C11F12474   2.046   2.688   9.579 -1.2276 -0.2481 -0.2048
  118OSM   H11F12475   2.056   2.725   9.683  1.9389 -1.8695  0.1206
  118OSM   H11G12476   1.948   2.720   9.538 -0.8154  1.0861 -0.1725
  118OSM   C12F12477   2.166   2.743   9.502  0.4241  0.2471 -0.6520
  118OSM   H12F12478   2.267   2.705   9.527  1.3037  3.1922  0.5060
  118OSM   H12G12479   2.175   2.849   9.534  3.2266 -0.0274 -0.3609
  118OSM   C13F12480   2.146   2.754   9.355  0.5981  0.6616 -0.0842
  118OSM   H13F12481   2.041   2.770   9.322  1.0671  1.6225 -1.1540
  118OSM   H13G12482   2.174   2.655   9.314  0.2986  0.4422  0.2438
  118OSM   C14F12483   2.231   2.866   9.291 -0.2058  0.4434 -0.3831
  118OSM   H14F12484   2.335   2.835   9.315 -0.4348 -1.3326 -1.6021
  118OSM   H14G12485   2.202   2.959   9.344 -1.8524 -0.5753  0.5824
  118OSM   C15F12486   2.200   2.880   9.147  0.7033  0.2697  0.3827
  118OSM   H15F12487   2.089   2.875   9.138  0.6827 -0.0110  0.7944
  118OSM   H15G12488   2.244   2.800   9.085  0.3825  0.3197  0.0861
  118OSM   C16F12489   2.263   3.012   9.090  0.0294  0.1470 -0.5331
  118OSM   H16F12490   2.373   3.003   9.090  0.1909  1.8105  1.2147
  118OSM   H16G12491   2.235   3.100   9.153 -2.6090 -0.8849 -0.1698
  118OSM   C17F12492   2.222   3.046   8.946 -0.6379 -0.2575 -0.3387
  118OSM   H17F12493   2.125   3.100   8.949 -0.6817 -0.0782 -3.1562
  118OSM   H17G12494   2.184   2.960   8.886 -0.3552  0.5096 -1.6504
  118OSM   C18F12495   2.321   3.134   8.876 -0.7201 -0.6548  0.2007
  118OSM   H18F12496   2.354   3.215   8.944  2.6661 -0.3997 -1.6232
  118OSM   H18G12497   2.278   3.193   8.792  2.4926  2.7987  0.8683
  118OSM   H18H12498   2.409   3.079   8.837 -0.5294  0.8495 -1.5632
  119OSM      N12499   2.427   1.212  11.177  0.5636 -0.1747  0.4720
  119OSM    C1512500   2.546   1.124  11.159  0.7957 -0.6552  0.0764
  119OSM   H15A12501   2.542   1.038  11.226  2.1055 -0.1476  0.8093
  119OSM   H15B12502   2.638   1.175  11.181  0.7272  0.1100 -1.4231
  119OSM   H15C12503   2.555   1.086  11.059 -1.3738  0.0113 -0.3959
  119OSM    C1412504   2.304   1.121  11.194 -0.0461  0.0707  0.3041
  119OSM   H14A12505   2.319   1.055  11.278  1.2134  0.7873  0.6383
  119OSM   H14B12506   2.286   1.062  11.105  2.5573 -3.3833  1.9426
  119OSM   H14C12507   2.216   1.183  11.204  0.6979  0.9192  1.6185
  119OSM    C1312508   2.440   1.272  11.315  0.4289 -0.0686 -0.2306
  119OSM   H13A12509   2.494   1.211  11.385 -0.5587 -1.7256 -0.8918
  119OSM   H13B12510   2.340   1.289  11.351  1.0689  0.8524  1.1308
  119OSM   H13C12511   2.487   1.369  11.308  0.2406  0.0283 -0.1745
  119OSM    C1212512   2.407   1.326  11.079 -0.7130 -0.0954  0.2117
  119OSM   H12A12513   2.491   1.394  11.087 -0.9118  0.1502  0.2117
  119OSM   H12B12514   2.325   1.388  11.112  0.0197  0.2459  1.4399
  119OSM    C1112515   2.369   1.285  10.930  0.2644 -0.4556 -1.0743
  119OSM   H11A12516   2.440   1.201  10.910  0.5722 -0.0731 -1.6065
  119OSM   H11B12517   2.402   1.372  10.869  1.1307  2.5745  3.5250
  119OSM      P12518   2.120   1.330  10.867 -0.4279 -0.6651  0.5070
  119OSM    O1312519   1.990   1.258  10.865 -0.3591  0.0370 -0.4979
  119OSM    O1412520   2.123   1.459  10.939 -0.2675 -0.1599  0.2351
  119OSM    O1112521   2.149   1.364  10.711 -0.4954 -0.1615 -0.0619
  119OSM    O1212522   2.237   1.240  10.902 -0.7606  0.1360  0.2155
  119OSM    C1S12523   2.146   1.258  10.614  0.1517  0.0617  0.3916
  119OSM    H1S12524   2.043   1.225  10.589  0.2949 -0.4485  0.4718
  119OSM    H1T12525   2.201   1.166  10.641 -0.5549 -1.0655 -1.8907
  119OSM     NF12526   2.200   1.200  10.369 -0.6883 -0.1852 -0.0670
  119OSM    HNF12527   2.280   1.142  10.356 -0.9432 -0.4964 -0.2445
  119OSM    C2S12528   2.215   1.300  10.474  0.0587 -0.2304 -0.3455
  119OSM    H2S12529   2.160   1.393  10.449  1.6191  0.2552 -1.9691
  119OSM    C3S12530   2.366   1.330  10.501  0.2246 -0.8130 -0.3005
  119OSM    H3S12531   2.406   1.232  10.532  0.1019 -0.4995  0.8758
  119OSM     O312532   2.384   1.425  10.609 -0.0505 -0.5780  0.2134
  119OSM    HO312533   2.291   1.439  10.629 -0.4923  1.3402 -2.8722
  119OSM    C4S12534   2.434   1.392  10.379  0.0228 -0.3724 -0.3825
  119OSM    H4S12535   2.423   1.501  10.379 -0.6816 -0.4325 -2.4669
  119OSM    C5S12536   2.513   1.326  10.296 -0.5041 -0.3089 -0.1894
  119OSM    H5S12537   2.529   1.218  10.309 -2.4686 -0.7719 -1.3643
  119OSM    C6S12538   2.595   1.383  10.182 -0.2951 -0.2304 -0.2716
  119OSM    H6S12539   2.703   1.388  10.210 -0.2136  0.7227 -0.7601
  119OSM    H6T12540   2.560   1.485  10.157  0.3554 -0.0180 -0.3461
  119OSM    C7S12541   2.585   1.303  10.048  0.2255 -0.1147  0.3778
  119OSM    H7S12542   2.477   1.301  10.019  0.4425  1.5914 -0.6199
  119OSM    H7T12543   2.623   1.199  10.057 -1.9411 -0.8319  1.8098
  119OSM    C8S12544   2.658   1.362   9.928  0.2694  0.2197  0.3085
  119OSM    H8S12545   2.630   1.470   9.925 -0.2127  0.1168  1.0616
  119OSM    H8T12546   2.629   1.316   9.832  1.3211 -1.7309  0.9152
  119OSM    C9S12547   2.812   1.342   9.938  0.1222  0.3022  0.3728
  119OSM    H9S12548   2.835   1.235   9.919 -2.8301 -0.1774 -0.8464
  119OSM    H9T12549   2.845   1.360  10.043 -1.2780 -0.2551  0.9187
  119OSM   C10S12550   2.886   1.426   9.835  0.2851  0.1712  0.5038
  119OSM   H10S12551   2.994   1.401   9.831 -0.2016 -1.6699 -2.8141
  119OSM   H10T12552   2.877   1.532   9.866 -3.6437  0.2430 -0.5671
  119OSM   C11S12553   2.841   1.421   9.686 -0.2290  0.3849 -0.4502
  119OSM   H11S12554   2.900   1.488   9.620 -1.2419  1.4304 -0.3056
  119OSM   H11T12555   2.731   1.437   9.681 -0.4380  0.4983  3.2735
  119OSM   C12S12556   2.881   1.281   9.634 -0.4363  0.3019  0.5526
  119OSM   H12S12557   2.816   1.209   9.688 -3.2052  0.8894 -1.8696
  119OSM   H12T12558   2.989   1.259   9.645 -0.6017 -0.6252  0.2930
  119OSM   C13S12559   2.848   1.274   9.480  0.2403 -0.4979 -1.0502
  119OSM   H13S12560   2.911   1.355   9.438 -0.0049  0.6111  0.6404
  119OSM   H13T12561   2.740   1.297   9.466  0.7470  2.3711 -0.4852
  119OSM   C14S12562   2.909   1.143   9.412 -0.4387 -0.2970 -0.6832
  119OSM   H14S12563   3.017   1.158   9.432 -1.2203  4.2113  0.8443
  119OSM   H14T12564   2.892   1.145   9.302 -0.7152  0.1479 -0.6343
  119OSM   C15S12565   2.833   1.020   9.467  0.0349 -0.6566 -0.3405
  119OSM   H15S12566   2.723   1.036   9.459  0.2811  0.2668 -2.1045
  119OSM   H15T12567   2.872   1.000   9.569  4.5970 -0.9353 -2.0457
  119OSM   C16S12568   2.866   0.893   9.389 -0.0601 -0.9884  0.5428
  119OSM   H16S12569   2.977   0.884   9.385 -0.0296 -0.0445 -1.7229
  119OSM   H16T12570   2.830   0.906   9.285  1.4857  2.3164  0.3567
  119OSM   C17S12571   2.803   0.773   9.458  0.5498 -0.3057 -0.0197
  119OSM   H17S12572   2.823   0.684   9.395  0.5575 -1.8342  2.0805
  119OSM   H17T12573   2.695   0.796   9.468  0.2079 -2.4123  1.5605
  119OSM   C18S12574   2.858   0.748   9.601  0.1442 -0.1227  0.4478
  119OSM   H18S12575   2.967   0.723   9.599  0.2394  0.3402 -1.8271
  119OSM   H18T12576   2.803   0.663   9.647  1.4506 -0.5749  1.2132
  119OSM   H18U12577   2.853   0.839   9.664  1.0401  0.8917 -0.9085
  119OSM    C1F12578   2.085   1.182  10.309 -0.3965  0.8442 -0.1547
  119OSM     OF12579   1.991   1.259  10.328  0.0235  0.1978  0.3719
  119OSM    C2F12580   2.075   1.065  10.212 -0.0661 -0.8504  0.0703
  119OSM    H2F12581   2.006   0.986  10.249  1.3381 -1.1348  2.1516
  119OSM    H2G12582   2.176   1.021  10.213  0.4180  0.2486  0.7701
  119OSM    C3F12583   2.020   1.114  10.073  0.2667  0.2464 -0.4517
  119OSM    H3F12584   2.062   1.210  10.037  0.5098 -0.7739 -2.9620
  119OSM    H3G12585   1.911   1.134  10.083  0.7880  1.7032  3.1803
  119OSM    C4F12586   2.053   1.013   9.963  0.1122 -0.5846  0.1539
  119OSM    H4F12587   1.993   0.920   9.976 -0.1627 -0.4871 -0.4110
  119OSM    H4G12588   2.162   0.995   9.974 -0.0053 -0.2685  1.8919
  119OSM    C5F12589   2.025   1.065   9.822  0.6698  0.4332 -0.3123
  119OSM    H5F12590   2.070   0.988   9.757  1.0686  0.5796 -0.2143
  119OSM    H5G12591   2.086   1.158   9.810  3.0912 -0.9230  1.0996
  119OSM    C6F12592   1.872   1.083   9.793 -0.3023 -0.4732 -0.7115
  119OSM    H6F12593   1.813   1.165   9.839 -0.0412 -0.3156 -0.6566
  119OSM    H6G12594   1.829   0.985   9.823  0.5654  0.2232  3.0509
  119OSM    C7F12595   1.852   1.084   9.636  0.7813 -0.0665 -0.2512
  119OSM    H7F12596   1.768   1.020   9.602 -1.7522  2.4947  0.9619
  119OSM    H7G12597   1.947   1.038   9.603  1.5831  0.2094  1.5934
  119OSM    C8F12598   1.825   1.231   9.577  0.5560 -0.4861 -0.2032
  119OSM    H8F12599   1.859   1.229   9.471 -1.3314 -0.2373 -0.8279
  119OSM    H8G12600   1.892   1.310   9.618  0.4200  0.8633 -2.4622
  119OSM    C9F12601   1.679   1.293   9.588 -0.0226  0.8437 -0.4068
  119OSM    H9F12602   1.669   1.346   9.684  1.1361 -0.1643  0.2791
  119OSM   C10F12603   1.581   1.270   9.502 -0.7941  0.1840 -0.3420
  119OSM   H10F12604   1.477   1.297   9.527  0.4106  3.0061  1.8058
  119OSM   C11F12605   1.597   1.195   9.369  0.3839  0.7731 -0.9550
  119OSM   H11F12606   1.495   1.153   9.354 -0.5608  3.0416 -1.1387
  119OSM   H11G12607   1.670   1.112   9.378  0.3602  0.7571 -0.9098
  119OSM   C12F12608   1.647   1.291   9.265 -0.3994 -0.5532 -0.7563
  119OSM   H12F12609   1.718   1.368   9.303 -1.5901  1.1518 -1.9084
  119OSM   H12G12610   1.564   1.352   9.224 -0.3152 -0.4361 -0.7535
  119OSM   C13F12611   1.717   1.223   9.144 -0.2599  0.2088 -0.1723
  119OSM   H13F12612   1.632   1.171   9.095 -0.5716 -0.1051  0.6974
  119OSM   H13G12613   1.783   1.148   9.191 -2.5345 -1.3979  0.5432
  119OSM   C14F12614   1.793   1.308   9.039  0.8313 -0.1822 -0.7647
  119OSM   H14F12615   1.847   1.241   8.968  1.9003 -0.2383  0.0844
  119OSM   H14G12616   1.875   1.370   9.083  1.2796 -0.1562 -1.6141
  119OSM   C15F12617   1.693   1.396   8.954 -0.2582  0.9561  0.1383
  119OSM   H15F12618   1.629   1.459   9.019  0.8210  1.9729  0.2381
  119OSM   H15G12619   1.634   1.313   8.909 -1.0237  1.5911 -0.0366
  119OSM   C16F12620   1.750   1.481   8.846  0.0295 -0.3884 -0.1578
  119OSM   H16F12621   1.663   1.507   8.783 -0.5392 -2.6888 -0.3573
  119OSM   H16G12622   1.821   1.423   8.783  0.7118  1.2041 -0.8648
  119OSM   C17F12623   1.801   1.619   8.895  1.0356  0.2235  0.6614
  119OSM   H17F12624   1.883   1.594   8.966 -1.3334  0.2879  3.5549
  119OSM   H17G12625   1.719   1.663   8.955 -0.7140 -1.9358 -0.0592
  119OSM   C18F12626   1.848   1.717   8.794 -0.7436  0.0357 -0.0712
  119OSM   H18F12627   1.762   1.734   8.725 -0.4679  1.7393 -0.0140
  119OSM   H18G12628   1.931   1.686   8.728 -0.7720  0.7036 -0.4331
  119OSM   H18H12629   1.866   1.814   8.845 -3.4410 -1.0839  3.2287
  120OSM      N12630   0.897   5.123  10.523  0.2085 -0.3056  1.1113
  120OSM    C1512631   0.941   5.077  10.663 -0.2395  0.1686  0.3931
  120OSM   H15A12632   0.943   5.161  10.731 -1.0519  1.6643 -1.3739
  120OSM   H15B12633   1.047   5.055  10.666  0.1148  2.0091  2.3459
  120OSM   H15C12634   0.878   4.994  10.688 -0.7260  0.7071  0.9724
  120OSM    C1412635   0.862   5.003  10.442  0.0418  0.1628  0.1928
  120OSM   H14A12636   0.815   5.024  10.347 -0.5380  2.3501  0.9097
  120OSM   H14B12637   0.784   4.943  10.487 -1.2788  0.8279 -1.1663
  120OSM   H14C12638   0.951   4.948  10.417 -0.3695 -0.8232  0.8819
  120OSM    C1312639   0.775   5.208  10.535 -0.2356 -0.2675 -0.2477
  120OSM   H13A12640   0.734   5.213  10.436  1.1244 -1.3596 -0.8882
  120OSM   H13B12641   0.792   5.308  10.572 -1.2075  0.9046 -2.8421
  120OSM   H13C12642   0.704   5.149  10.591 -0.5914 -2.6330 -3.0818
  120OSM    C1212643   1.012   5.201  10.454  0.4852  0.2485 -0.9400
  120OSM   H12A12644   1.039   5.284  10.518  0.0699 -0.9112  0.7680
  120OSM   H12B12645   0.973   5.249  10.366 -0.2315  0.8556 -0.3035
  120OSM    C1112646   1.144   5.119  10.429  0.6700 -0.2878  0.2046
  120OSM   H11A12647   1.190   5.175  10.345  1.9045  0.4343  1.3543
  120OSM   H11B12648   1.134   5.014  10.394  1.4515  0.1339 -1.3265
  120OSM      P12649   1.367   5.060  10.553  0.0955 -0.5439  0.0827
  120OSM    O1312650   1.435   5.129  10.659 -0.3319 -0.2404  0.4962
  120OSM    O1412651   1.349   4.912  10.569 -0.4684 -0.0104 -0.1466
  120OSM    O1112652   1.426   5.108  10.410  0.2159 -0.4278 -0.3140
  120OSM    O1212653   1.222   5.134  10.539  0.4374 -0.0035  1.2009
  120OSM    C1S12654   1.464   5.241  10.378  0.0674 -0.7384  0.6564
  120OSM    H1S12655   1.541   5.274  10.450  0.4099 -0.1214  0.0146
  120OSM    H1T12656   1.379   5.312  10.387  0.8499  0.5782 -1.7182
  120OSM     NF12657   1.560   5.399  10.210  0.0600 -0.3618  0.7500
  120OSM    HNF12658   1.493   5.462  10.171  1.0385 -0.1396 -0.6053
  120OSM    C2S12659   1.521   5.258  10.235 -0.3722 -0.1912 -0.2225
  120OSM    H2S12660   1.610   5.193  10.240 -0.9880 -0.8941  3.2377
  120OSM    C3S12661   1.427   5.207  10.122 -0.2096  0.1008 -0.2555
  120OSM    H3S12662   1.336   5.271  10.129 -0.6603 -0.4911 -0.6982
  120OSM     O312663   1.395   5.069  10.138 -0.3622  0.0020 -0.0720
  120OSM    HO312664   1.405   5.048  10.231 -1.3331 -1.7340 -0.3369
  120OSM    C4S12665   1.480   5.228   9.977 -0.4842  0.3176 -0.4206
  120OSM    H4S12666   1.544   5.144   9.946  1.3166  0.5691  2.4033
  120OSM    C5S12667   1.436   5.311   9.883 -0.9832 -1.0913 -0.1546
  120OSM    H5S12668   1.361   5.387   9.910  0.0235  0.0010 -0.3554
  120OSM    C6S12669   1.491   5.306   9.736 -0.2186  0.5752  0.2650
  120OSM    H6S12670   1.581   5.241   9.729  0.0369  0.8870  0.6031
  120OSM    H6T12671   1.507   5.410   9.700  0.9152  0.1888 -0.3464
  120OSM    C7S12672   1.382   5.247   9.654 -0.8293  0.2613 -0.0188
  120OSM    H7S12673   1.278   5.285   9.647 -1.2782 -0.7077  1.3044
  120OSM    H7T12674   1.384   5.141   9.685  1.6934  0.6550  1.3230
  120OSM    C8S12675   1.426   5.243   9.509 -0.2247 -0.1319 -0.8320
  120OSM    H8S12676   1.520   5.186   9.499  1.3145  2.0194  0.9621
  120OSM    H8T12677   1.444   5.350   9.484 -1.2937  0.7787  2.0763
  120OSM    C9S12678   1.329   5.189   9.408  0.0178 -0.3042 -0.0221
  120OSM    H9S12679   1.235   5.248   9.407 -0.3818 -0.9014  1.7047
  120OSM    H9T12680   1.306   5.083   9.430  0.2964 -0.7139 -1.6589
  120OSM   C10S12681   1.374   5.207   9.265  0.1214 -0.0091 -0.6280
  120OSM   H10S12682   1.479   5.174   9.254 -0.8995 -4.1080  1.1305
  120OSM   H10T12683   1.378   5.312   9.228 -3.2253  0.0937 -0.8479
  120OSM   C11S12684   1.299   5.124   9.159  0.5160 -0.1164 -0.1811
  120OSM   H11S12685   1.194   5.160   9.156  0.9143  0.9416 -1.9746
  120OSM   H11T12686   1.301   5.025   9.210 -0.7266 -0.1135 -0.1146
  120OSM   C12S12687   1.365   5.136   9.021  0.4214  0.4790  0.0399
  120OSM   H12S12688   1.335   5.050   8.957 -2.5301  2.2344 -1.0525
  120OSM   H12T12689   1.474   5.131   9.041  0.1829  3.7926  2.4875
  120OSM   C13S12690   1.330   5.269   8.960  0.2339 -0.5460  0.3620
  120OSM   H13S12691   1.385   5.353   9.008  1.5816 -0.1946 -1.7576
  120OSM   H13T12692   1.220   5.287   8.957  0.0890 -0.9478  2.1546
  120OSM   C14S12693   1.375   5.283   8.814 -0.3999 -0.0354 -0.4525
  120OSM   H14S12694   1.484   5.292   8.796 -0.3681 -0.0585 -0.2640
  120OSM   H14T12695   1.330   5.380   8.782 -0.4995  0.0353 -0.0957
  120OSM   C15S12696   1.317   5.174   8.731  0.1833  0.0404  0.3689
  120OSM   H15S12697   1.208   5.159   8.747  0.4052 -0.6015  1.2988
  120OSM   H15T12698   1.358   5.075   8.761 -0.6205 -0.7166 -0.9476
  120OSM   C16S12699   1.345   5.191   8.580  0.0801 -0.0462 -0.2178
  120OSM   H16S12700   1.300   5.101   8.532  1.5430 -0.1932 -1.3293
  120OSM   H16T12701   1.455   5.195   8.564 -0.1280  0.3085 -1.6264
  120OSM   C17S12702   1.264   5.305   8.526  0.4804  0.1032 -0.0065
  120OSM   H17S12703   1.279   5.313   8.417 -0.4866 -4.9591 -0.6495
  120OSM   H17T12704   1.300   5.398   8.575 -1.3723  0.8925 -0.0758
  120OSM   C18S12705   1.114   5.292   8.557  0.7933 -0.2781  0.3113
  120OSM   H18S12706   1.069   5.201   8.512 -0.0951  1.1942 -1.8376
  120OSM   H18T12707   1.067   5.379   8.506  4.1305  1.8137  0.6289
  120OSM   H18U12708   1.094   5.298   8.666  1.2314  2.7721  0.2717
  120OSM    C1F12709   1.671   5.448  10.266  0.1930 -0.4724 -0.7325
  120OSM     OF12710   1.757   5.373  10.315 -0.1891 -0.2414 -0.5140
  120OSM    C2F12711   1.687   5.599  10.271 -0.7144 -0.5917 -0.5322
  120OSM    H2F12712   1.701   5.623  10.379  1.5798 -0.0892 -0.9294
  120OSM    H2G12713   1.587   5.641  10.247 -0.8110  0.1455  1.0516
  120OSM    C3F12714   1.810   5.643  10.189  0.2638 -0.2987  0.0385
  120OSM    H3F12715   1.890   5.570  10.213 -0.6309 -1.7651 -1.3270
  120OSM    H3G12716   1.853   5.744  10.208  1.6472 -0.6895 -0.9520
  120OSM    C4F12717   1.803   5.632  10.038  0.3309  0.0150 -0.4340
  120OSM    H4F12718   1.738   5.711   9.996  1.7276  1.5337  0.1952
  120OSM    H4G12719   1.766   5.531  10.010 -0.5134  0.1424  0.2200
  120OSM    C5F12720   1.937   5.647   9.975 -0.1388  0.3764  0.6193
  120OSM    H5F12721   1.989   5.552   9.998  0.0900  0.5167  0.6847
  120OSM    H5G12722   1.994   5.728  10.027 -1.6780  1.3711  0.7877
  120OSM    C6F12723   1.938   5.680   9.824  0.9115 -0.6273  0.0177
  120OSM    H6F12724   2.042   5.689   9.787  0.0055 -0.1769 -2.5354
  120OSM    H6G12725   1.883   5.775   9.806  0.8865 -0.4208  1.1574
  120OSM    C7F12726   1.880   5.568   9.732 -0.8097  0.0795 -0.1261
  120OSM    H7F12727   1.781   5.529   9.763 -0.2208  0.4870  2.4021
  120OSM    H7G12728   1.936   5.476   9.760 -1.0706  0.7997  2.9204
  120OSM    C8F12729   1.875   5.595   9.574 -0.0515 -1.1938  0.3250
  120OSM    H8F12730   1.850   5.500   9.522  0.1211 -1.1689  0.1955
  120OSM    H8G12731   1.974   5.635   9.547 -0.0891  0.2710  2.2314
  120OSM    C9F12732   1.768   5.705   9.557 -0.8871  0.6689 -0.0027
  120OSM    H9F12733   1.768   5.790   9.627  1.8785 -0.0892  1.0331
  120OSM   C10F12734   1.670   5.707   9.463 -0.3869 -0.9005 -0.1388
  120OSM   H10F12735   1.580   5.764   9.490  0.9295  0.8194  0.6636
  120OSM   C11F12736   1.637   5.602   9.356  0.9694 -0.5070  0.1360
  120OSM   H11F12737   1.539   5.563   9.390  0.6103  1.2996  1.2880
  120OSM   H11G12738   1.710   5.518   9.352 -0.3499 -1.6398 -0.5739
  120OSM   C12F12739   1.634   5.682   9.224  0.7254 -0.1765 -0.0155
  120OSM   H12F12740   1.734   5.723   9.196  0.1787  1.2279  0.0281
  120OSM   H12G12741   1.565   5.769   9.233 -1.5655 -1.6735 -2.6006
  120OSM   C13F12742   1.572   5.593   9.121  0.5078 -0.4008 -0.1635
  120OSM   H13F12743   1.463   5.581   9.142  0.5502 -0.8594 -0.2097
  120OSM   H13G12744   1.621   5.494   9.130  1.1832 -0.3336 -2.8319
  120OSM   C14F12745   1.587   5.640   8.975  0.5819 -0.2885  0.2185
  120OSM   H14F12746   1.579   5.559   8.899  0.8223  0.4288 -0.5891
  120OSM   H14G12747   1.693   5.674   8.965  0.9101 -1.1124  0.7892
  120OSM   C15F12748   1.490   5.757   8.932 -0.3044  0.3060  0.1425
  120OSM   H15F12749   1.514   5.834   9.009 -0.0723 -0.3020  0.6866
  120OSM   H15G12750   1.384   5.728   8.947 -0.6799  1.5631  0.0062
  120OSM   C16F12751   1.501   5.805   8.790 -0.4493  0.0021 -0.2279
  120OSM   H16F12752   1.453   5.734   8.720  0.4822 -0.4351 -0.4321
  120OSM   H16G12753   1.607   5.821   8.761  0.0068 -1.2349  0.7408
  120OSM   C17F12754   1.441   5.943   8.771 -0.2090 -0.4466 -0.2623
  120OSM   H17F12755   1.509   6.019   8.815  0.5512 -1.5583  0.5106
  120OSM   H17G12756   1.345   5.950   8.826  0.8270 -0.1821  1.5736
  120OSM   C18F12757   1.414   5.967   8.621  0.3397 -0.3896 -0.2726
  120OSM   H18F12758   1.502   5.998   8.561 -0.6664 -0.7651 -1.9654
  120OSM   H18G12759   1.329   6.037   8.605  0.3174 -0.5562 -0.8937
  120OSM   H18H12760   1.392   5.866   8.581 -0.5714 -1.0767  1.9000
  121OSM      N12761   0.425   1.774  11.092  0.8857  0.5760 -0.0590
  121OSM    C1512762   0.442   1.650  11.173  0.4533  0.5069 -0.1391
  121OSM   H15A12763   0.347   1.625  11.216  0.3703  0.2308 -0.4755
  121OSM   H15B12764   0.498   1.682  11.259 -0.4393 -0.0714  0.6702
  121OSM   H15C12765   0.494   1.567  11.128  1.4769 -0.1926  2.2510
  121OSM    C1412766   0.310   1.741  11.005  0.6618 -0.0679 -0.1797
  121OSM   H14A12767   0.330   1.653  10.945  1.9968  2.0080 -2.9175
  121OSM   H14B12768   0.310   1.823  10.935 -1.5361 -1.1948 -1.5685
  121OSM   H14C12769   0.217   1.737  11.059  0.3888  1.6560 -0.5025
  121OSM    C1312770   0.378   1.890  11.180 -0.1219  0.1890 -0.2556
  121OSM   H13A12771   0.377   1.986  11.131  1.0021 -0.3042 -1.2562
  121OSM   H13B12772   0.451   1.919  11.254 -0.9569 -0.5718  0.8859
  121OSM   H13C12773   0.293   1.870  11.243  0.4105  0.6169  0.6076
  121OSM    C1212774   0.560   1.787  11.024  0.3104 -0.4003  0.5023
  121OSM   H12A12775   0.641   1.783  11.095  1.3398 -1.5325 -0.7058
  121OSM   H12B12776   0.558   1.889  10.988  1.1145 -0.8074 -0.7001
  121OSM    C1112777   0.586   1.684  10.914 -0.2767  0.2374  0.0363
  121OSM   H11A12778   0.686   1.702  10.867 -0.5014  1.9849  0.1973
  121OSM   H11B12779   0.505   1.702  10.841  0.7751 -1.0380 -1.4990
  121OSM      P12780   0.730   1.494  11.017 -0.1558  0.0322 -0.0844
  121OSM    O1312781   0.791   1.578  11.123 -0.5631  0.0238  0.0011
  121OSM    O1412782   0.703   1.351  11.049 -0.3218 -0.2797 -0.0173
  121OSM    O1112783   0.823   1.508  10.887 -0.2704 -0.0452 -0.0258
  121OSM    O1212784   0.588   1.555  10.977  0.1282 -0.3151  0.0324
  121OSM    C1S12785   0.813   1.422  10.778  0.2907  0.2593  0.2687
  121OSM    H1S12786   0.705   1.395  10.776 -0.0861  1.6556  0.4350
  121OSM    H1T12787   0.859   1.324  10.800  0.6057  0.3326 -0.0641
  121OSM     NF12788   0.837   1.413  10.537  0.1458  0.4054  0.0620
  121OSM    HNF12789   0.911   1.347  10.523 -2.7011 -3.2196  1.2824
  121OSM    C2S12790   0.868   1.496  10.650  0.2665 -0.2493 -0.2770
  121OSM    H2S12791   0.807   1.588  10.633 -2.3706 -2.0962 -1.0490
  121OSM    C3S12792   1.021   1.534  10.675  0.4123 -0.1964  0.2766
  121OSM    H3S12793   1.072   1.437  10.687  1.4065  0.4524  1.4200
  121OSM     O312794   1.043   1.624  10.788  0.4543 -0.6087 -0.0269
  121OSM    HO312795   0.957   1.652  10.820  1.4532  2.5000  0.1207
  121OSM    C4S12796   1.077   1.598  10.550 -0.2017 -0.3894 -0.0436
  121OSM    H4S12797   1.145   1.527  10.501 -2.4361 -2.6228 -0.0248
  121OSM    C5S12798   1.080   1.727  10.514 -0.6123 -0.5187 -0.5842
  121OSM    H5S12799   1.046   1.800  10.589 -0.4656 -1.0184 -0.0252
  121OSM    C6S12800   1.138   1.793  10.386  0.2974 -0.0291 -0.3820
  121OSM    H6S12801   1.195   1.885  10.411 -1.5835  0.7370  1.1982
  121OSM    H6T12802   1.049   1.818  10.325  0.6412  1.8106 -0.1415
  121OSM    C7S12803   1.214   1.706  10.292 -0.0693  0.0852 -0.3212
  121OSM    H7S12804   1.144   1.629  10.254 -0.0098  0.8174 -1.9503
  121OSM    H7T12805   1.297   1.653  10.343 -0.4683  0.0146  0.2618
  121OSM    C8S12806   1.280   1.793  10.185 -0.3590  0.6516  0.8475
  121OSM    H8S12807   1.352   1.746  10.114 -0.8663  3.5984 -1.7328
  121OSM    H8T12808   1.337   1.871  10.240  0.4374 -0.4473  1.5848
  121OSM    C9S12809   1.176   1.865  10.093 -0.1344 -0.4528  0.3945
  121OSM    H9S12810   1.139   1.958  10.140 -0.2791 -0.1464 -0.3276
  121OSM    H9T12811   1.084   1.805  10.074  0.5590 -0.9649 -1.3718
  121OSM   C10S12812   1.227   1.887   9.952 -0.6745 -0.2020 -0.0452
  121OSM   H10S12813   1.224   1.793   9.893 -1.3534 -0.1694 -0.0607
  121OSM   H10T12814   1.331   1.914   9.982 -1.4012  1.5216  0.9716
  121OSM   C11S12815   1.164   2.008   9.874  0.4226  0.1055 -0.0127
  121OSM   H11S12816   1.161   2.097   9.939  0.9331  1.8196 -2.2722
  121OSM   H11T12817   1.056   1.992   9.856  0.1415  2.5807 -0.6910
  121OSM   C12S12818   1.245   2.053   9.749  0.4044 -0.0767  0.2733
  121OSM   H12S12819   1.351   2.057   9.780  1.3410 -2.9188 -2.3348
  121OSM   H12T12820   1.203   2.149   9.713  0.5658  0.1775  0.7624
  121OSM   C13S12821   1.217   1.949   9.639  0.9585 -0.1097 -0.3290
  121OSM   H13S12822   1.114   1.951   9.597  1.1912 -0.5877 -0.9309
  121OSM   H13T12823   1.239   1.849   9.682 -1.9362  0.7250  3.3051
  121OSM   C14S12824   1.300   1.963   9.517  0.0212  0.4517  0.4853
  121OSM   H14S12825   1.257   1.891   9.445  1.0913 -1.3437  1.6083
  121OSM   H14T12826   1.403   1.927   9.536  0.2977  0.9574 -0.0384
  121OSM   C15S12827   1.315   2.106   9.456 -0.2563 -0.0762  0.2788
  121OSM   H15S12828   1.398   2.140   9.521  0.6008 -0.1209 -0.7967
  121OSM   H15T12829   1.222   2.165   9.472  0.6510  1.9642 -1.8376
  121OSM   C16S12830   1.370   2.111   9.314 -0.4903 -0.1034  0.0969
  121OSM   H16S12831   1.434   2.020   9.306  0.5511  0.6380 -0.0611
  121OSM   H16T12832   1.432   2.203   9.302 -1.9897  0.9046 -0.0603
  121OSM   C17S12833   1.261   2.107   9.201 -0.2621 -0.0235  0.0185
  121OSM   H17S12834   1.206   2.203   9.199 -1.0484 -0.4861 -0.9586
  121OSM   H17T12835   1.196   2.024   9.235 -1.1975  0.6606 -0.0964
  121OSM   C18S12836   1.330   2.084   9.064 -0.3141  0.4410  0.3764
  121OSM   H18S12837   1.396   1.996   9.049  1.2063  1.8385 -1.4609
  121OSM   H18T12838   1.390   2.176   9.044  0.9811 -0.0676  1.8226
  121OSM   H18U12839   1.262   2.089   8.976  1.3840  2.8610 -0.8646
  121OSM    C1F12840   0.703   1.396  10.500 -1.2477  0.8953 -0.0023
  121OSM     OF12841   0.617   1.476  10.525 -0.3296 -0.0285 -0.2841
  121OSM    C2F12842   0.674   1.258  10.438  0.4892 -0.8501 -0.4256
  121OSM    H2F12843   0.582   1.217  10.486  0.3246 -1.6866 -1.4294
  121OSM    H2G12844   0.761   1.199  10.475 -0.3668 -1.3049  0.9079
  121OSM    C3F12845   0.679   1.275  10.294 -0.1309  0.2043 -0.3665
  121OSM    H3F12846   0.778   1.310  10.257  0.4580 -3.2146 -2.2744
  121OSM    H3G12847   0.601   1.348  10.266 -0.0712 -0.4294 -2.3122
  121OSM    C4F12848   0.643   1.149  10.209  0.1307 -1.0441  0.1207
  121OSM    H4F12849   0.532   1.142  10.209  0.0321  0.1518  2.0497
  121OSM    H4G12850   0.673   1.051  10.251 -0.4120 -0.7040  1.3254
  121OSM    C5F12851   0.692   1.155  10.061 -0.1324 -0.2858 -0.4012
  121OSM    H5F12852   0.803   1.151  10.072 -0.1739 -0.6174 -0.0931
  121OSM    H5G12853   0.667   1.245  10.000 -1.5826  0.4572  1.2422
  121OSM    C6F12854   0.644   1.039   9.968  0.0792  0.5861 -0.0034
  121OSM    H6F12855   0.537   1.042   9.939 -0.3917 -0.9678  1.4184
  121OSM    H6G12856   0.658   0.951  10.036 -2.1289  0.0882 -0.1620
  121OSM    C7F12857   0.746   1.010   9.852 -0.0287 -0.3028  0.2263
  121OSM    H7F12858   0.733   0.906   9.813  0.9437 -0.4474  0.2826
  121OSM    H7G12859   0.845   1.008   9.902 -0.6407 -0.3047  1.4742
  121OSM    C8F12860   0.742   1.121   9.745 -0.4096 -0.4248 -0.3067
  121OSM    H8F12861   0.829   1.114   9.677  0.5983  2.3263  0.6681
  121OSM    H8G12862   0.734   1.223   9.787  4.3506 -0.4808  1.0217
  121OSM    C9F12863   0.627   1.071   9.654  0.4009 -0.3342 -0.3148
  121OSM    H9F12864   0.526   1.108   9.679  0.7032  1.2694 -1.3655
  121OSM   C10F12865   0.634   1.014   9.534  0.0773  0.2228 -0.3755
  121OSM   H10F12866   0.546   0.998   9.470 -2.0637 -1.2616  2.7813
  121OSM   C11F12867   0.761   0.978   9.456  0.0737  0.1885 -0.4134
  121OSM   H11F12868   0.737   0.885   9.401  0.5639  1.5157 -2.9623
  121OSM   H11G12869   0.832   0.952   9.538 -0.3258  1.6573  0.4160
  121OSM   C12F12870   0.795   1.093   9.369  0.4455 -0.4153 -0.1273
  121OSM   H12F12871   0.897   1.077   9.330  0.6039  0.4305 -0.0804
  121OSM   H12G12872   0.796   1.189   9.425  2.4327 -0.3012 -0.3373
  121OSM   C13F12873   0.701   1.118   9.253  0.1938 -0.0195  0.1591
  121OSM   H13F12874   0.628   1.036   9.241  0.0200  0.2271 -0.4810
  121OSM   H13G12875   0.758   1.116   9.158 -2.0098  0.5672 -1.1917
  121OSM   C14F12876   0.634   1.255   9.271  0.1558  0.3224 -0.9411
  121OSM   H14F12877   0.717   1.324   9.297  0.4322 -1.5553  3.6473
  121OSM   H14G12878   0.576   1.257   9.366 -1.4419  1.5798 -1.9059
  121OSM   C15F12879   0.545   1.286   9.158  0.5525 -0.0648  0.3276
  121OSM   H15F12880   0.455   1.220   9.152  0.7296 -0.3907  1.2576
  121OSM   H15G12881   0.604   1.265   9.066 -1.2836 -0.3615 -0.8077
  121OSM   C16F12882   0.502   1.439   9.154 -0.8515 -0.5680 -0.3635
  121OSM   H16F12883   0.599   1.490   9.134 -1.5569  0.7688 -0.4300
  121OSM   H16G12884   0.463   1.466   9.254  0.7006 -0.9129  0.3462
  121OSM   C17F12885   0.403   1.469   9.040 -0.1955  1.1593  0.6777
  121OSM   H17F12886   0.316   1.401   9.054  1.4215 -1.1155  0.0324
  121OSM   H17G12887   0.449   1.433   8.945  0.1538  1.4112  0.7516
  121OSM   C18F12888   0.368   1.614   9.037  0.4295  0.2826  0.4838
  121OSM   H18F12889   0.453   1.684   9.052  1.2147  0.1227 -2.8537
  121OSM   H18G12890   0.290   1.639   9.113  0.4348 -0.0067  0.5840
  121OSM   H18H12891   0.318   1.625   8.939  1.4346 -1.7530 -0.2861
  122OSM      N12892   1.190   5.558  10.974  0.0843 -0.3711  0.3475
  122OSM    C1512893   1.135   5.420  10.985 -0.6328  0.1837 -0.0499
  122OSM   H15A12894   1.116   5.388  11.087 -0.3199 -1.5089 -0.4996
  122OSM   H15B12895   1.205   5.350  10.942 -1.4783  0.3295 -1.6866
  122OSM   H15C12896   1.039   5.416  10.934 -0.1313 -1.0286 -0.9148
  122OSM    C1412897   1.115   5.655  11.070  0.2478 -0.3302  0.1515
  122OSM   H14A12898   1.138   5.636  11.174  2.5028 -1.7407 -0.5514
  122OSM   H14B12899   1.010   5.654  11.045  0.1903  0.6110  0.3440
  122OSM   H14C12900   1.161   5.749  11.045  1.5036 -1.4265 -1.8436
  122OSM    C1312901   1.332   5.560  11.022  0.4059 -0.0276 -0.8535
  122OSM   H13A12902   1.369   5.661  11.027  3.1554 -1.0009 -0.3049
  122OSM   H13B12903   1.400   5.505  10.959  2.0850  0.9551  0.0352
  122OSM   H13C12904   1.350   5.519  11.121 -0.9347 -0.7158 -0.8881
  122OSM    C1212905   1.179   5.615  10.834  0.3996 -0.2604 -0.9102
  122OSM   H12A12906   1.075   5.634  10.814  0.7347  1.4808 -1.0763
  122OSM   H12B12907   1.209   5.548  10.754  1.2434  0.2168 -1.0035
  122OSM    C1112908   1.256   5.743  10.796 -0.0319  0.2693 -0.5894
  122OSM   H11A12909   1.258   5.763  10.687 -1.1809  1.6543 -0.3699
  122OSM   H11B12910   1.362   5.725  10.825 -0.7098 -1.1037  1.1210
  122OSM      P12911   1.262   5.995  10.840  0.4026 -0.4811  0.4721
  122OSM    O1312912   1.157   6.095  10.876 -0.6054 -0.3875  0.4614
  122OSM    O1412913   1.394   6.016  10.910  0.3441  0.2429 -0.2440
  122OSM    O1112914   1.267   5.992  10.682 -0.2568  0.4360  0.0441
  122OSM    O1212915   1.208   5.850  10.873  0.5147  0.1016 -0.4310
  122OSM    C1S12916   1.385   6.045  10.615 -0.5520 -0.2477 -0.0541
  122OSM    H1S12917   1.462   5.968  10.634 -0.2192  0.0893 -0.0240
  122OSM    H1T12918   1.410   6.146  10.654  1.6702  0.0786 -2.2776
  122OSM     NF12919   1.486   6.074  10.395 -0.4278  0.3108  0.3837
  122OSM    HNF12920   1.503   6.172  10.387  0.5503  0.3840  3.0790
  122OSM    C2S12921   1.363   6.040  10.461  0.0876 -0.6648 -0.4111
  122OSM    H2S12922   1.341   5.934  10.437  1.7950 -0.8635 -1.1427
  122OSM    C3S12923   1.242   6.131  10.419 -0.4233  0.0282  0.2318
  122OSM    H3S12924   1.265   6.235  10.450 -0.3278  0.0472  0.0957
  122OSM     O312925   1.118   6.103  10.483  0.3638  0.2087  0.5703
  122OSM    HO312926   1.153   6.079  10.569 -1.7930 -3.5957  0.4725
  122OSM    C4S12927   1.223   6.130  10.277  0.1848 -0.2856 -0.3825
  122OSM    H4S12928   1.143   6.068  10.235 -0.8024 -1.0495  2.4964
  122OSM    C5S12929   1.279   6.226  10.197 -0.1676  0.2504 -0.1474
  122OSM    H5S12930   1.347   6.307  10.228  0.4551 -0.0912 -0.6173
  122OSM    C6S12931   1.248   6.247  10.055 -0.0314 -0.4427  0.1891
  122OSM    H6S12932   1.219   6.146  10.018 -1.0752 -0.1009  0.0608
  122OSM    H6T12933   1.334   6.273   9.990 -0.1740 -1.0261 -0.2381
  122OSM    C7S12934   1.128   6.336  10.018 -0.6083  0.2945  0.8352
  122OSM    H7S12935   1.136   6.430  10.078 -0.0403  0.1316  1.0281
  122OSM    H7T12936   1.035   6.281  10.043 -0.2155 -0.4782  0.5948
  122OSM    C8S12937   1.134   6.375   9.868  0.1539  0.0111  0.6372
  122OSM    H8S12938   1.223   6.440   9.852  0.9336 -1.4216 -0.9925
  122OSM    H8T12939   1.044   6.440   9.859  0.7587  0.3384 -3.8083
  122OSM    C9S12940   1.126   6.250   9.777 -0.1880 -0.4880 -0.1056
  122OSM    H9S12941   1.040   6.185   9.805 -1.6541 -0.0197 -3.3519
  122OSM    H9T12942   1.224   6.197   9.783  0.0579  0.1248  1.6679
  122OSM   C10S12943   1.092   6.286   9.632 -0.9371 -0.3174 -0.5247
  122OSM   H10S12944   1.163   6.364   9.595 -3.2018  1.7019 -0.7338
  122OSM   H10T12945   0.990   6.328   9.625 -0.7130  0.6109  1.4904
  122OSM   C11S12946   1.086   6.171   9.528 -0.0908 -0.2294  0.0964
  122OSM   H11S12947   1.025   6.085   9.563  1.9894 -1.3965  0.9300
  122OSM   H11T12948   1.191   6.134   9.527  0.0914  0.2698 -2.5656
  122OSM   C12S12949   1.060   6.222   9.388 -0.2227  0.4223 -0.0062
  122OSM   H12S12950   1.137   6.300   9.372  0.5115 -0.2940 -0.0073
  122OSM   H12T12951   0.959   6.269   9.385 -0.6263 -0.4515 -0.4208
  122OSM   C13S12952   1.050   6.117   9.272  0.4240 -0.0748  0.1946
  122OSM   H13S12953   0.977   6.044   9.312  1.2028 -0.9801 -0.0017
  122OSM   H13T12954   1.133   6.043   9.265  0.1926 -0.2215 -1.2176
  122OSM   C14S12955   1.016   6.185   9.135 -0.5467  0.1536 -0.7911
  122OSM   H14S12956   0.946   6.270   9.149 -0.4290  0.2633 -0.8697
  122OSM   H14T12957   0.963   6.117   9.065 -1.2569 -0.1325  0.0176
  122OSM   C15S12958   1.142   6.238   9.056  0.1389 -0.9490  0.0899
  122OSM   H15S12959   1.203   6.150   9.025  2.3738  0.5062  0.2189
  122OSM   H15T12960   1.209   6.294   9.125  0.7629 -0.2563 -1.0532
  122OSM   C16S12961   1.097   6.315   8.940  0.0361 -0.8337 -0.6330
  122OSM   H16S12962   1.109   6.424   8.958 -3.5969 -0.8019  2.0505
  122OSM   H16T12963   0.992   6.296   8.908 -0.1709 -0.1587 -0.3700
  122OSM   C17S12964   1.185   6.286   8.817  0.2175  0.4309 -0.4111
  122OSM   H17S12965   1.170   6.180   8.787 -1.7280  0.5388  0.0604
  122OSM   H17T12966   1.292   6.307   8.834  0.6347 -0.4393 -1.8234
  122OSM   C18S12967   1.134   6.379   8.705  0.0763 -0.2213  1.4447
  122OSM   H18S12968   1.188   6.359   8.610  0.9656 -1.2917  2.1639
  122OSM   H18T12969   1.157   6.484   8.733 -2.2118  0.6090  0.4143
  122OSM   H18U12970   1.025   6.372   8.684 -0.3581  3.3179  2.1959
  122OSM    C1F12971   1.581   5.987  10.390 -0.2125  0.1731  0.0769
  122OSM     OF12972   1.561   5.872  10.417 -0.7335 -0.0743  0.1006
  122OSM    C2F12973   1.725   6.037  10.362 -0.2429  0.9598  0.1637
  122OSM    H2F12974   1.770   5.944  10.323 -1.3937  1.1181 -1.5889
  122OSM    H2G12975   1.773   6.069  10.457  1.3369 -1.4823  0.2484
  122OSM    C3F12976   1.724   6.144  10.250  0.4005  0.2014  0.6525
  122OSM    H3F12977   1.830   6.177  10.246  0.2860  0.5341  0.3633
  122OSM    H3G12978   1.670   6.239  10.274  0.9595  0.6948  0.0017
  122OSM    C4F12979   1.698   6.084  10.104  0.8388 -0.2986 -0.8653
  122OSM    H4F12980   1.589   6.060  10.098  0.4014  1.0697  1.1347
  122OSM    H4G12981   1.757   5.992  10.085  0.0781 -0.7818 -0.9235
  122OSM    C5F12982   1.739   6.186   9.996  0.8902  0.0956  0.0926
  122OSM    H5F12983   1.845   6.215  10.011  1.0451  0.3741 -1.4154
  122OSM    H5G12984   1.674   6.276  10.004 -2.3227 -2.1801  0.7658
  122OSM    C6F12985   1.718   6.127   9.855 -0.4168  1.2445  0.0763
  122OSM    H6F12986   1.615   6.085   9.843 -0.9059  2.1170  1.1199
  122OSM    H6G12987   1.786   6.040   9.846 -0.1885  1.5223 -0.9228
  122OSM    C7F12988   1.754   6.228   9.745 -0.6573  0.8086 -0.6095
  122OSM    H7F12989   1.854   6.264   9.775 -0.9856  2.0903 -1.0069
  122OSM    H7G12990   1.671   6.301   9.759 -0.3331  1.3462 -1.4474
  122OSM    C8F12991   1.748   6.164   9.609  0.0276 -0.0045  0.0897
  122OSM    H8F12992   1.659   6.098   9.621  0.8675 -1.0746  0.5315
  122OSM    H8G12993   1.833   6.094   9.595 -1.4382 -1.8652  0.1996
  122OSM    C9F12994   1.710   6.256   9.498 -0.6630  0.5670  0.0208
  122OSM    H9F12995   1.723   6.362   9.525  1.0091 -0.3707  3.0882
  122OSM   C10F12996   1.671   6.210   9.375 -0.4786 -0.2498 -0.4004
  122OSM   H10F12997   1.643   6.277   9.293  0.7116  1.7033  0.7497
  122OSM   C11F12998   1.679   6.061   9.343 -0.1012  0.9190 -0.2441
  122OSM   H11F12999   1.615   6.041   9.254 -0.4494 -2.4338  0.6829
  122OSM   H11G13000   1.641   5.998   9.426 -0.2279 -2.9206 -3.0401
  122OSM   C12F13001   1.817   6.010   9.297  0.5245 -0.3307 -0.2837
  122OSM   H12F13002   1.810   5.906   9.257 -0.8475 -0.1678 -0.4644
  122OSM   H12G13003   1.883   5.992   9.385  1.1568 -2.3195 -1.1212
  122OSM   C13F13004   1.878   6.095   9.183 -0.3722  0.2949  0.1243
  122OSM   H13F13005   1.979   6.062   9.150 -2.0903 -1.6832 -3.5293
  122OSM   H13G13006   1.886   6.200   9.217  2.3073 -0.4993  2.1064
  122OSM   C14F13007   1.795   6.078   9.057  0.1216  0.1108  0.0634
  122OSM   H14F13008   1.693   6.121   9.062 -0.2065 -0.6536  0.1237
  122OSM   H14G13009   1.784   5.970   9.030  0.6194  0.0503  0.0892
  122OSM   C15F13010   1.859   6.140   8.930  0.5198  0.0801 -0.0276
  122OSM   H15F13011   1.954   6.090   8.904  0.3147 -1.7147  2.5356
  122OSM   H15G13012   1.873   6.247   8.958 -0.9577  0.3986 -0.4222
  122OSM   C16F13013   1.774   6.124   8.799 -0.6898 -0.4153  0.7740
  122OSM   H16F13014   1.682   6.186   8.813 -0.1729  1.2022 -2.5504
  122OSM   H16G13015   1.748   6.016   8.795 -0.7989 -0.3967  0.9510
  122OSM   C17F13016   1.851   6.158   8.678  0.0682  0.2141  0.5107
  122OSM   H17F13017   1.925   6.077   8.661 -2.0829 -2.3908  3.0943
  122OSM   H17G13018   1.908   6.252   8.695 -1.0161  1.0841 -0.4858
  122OSM   C18F13019   1.773   6.185   8.550 -0.6203  0.2540 -0.5226
  122OSM   H18F13020   1.692   6.110   8.542  0.4258 -0.8097 -1.3949
  122OSM   H18G13021   1.834   6.178   8.457  3.3739  0.2769  1.9856
  122OSM   H18H13022   1.716   6.280   8.563 -1.7183 -0.8145  3.1338
  123OSM      N13023   6.154   5.455   5.741 -0.2281 -0.1386  0.4718
  123OSM    C1513024   6.284   5.393   5.771  0.3567 -0.1615  0.1995
  123OSM   H15A13025   6.311   5.312   5.704 -1.2856 -0.7814  0.2503
  123OSM   H15B13026   6.288   5.357   5.873 -0.4267 -2.5068 -0.5570
  123OSM   H15C13027   6.363   5.466   5.775  2.6014 -2.4064 -1.0412
  123OSM    C1413028   6.162   5.511   5.597  0.2928 -0.1163 -0.4212
  123OSM   H14A13029   6.087   5.587   5.576  1.0485  0.4566 -1.0733
  123OSM   H14B13030   6.154   5.433   5.523 -0.0687  0.5983 -1.1427
  123OSM   H14C13031   6.258   5.559   5.592  0.4871 -0.4154  0.3606
  123OSM    C1313032   6.040   5.358   5.743 -0.4066 -0.2848  0.4467
  123OSM   H13A13033   6.056   5.292   5.659 -1.3313 -0.2870  0.2618
  123OSM   H13B13034   5.946   5.408   5.725 -0.1480  0.3072  0.7320
  123OSM   H13C13035   6.025   5.309   5.838 -0.3854  2.2313  1.7822
  123OSM    C1213036   6.121   5.567   5.841  0.1023 -0.0373 -0.5371
  123OSM   H12A13037   6.026   5.614   5.822  0.7067  2.4162  2.1883
  123OSM   H12B13038   6.195   5.645   5.831  0.0517 -0.0692 -1.1858
  123OSM    C1113039   6.103   5.517   5.986  0.6031 -0.1797 -0.2721
  123OSM   H11A13040   6.108   5.609   6.048 -0.0485  0.2075 -0.7827
  123OSM   H11B13041   6.182   5.444   6.012  1.3464  0.5871 -0.3419
  123OSM      P13042   5.850   5.535   6.047  0.4320 -0.0512 -0.0364
  123OSM    O1313043   5.849   5.658   5.971  0.5365  0.3398 -0.2149
  123OSM    O1413044   5.728   5.442   6.040 -0.0811  0.3399  0.3113
  123OSM    O1113045   5.896   5.574   6.194 -0.3672  0.0757 -0.2071
  123OSM    O1213046   5.976   5.455   6.004 -0.2743  0.6738 -0.0561
  123OSM    C1S13047   5.846   5.507   6.308  0.5856  0.2899  0.5703
  123OSM    H1S13048   5.852   5.396   6.304  1.7990  0.3127  1.5164
  123OSM    H1T13049   5.744   5.538   6.339  1.1782  3.0367 -0.0967
  123OSM     NF13050   5.877   5.473   6.549 -0.5982 -0.0950 -0.2897
  123OSM    HNF13051   5.830   5.529   6.617 -0.4924  0.7991 -0.9433
  123OSM    C2S13052   5.920   5.554   6.439  0.5064  0.4069 -0.2576
  123OSM    H2S13053   6.028   5.532   6.424  0.3289 -1.4239  0.9541
  123OSM    C3S13054   5.905   5.706   6.455 -0.4571  0.4532  0.2464
  123OSM    H3S13055   5.799   5.729   6.478 -0.8988 -0.9211 -0.3372
  123OSM     O313056   5.931   5.791   6.343  0.3559 -0.2566  0.1825
  123OSM    HO313057   5.919   5.729   6.271 -0.0756  0.9970 -0.8537
  123OSM    C4S13058   5.983   5.750   6.568 -0.2632  0.4935  0.0317
  123OSM    H4S13059   5.932   5.730   6.663  3.2534  1.4321  2.2398
  123OSM    C5S13060   6.096   5.825   6.574 -0.2696 -0.2701 -0.2989
  123OSM    H5S13061   6.141   5.851   6.476 -0.5551  0.2899 -0.2837
  123OSM    C6S13062   6.154   5.879   6.700  0.2534 -0.6191  0.3794
  123OSM    H6S13063   6.141   5.989   6.705  0.5492 -0.5728  0.1551
  123OSM    H6T13064   6.259   5.843   6.705  0.3201 -0.1254  2.7356
  123OSM    C7S13065   6.101   5.834   6.841  0.1636  0.4141 -0.1668
  123OSM    H7S13066   6.091   5.727   6.870 -1.0381  0.7456  0.7093
  123OSM    H7T13067   6.004   5.886   6.860 -0.1085 -0.6817  1.5720
  123OSM    C8S13068   6.179   5.894   6.956 -0.3436  0.2666  0.0241
  123OSM    H8S13069   6.182   6.004   6.938 -1.7527 -0.0759 -2.6562
  123OSM    H8T13070   6.282   5.853   6.965 -0.2706  0.6219  0.8454
  123OSM    C9S13071   6.109   5.857   7.092 -0.4322 -0.5335  0.4333
  123OSM    H9S13072   6.100   5.746   7.092  0.8850 -0.6437  1.1326
  123OSM    H9T13073   6.007   5.901   7.083  0.1561  0.4346 -1.8988
  123OSM   C10S13074   6.179   5.920   7.215  0.4058  0.2871 -0.3693
  123OSM   H10S13075   6.205   6.026   7.195 -0.9536  0.3616 -1.9162
  123OSM   H10T13076   6.269   5.862   7.245 -0.1668 -0.0567  0.7385
  123OSM   C11S13077   6.076   5.923   7.328  0.0289  0.1168  0.1193
  123OSM   H11S13078   6.042   5.820   7.351 -1.8657  0.6294 -0.2929
  123OSM   H11T13079   5.991   5.989   7.298 -0.1858 -0.2228 -0.0188
  123OSM   C12S13080   6.138   5.988   7.457  0.1454 -0.0941  0.7144
  123OSM   H12S13081   6.136   6.097   7.436  2.2078 -0.2876 -0.5998
  123OSM   H12T13082   6.246   5.964   7.469  0.4514  0.2768 -1.0842
  123OSM   C13S13083   6.066   5.958   7.583  0.5774  0.4007  0.9496
  123OSM   H13S13084   6.029   5.853   7.586  2.1257 -0.2248 -1.1284
  123OSM   H13T13085   5.966   6.007   7.589  0.3562  0.3530 -1.6603
  123OSM   C14S13086   6.156   5.994   7.698  0.2235 -0.3210 -0.7358
  123OSM   H14S13087   6.173   6.104   7.700 -2.4388  0.1676 -2.8883
  123OSM   H14T13088   6.252   5.948   7.666  0.2408 -0.0267 -1.1055
  123OSM   C15S13089   6.106   5.954   7.837 -0.4504  0.0069  0.2617
  123OSM   H15S13090   6.095   5.843   7.833 -1.0378  0.0424  0.8797
  123OSM   H15T13091   6.005   5.990   7.863 -0.6673 -0.0781 -0.4426
  123OSM   C16S13092   6.198   5.999   7.950  0.5921  0.3480 -0.0251
  123OSM   H16S13093   6.148   6.019   8.047  1.5921  3.3086 -0.0657
  123OSM   H16T13094   6.222   6.107   7.933 -0.6279  0.5934 -0.2112
  123OSM   C17S13095   6.319   5.907   7.977 -0.8588  0.5209  0.0619
  123OSM   H17S13096   6.368   5.869   7.885  0.8752 -1.1060  1.6018
  123OSM   H17T13097   6.288   5.806   8.013 -3.7187  1.2352 -0.2407
  123OSM   C18S13098   6.435   5.965   8.065  0.4379  0.2486  0.5313
  123OSM   H18S13099   6.493   6.036   8.002  1.8594 -1.2116  0.1773
  123OSM   H18T13100   6.513   5.893   8.095  0.7361  0.5177  0.4043
  123OSM   H18U13101   6.392   5.999   8.162  0.5369  2.8933 -0.3092
  123OSM    C1F13102   5.893   5.349   6.577  0.7899  0.9803  0.1263
  123OSM     OF13103   5.934   5.264   6.492  0.5688 -0.0602  0.5618
  123OSM    C2F13104   5.861   5.309   6.716 -0.5132  0.1842 -0.4899
  123OSM    H2F13105   5.752   5.320   6.732 -0.6328 -1.5645  0.0042
  123OSM    H2G13106   5.911   5.378   6.787  1.4022 -1.7995  0.1434
  123OSM    C3F13107   5.909   5.165   6.748  0.3495  0.0811 -0.5825
  123OSM    H3F13108   6.020   5.155   6.756  0.2978  1.0535  1.7887
  123OSM    H3G13109   5.873   5.095   6.670 -0.8803 -4.2139  3.5601
  123OSM    C4F13110   5.849   5.108   6.884 -0.2603 -0.8184 -0.4401
  123OSM    H4F13111   5.841   4.998   6.873  0.0241 -0.9673  0.7137
  123OSM    H4G13112   5.744   5.139   6.903  0.3892  0.4493  1.2114
  123OSM    C5F13113   5.918   5.153   7.013  0.4134  0.1138  0.8262
  123OSM    H5F13114   5.920   5.264   7.003 -1.0889  0.1605  1.0032
  123OSM    H5G13115   6.023   5.115   7.015  1.3161  2.3948 -1.2394
  123OSM    C6F13116   5.845   5.129   7.150 -0.7307  0.3747  0.9891
  123OSM    H6F13117   5.848   5.022   7.177  0.6364  0.1394 -0.0403
  123OSM    H6G13118   5.738   5.158   7.139 -0.7936 -0.5352 -1.0954
  123OSM    C7F13119   5.909   5.225   7.256  0.1720 -0.1786 -0.7620
  123OSM    H7F13120   5.903   5.332   7.225  0.4374  0.9060  2.7502
  123OSM    H7G13121   6.017   5.204   7.272 -0.0622  0.1000  1.2636
  123OSM    C8F13122   5.851   5.210   7.395  0.4484 -0.1392 -0.2405
  123OSM    H8F13123   5.742   5.221   7.379  0.3445 -1.5621 -0.5836
  123OSM    H8G13124   5.884   5.300   7.451  0.4395 -0.8923  0.9887
  123OSM    C9F13125   5.898   5.079   7.452 -0.1956 -0.2276  1.0730
  123OSM    H9F13126   5.883   4.989   7.390  2.6854  1.3235 -2.0008
  123OSM   C10F13127   5.929   5.060   7.578 -0.4063  1.1144  0.2800
  123OSM   H10F13128   5.968   4.961   7.607 -1.3640  0.4057 -0.7688
  123OSM   C11F13129   5.930   5.167   7.685  0.1403  0.1869  0.5470
  123OSM   H11F13130   5.889   5.259   7.638  2.4087  0.9953  0.0723
  123OSM   H11G13131   6.032   5.197   7.718  0.8309  0.6825 -1.9177
  123OSM   C12F13132   5.833   5.139   7.798  0.1407 -0.4293  0.1565
  123OSM   H12F13133   5.842   5.038   7.844 -1.8823 -0.8725 -0.3360
  123OSM   H12G13134   5.735   5.128   7.747  0.1969 -0.3266  0.0271
  123OSM   C13F13135   5.838   5.242   7.917 -0.2310  0.3711  0.4614
  123OSM   H13F13136   5.809   5.345   7.888 -2.0237  0.5728  2.7966
  123OSM   H13G13137   5.941   5.232   7.958 -0.4040  3.4504  1.7518
  123OSM   C14F13138   5.746   5.192   8.026 -0.1615 -0.0296 -0.4471
  123OSM   H14F13139   5.760   5.087   8.058 -1.8331  0.2996  1.5015
  123OSM   H14G13140   5.646   5.191   7.976 -0.2180 -0.2564 -0.3264
  123OSM   C15F13141   5.742   5.280   8.150 -0.3602 -0.4463  0.1027
  123OSM   H15F13142   5.654   5.247   8.209 -1.4170  2.6925  0.3775
  123OSM   H15G13143   5.730   5.387   8.122 -0.5425 -0.2425  0.9438
  123OSM   C16F13144   5.855   5.267   8.256 -0.5639 -0.1478  0.5880
  123OSM   H16F13145   5.952   5.301   8.215  0.0287 -0.9930  1.2547
  123OSM   H16G13146   5.871   5.158   8.271 -1.9491 -0.1440  2.2747
  123OSM   C17F13147   5.835   5.344   8.386 -0.7590 -0.8498  0.3089
  123OSM   H17F13148   5.769   5.292   8.459 -0.0132 -0.2140  1.4474
  123OSM   H17G13149   5.786   5.443   8.371 -3.0338 -1.8097  1.0538
  123OSM   C18F13150   5.966   5.362   8.466  0.6113 -0.1342 -0.5122
  123OSM   H18F13151   6.036   5.429   8.412  1.5562 -1.6479 -1.1915
  123OSM   H18G13152   6.012   5.260   8.468  2.0732  0.5426  1.7197
  123OSM   H18H13153   5.928   5.396   8.564 -2.1853 -0.0132 -1.5896
  124OSM      N13154   2.459   3.573   6.022 -0.2420 -0.4066  0.1065
  124OSM    C1513155   2.477   3.714   6.072 -0.2028  0.8645 -0.0535
  124OSM   H15A13156   2.388   3.772   6.051 -0.4349  0.4057 -0.3715
  124OSM   H15B13157   2.546   3.774   6.015  0.6571  0.6026  0.7151
  124OSM   H15C13158   2.479   3.713   6.179 -2.2295 -1.7209  0.0330
  124OSM    C1413159   2.408   3.570   5.877 -0.0564 -0.0695  0.1941
  124OSM   H14A13160   2.305   3.600   5.887 -0.0069  0.1528  0.0380
  124OSM   H14B13161   2.406   3.466   5.847 -2.1156  0.4135 -1.4110
  124OSM   H14C13162   2.454   3.638   5.807 -3.5712  0.8751 -1.3139
  124OSM    C1313163   2.592   3.514   6.028  0.2827 -0.0012 -0.0792
  124OSM   H13A13164   2.665   3.567   5.967 -1.5698  0.0436 -2.3059
  124OSM   H13B13165   2.595   3.410   6.002 -0.9057  0.0050 -0.2549
  124OSM   H13C13166   2.625   3.525   6.130 -1.6334 -1.8205  0.7616
  124OSM    C1213167   2.359   3.504   6.109  0.3765 -0.3981 -0.0897
  124OSM   H12A13168   2.322   3.415   6.060  0.9429 -0.0177 -1.2281
  124OSM   H12B13169   2.273   3.570   6.110 -0.3865 -1.3923 -0.0038
  124OSM    C1113170   2.405   3.467   6.248  0.1224 -0.5122 -0.0532
  124OSM   H11A13171   2.310   3.432   6.294 -0.4463 -0.2394 -1.0019
  124OSM   H11B13172   2.440   3.553   6.309 -0.7098 -1.2129  1.4392
  124OSM      P13173   2.468   3.218   6.193 -0.1731 -0.3865  0.1241
  124OSM    O1313174   2.368   3.231   6.085 -0.0389 -0.4898  0.3678
  124OSM    O1413175   2.596   3.151   6.151  0.2414  0.3593  0.4891
  124OSM    O1113176   2.404   3.154   6.316  0.1134  0.0789 -0.3999
  124OSM    O1213177   2.501   3.361   6.250 -0.0667 -0.5338  0.4858
  124OSM    C1S13178   2.440   3.176   6.457 -0.3935  0.1929  0.5322
  124OSM    H1S13179   2.542   3.221   6.463 -0.1382  0.1610 -2.7687
  124OSM    H1T13180   2.461   3.081   6.510 -1.4868 -0.1165  0.4253
  124OSM     NF13181   2.387   3.302   6.660 -0.5482 -1.0277 -0.3779
  124OSM    HNF13182   2.373   3.249   6.743 -1.2596  0.3138  0.3823
  124OSM    C2S13183   2.336   3.255   6.535 -0.3626 -0.0218  0.0325
  124OSM    H2S13184   2.314   3.345   6.473  0.4007  0.9189  1.1094
  124OSM    C3S13185   2.223   3.157   6.553  0.8739 -0.0317 -1.1021
  124OSM    H3S13186   2.256   3.061   6.599 -1.5569  0.5226  1.9173
  124OSM     O313187   2.160   3.133   6.427  0.1728 -0.1978  0.3543
  124OSM    HO313188   2.234   3.136   6.366 -0.6578 -2.9575 -0.8668
  124OSM    C4S13189   2.119   3.209   6.653  0.0756 -0.2887 -0.6088
  124OSM    H4S13190   2.071   3.302   6.619 -1.5688 -0.7575  0.4289
  124OSM    C5S13191   2.099   3.148   6.769 -0.4794 -1.4899 -0.1982
  124OSM    H5S13192   2.166   3.067   6.800 -1.2004 -1.6957  0.8759
  124OSM    C6S13193   1.995   3.186   6.875 -0.1303 -1.2239  0.2369
  124OSM    H6S13194   2.048   3.215   6.968 -0.5089  0.5543 -0.0709
  124OSM    H6T13195   1.934   3.098   6.903 -0.9076 -0.7746  0.0024
  124OSM    C7S13196   1.894   3.292   6.846  0.2728 -0.3336 -0.7016
  124OSM    H7S13197   1.829   3.251   6.766  2.9270 -1.0817 -2.5236
  124OSM    H7T13198   1.944   3.380   6.800 -0.0459 -0.3696 -1.1184
  124OSM    C8S13199   1.816   3.332   6.977 -0.0742  0.1663  0.0871
  124OSM    H8S13200   1.733   3.396   6.940  1.6075  1.2550 -1.9148
  124OSM    H8T13201   1.889   3.400   7.028 -1.3024  1.7140 -0.1656
  124OSM    C9S13202   1.772   3.219   7.074 -0.0829  0.2605  0.0859
  124OSM    H9S13203   1.859   3.173   7.125  2.2836  3.8064 -0.5224
  124OSM    H9T13204   1.721   3.142   7.014 -0.8510  0.3865  0.5667
  124OSM   C10S13205   1.686   3.276   7.189 -0.6000 -0.3010 -1.0828
  124OSM   H10S13206   1.645   3.187   7.242 -0.9420  0.1631 -0.5603
  124OSM   H10T13207   1.597   3.337   7.162  1.6042  2.9618 -1.2838
  124OSM   C11S13208   1.774   3.342   7.296  0.0322 -1.2149  0.1975
  124OSM   H11S13209   1.813   3.442   7.265 -0.9757 -1.4602 -1.9656
  124OSM   H11T13210   1.864   3.282   7.320  0.0637 -1.3127 -0.1527
  124OSM   C12S13211   1.695   3.356   7.426  0.0705  0.6532  0.4193
  124OSM   H12S13212   1.597   3.405   7.409 -0.6587 -1.0612 -0.5102
  124OSM   H12T13213   1.746   3.422   7.499  2.0557 -0.2939 -0.0675
  124OSM   C13S13214   1.668   3.226   7.510 -0.1616 -0.8445 -0.1984
  124OSM   H13S13215   1.765   3.185   7.545 -0.7213 -3.3613 -1.4704
  124OSM   H13T13216   1.621   3.143   7.452 -3.2082 -0.7155  1.9489
  124OSM   C14S13217   1.567   3.260   7.629  0.2724 -0.1579  0.9079
  124OSM   H14S13218   1.466   3.262   7.584  1.3055 -3.4960 -1.7893
  124OSM   H14T13219   1.585   3.365   7.660 -1.1127  0.0935  0.8968
  124OSM   C15S13220   1.582   3.171   7.754 -0.1160 -0.5739  0.7388
  124OSM   H15S13221   1.678   3.192   7.806 -0.6585 -0.9418  1.9086
  124OSM   H15T13222   1.585   3.063   7.730  1.1675 -0.3129 -0.2893
  124OSM   C16S13223   1.459   3.172   7.848  0.3120  0.4456 -0.2977
  124OSM   H16S13224   1.367   3.149   7.791  0.4559  0.1430 -0.4083
  124OSM   H16T13225   1.442   3.281   7.864  0.8876  0.0771  3.2339
  124OSM   C17S13226   1.484   3.109   7.988 -0.0787  0.0949 -0.4706
  124OSM   H17S13227   1.584   3.143   8.024  0.8686  1.0091 -3.7291
  124OSM   H17T13228   1.500   3.000   7.974 -0.2303 -0.2476  1.8306
  124OSM   C18S13229   1.377   3.133   8.096  0.2349  0.2084  0.4368
  124OSM   H18S13230   1.279   3.118   8.044 -0.6824 -1.1183  2.4417
  124OSM   H18T13231   1.385   3.236   8.136  0.8561 -0.4886  2.1722
  124OSM   H18U13232   1.387   3.064   8.183 -1.3138 -0.7672 -0.1222
  124OSM    C1F13233   2.474   3.404   6.676 -0.3878 -0.6117 -0.3898
  124OSM     OF13234   2.501   3.475   6.579 -0.3583  0.0396 -0.4514
  124OSM    C2F13235   2.540   3.429   6.811 -0.1373 -0.6417  0.1389
  124OSM    H2F13236   2.569   3.330   6.852 -0.7218 -1.0384 -0.3874
  124OSM    H2G13237   2.465   3.481   6.873  1.5642  0.5093  1.2755
  124OSM    C3F13238   2.657   3.531   6.803 -0.5455 -0.3165  0.5277
  124OSM    H3F13239   2.619   3.634   6.783  2.6180  0.9726  0.8414
  124OSM    H3G13240   2.726   3.506   6.719 -3.0693 -0.8259 -1.4574
  124OSM    C4F13241   2.738   3.541   6.940 -0.1846  0.6393  0.0824
  124OSM    H4F13242   2.837   3.588   6.921  0.9374 -1.4614  0.4749
  124OSM    H4G13243   2.761   3.434   6.961 -2.5808 -0.0155 -0.4816
  124OSM    C5F13244   2.656   3.618   7.047  0.2085  0.3326 -0.0398
  124OSM    H5F13245   2.566   3.560   7.077 -0.5128  1.5979  0.2956
  124OSM    H5G13246   2.619   3.712   7.001 -1.8221 -0.2773  0.2704
  124OSM    C6F13247   2.735   3.642   7.178 -0.0432 -0.4888  0.2579
  124OSM    H6F13248   2.681   3.731   7.219  0.4078  0.3932 -1.0282
  124OSM    H6G13249   2.843   3.669   7.168 -0.6496  2.1165  0.2710
  124OSM    C7F13250   2.717   3.536   7.286 -0.2913 -0.0823  0.1399
  124OSM    H7F13251   2.778   3.448   7.256 -2.3090 -1.7537  0.7259
  124OSM    H7G13252   2.615   3.492   7.293 -0.1458 -0.0754  3.3115
  124OSM    C8F13253   2.766   3.562   7.423  0.0203  0.6333 -0.4278
  124OSM    H8F13254   2.875   3.584   7.420  0.5964 -2.1692 -2.4223
  124OSM    H8G13255   2.741   3.474   7.486  0.6059  0.6057 -0.2386
  124OSM    C9F13256   2.701   3.682   7.483 -0.1799 -0.0577 -0.1431
  124OSM    H9F13257   2.709   3.778   7.429  0.3246 -0.0163  0.0092
  124OSM   C10F13258   2.621   3.680   7.588 -0.3054 -0.4819  0.1942
  124OSM   H10F13259   2.588   3.783   7.610 -1.5371 -0.9689  0.6487
  124OSM   C11F13260   2.585   3.579   7.685  0.0119 -0.2509 -0.1123
  124OSM   H11F13261   2.551   3.490   7.628  2.0110  0.8043 -3.0680
  124OSM   H11G13262   2.494   3.606   7.743 -1.4592 -1.9552 -1.5610
  124OSM   C12F13263   2.698   3.535   7.778 -0.0167  0.1505  0.3273
  124OSM   H12F13264   2.790   3.521   7.717  0.2457 -1.6503  1.0807
  124OSM   H12G13265   2.660   3.435   7.808  1.1455 -0.6970 -0.9792
  124OSM   C13F13266   2.712   3.611   7.910 -0.5491  0.6140  0.1923
  124OSM   H13F13267   2.614   3.623   7.961 -0.9554  2.6324 -0.9926
  124OSM   H13G13268   2.733   3.718   7.890 -2.5922  0.9413 -0.3303
  124OSM   C14F13269   2.817   3.549   8.000 -0.4207 -0.4136 -0.0330
  124OSM   H14F13270   2.913   3.563   7.945  0.2896 -0.7245  1.1009
  124OSM   H14G13271   2.803   3.439   8.005  1.1610 -0.7824 -2.8092
  124OSM   C15F13272   2.813   3.626   8.133  0.2872  0.2403 -0.2679
  124OSM   H15F13273   2.716   3.603   8.180  0.5660 -0.3109  0.0455
  124OSM   H15G13274   2.813   3.732   8.102 -0.3999  0.3119 -0.0262
  124OSM   C16F13275   2.936   3.597   8.217 -0.2375  0.7348 -0.2098
  124OSM   H16F13276   3.025   3.635   8.164 -1.6291  2.7019 -1.1626
  124OSM   H16G13277   2.941   3.486   8.226 -1.6213  0.6592 -0.3769
  124OSM   C17F13278   2.928   3.653   8.365 -0.1110 -0.1258  0.0452
  124OSM   H17F13279   2.821   3.661   8.393  0.3981 -0.0784  2.0048
  124OSM   H17G13280   2.968   3.757   8.367  0.7039 -0.3712 -2.2802
  124OSM   C18F13281   2.982   3.558   8.466  0.2120 -0.0299  0.1033
  124OSM   H18F13282   2.904   3.486   8.500  1.6246 -0.0793  3.5072
  124OSM   H18G13283   3.027   3.602   8.558  1.1325 -2.2519  0.7494
  124OSM   H18H13284   3.075   3.509   8.432 -0.6339 -2.4625  1.1771
  125OSM      N13285   1.145   4.516   6.178 -0.7530  0.1860  0.0611
  125OSM    C1513286   1.086   4.594   6.064  0.6789 -0.5062 -0.0383
  125OSM   H15A13287   1.082   4.539   5.972 -0.8937  0.9519 -0.8726
  125OSM   H15B13288   1.141   4.683   6.035 -0.4408 -0.0153 -0.6864
  125OSM   H15C13289   0.988   4.636   6.078  0.4210 -0.7085 -1.2069
  125OSM    C1413290   1.121   4.609   6.300  0.7166  0.2423 -0.6957
  125OSM   H14A13291   1.155   4.565   6.393  0.4508  0.9056 -0.2810
  125OSM   H14B13292   1.017   4.632   6.320  0.8265 -0.4424  0.7433
  125OSM   H14C13293   1.176   4.702   6.296  0.0434  0.6327 -1.0559
  125OSM    C1313294   1.066   4.391   6.200 -0.0554 -0.7618  0.2821
  125OSM   H13A13295   1.063   4.324   6.115 -1.1333  0.9645 -1.0747
  125OSM   H13B13296   0.966   4.426   6.222 -0.7276 -2.1456 -0.4837
  125OSM   H13C13297   1.102   4.331   6.283  3.3778  0.2195 -0.4315
  125OSM    C1213298   1.292   4.493   6.152  0.6765  0.8187  0.0510
  125OSM   H12A13299   1.324   4.589   6.114  1.8837  0.3693 -0.0821
  125OSM   H12B13300   1.302   4.422   6.071 -2.0077 -0.2442  0.6194
  125OSM    C1113301   1.385   4.451   6.268 -0.3737 -1.0188  1.2018
  125OSM   H11A13302   1.372   4.529   6.346  2.1670  1.7295 -0.9896
  125OSM   H11B13303   1.491   4.445   6.236 -0.4027  0.2412  0.8248
  125OSM      P13304   1.415   4.193   6.294 -0.3725  0.0421  0.6702
  125OSM    O1313305   1.345   4.084   6.365 -0.2046 -0.5203  0.0876
  125OSM    O1413306   1.425   4.174   6.145 -0.4472  0.3395  0.1108
  125OSM    O1113307   1.555   4.206   6.358 -0.4109 -0.2540 -0.0948
  125OSM    O1213308   1.343   4.325   6.323 -0.3436 -0.3660  0.0215
  125OSM    C1S13309   1.582   4.300   6.468  0.0082  0.3548  0.1551
  125OSM    H1S13310   1.515   4.388   6.479  2.1386  1.6880  3.1368
  125OSM    H1T13311   1.686   4.337   6.456  0.1368  0.2603  0.9704
  125OSM     NF13312   1.614   4.334   6.713 -0.3813 -0.0201  0.1471
  125OSM    HNF13313   1.711   4.351   6.731  0.6369 -3.1908 -1.9301
  125OSM    C2S13314   1.583   4.235   6.607  0.0323  0.6599  0.3284
  125OSM    H2S13315   1.480   4.198   6.630 -0.3694  1.0461 -0.8302
  125OSM    C3S13316   1.672   4.106   6.603  0.1891 -0.6427 -0.9409
  125OSM    H3S13317   1.772   4.134   6.564  0.6665  0.7746  1.2069
  125OSM     O313318   1.617   4.003   6.524 -0.4472 -0.1774 -0.3278
  125OSM    HO313319   1.553   4.049   6.470 -1.0636  1.0763  1.4450
  125OSM    C4S13320   1.677   4.041   6.744 -0.2394  0.6327 -0.0291
  125OSM    H4S13321   1.581   4.004   6.783  0.5612 -1.6296 -0.1430
  125OSM    C5S13322   1.792   4.020   6.815 -0.2266 -0.0793 -0.2335
  125OSM    H5S13323   1.881   4.052   6.759 -0.4868 -1.0989 -1.2513
  125OSM    C6S13324   1.802   3.953   6.951 -0.2296 -0.1511  0.2320
  125OSM    H6S13325   1.860   3.858   6.959 -0.0297 -0.2577 -2.1284
  125OSM    H6T13326   1.701   3.916   6.977  0.0752  0.1564  1.9371
  125OSM    C7S13327   1.831   4.049   7.063  0.3510  0.4146 -0.7540
  125OSM    H7S13328   1.756   4.130   7.052 -0.6678 -0.6870 -1.9195
  125OSM    H7T13329   1.933   4.092   7.050  0.5683  0.3644  0.6929
  125OSM    C8S13330   1.824   3.979   7.207 -0.3573 -0.4908 -0.5860
  125OSM    H8S13331   1.912   3.911   7.214 -0.6607 -0.9763 -1.3272
  125OSM    H8T13332   1.728   3.924   7.217  0.1024 -0.6239  4.0333
  125OSM    C9S13333   1.845   4.075   7.326  0.2195 -0.3468  0.0449
  125OSM    H9S13334   1.772   4.153   7.297  0.3329  0.0520  0.8240
  125OSM    H9T13335   1.945   4.123   7.331 -0.1020  0.1993  1.8169
  125OSM   C10S13336   1.816   4.017   7.461 -0.3700 -0.1561 -0.5631
  125OSM   H10S13337   1.905   3.957   7.490 -1.1754 -1.0584  0.0651
  125OSM   H10T13338   1.724   3.955   7.462  0.2121 -1.0704  2.0524
  125OSM   C11S13339   1.797   4.131   7.560 -0.2711  0.0788  0.2937
  125OSM   H11S13340   1.707   4.191   7.534 -0.2146 -0.4188 -1.0779
  125OSM   H11T13341   1.874   4.211   7.552 -1.0278  0.9012  1.0953
  125OSM   C12S13342   1.775   4.087   7.701 -0.8939 -0.2630  0.2529
  125OSM   H12S13343   1.699   4.006   7.704 -2.4157  1.0334 -2.1129
  125OSM   H12T13344   1.734   4.175   7.755 -2.7893 -1.3162  0.5648
  125OSM   C13S13345   1.897   4.036   7.780 -0.2004  0.6744 -0.1853
  125OSM   H13S13346   1.984   4.103   7.767  1.5336 -1.7624 -1.4972
  125OSM   H13T13347   1.922   3.939   7.732  0.4891  0.3485  0.8037
  125OSM   C14S13348   1.870   4.001   7.928  0.6408 -0.3396  0.3241
  125OSM   H14S13349   1.787   3.931   7.948  1.6460 -0.8284  3.0264
  125OSM   H14T13350   1.837   4.090   7.987 -0.0862 -0.3230 -0.1048
  125OSM   C15S13351   1.991   3.944   7.992  0.3722  0.5326 -0.1544
  125OSM   H15S13352   2.081   4.008   7.975  0.2960  1.0929  1.4654
  125OSM   H15T13353   2.010   3.845   7.946  0.2801  0.4065  0.0820
  125OSM   C16S13354   1.975   3.911   8.140 -0.1282 -0.0491 -0.2741
  125OSM   H16S13355   1.908   3.822   8.149  1.2782 -1.2904 -1.8320
  125OSM   H16T13356   1.913   3.992   8.184  0.6966  0.5180 -0.1524
  125OSM   C17S13357   2.099   3.902   8.226 -0.7282 -0.2448 -0.3813
  125OSM   H17S13358   2.151   4.001   8.226 -0.8015 -0.1732  2.3157
  125OSM   H17T13359   2.152   3.826   8.164  0.7662  0.2640  0.2518
  125OSM   C18S13360   2.076   3.848   8.368 -0.5874 -0.3386 -0.3599
  125OSM   H18S13361   2.165   3.854   8.434 -1.2001  0.7517  0.3965
  125OSM   H18T13362   2.043   3.742   8.359 -2.0590  0.1377 -0.7908
  125OSM   H18U13363   1.998   3.904   8.425 -0.5655  1.5417 -2.1167
  125OSM    C1F13364   1.531   4.424   6.739  0.5935 -0.4031  0.5366
  125OSM     OF13365   1.413   4.416   6.706 -0.0933 -0.4190  0.1075
  125OSM    C2F13366   1.577   4.539   6.817  0.1261 -0.7506 -0.6526
  125OSM    H2F13367   1.683   4.536   6.851 -0.4851  1.7373  1.6537
  125OSM    H2G13368   1.505   4.561   6.899 -1.2607 -0.0011 -2.0445
  125OSM    C3F13369   1.568   4.667   6.725 -0.4535 -0.5569  0.0258
  125OSM    H3F13370   1.475   4.661   6.664  1.0181  1.1470 -2.4435
  125OSM    H3G13371   1.647   4.659   6.647  0.6938  1.4834  0.9538
  125OSM    C4F13372   1.581   4.800   6.795  0.7545 -0.3284  0.0311
  125OSM    H4F13373   1.489   4.821   6.853  1.0777 -0.1560  0.4888
  125OSM    H4G13374   1.581   4.877   6.715  0.4470 -2.3767 -2.0140
  125OSM    C5F13375   1.702   4.817   6.887 -0.1421 -0.1932 -0.5956
  125OSM    H5F13376   1.753   4.916   6.890 -0.1734 -0.1669 -0.9308
  125OSM    H5G13377   1.779   4.747   6.848  0.4578 -0.5748  1.2416
  125OSM    C6F13378   1.675   4.779   7.029 -0.1706  0.6275  0.5130
  125OSM    H6F13379   1.777   4.770   7.073  0.6946 -0.3067 -1.6311
  125OSM    H6G13380   1.625   4.679   7.029  0.3894  0.3147 -1.9712
  125OSM    C7F13381   1.593   4.886   7.106  0.0201  0.2819  0.4578
  125OSM    H7F13382   1.489   4.889   7.068  0.7791  2.3017 -1.5599
  125OSM    H7G13383   1.624   4.991   7.089 -0.4705  0.2707 -0.5613
  125OSM    C8F13384   1.608   4.870   7.254 -0.5930  0.2838 -0.2231
  125OSM    H8F13385   1.548   4.944   7.311 -2.4305  0.6090 -2.4863
  125OSM    H8G13386   1.716   4.882   7.274 -0.5660 -0.6591  0.1848
  125OSM    C9F13387   1.562   4.732   7.298  0.1902  0.6146 -0.6262
  125OSM    H9F13388   1.468   4.710   7.245  0.7376  1.5478 -2.0125
  125OSM   C10F13389   1.614   4.650   7.383 -0.0590  0.6269  0.6005
  125OSM   H10F13390   1.564   4.553   7.393  0.7902  0.3902  2.6700
  125OSM   C11F13391   1.742   4.684   7.458 -0.1778 -0.0062  0.4954
  125OSM   H11F13392   1.763   4.792   7.471  1.6432 -0.4725  1.6359
  125OSM   H11G13393   1.830   4.649   7.400 -1.7170  0.8770 -2.4440
  125OSM   C12F13394   1.732   4.619   7.591  0.1846 -0.4381 -0.5893
  125OSM   H12F13395   1.822   4.652   7.648 -0.4654 -1.3032  0.9888
  125OSM   H12G13396   1.746   4.509   7.582 -1.3890 -0.5888 -1.3223
  125OSM   C13F13397   1.607   4.658   7.681 -0.1720 -0.2572  0.0190
  125OSM   H13F13398   1.513   4.614   7.642 -0.4670  1.2610 -1.0243
  125OSM   H13G13399   1.590   4.767   7.691 -1.6089 -0.5989  1.5522
  125OSM   C14F13400   1.624   4.601   7.823 -0.0642 -0.5353  0.6489
  125OSM   H14F13401   1.724   4.623   7.866  0.5575  0.2535 -1.1177
  125OSM   H14G13402   1.630   4.493   7.800 -0.3099 -0.7443  1.5478
  125OSM   C15F13403   1.511   4.636   7.919  0.2150  0.2530  0.6534
  125OSM   H15F13404   1.406   4.620   7.887  0.4092  2.1577 -1.0530
  125OSM   H15G13405   1.522   4.739   7.958  2.1823  0.3054  0.0324
  125OSM   C16F13406   1.514   4.546   8.046  0.4241  0.0458 -0.1245
  125OSM   H16F13407   1.613   4.561   8.093 -0.1073 -1.9587  1.7131
  125OSM   H16G13408   1.504   4.441   8.011  2.3534  0.2078 -1.2033
  125OSM   C17F13409   1.388   4.564   8.144 -0.2080  0.2763 -0.3663
  125OSM   H17F13410   1.287   4.552   8.100 -0.9154  1.7443  0.8208
  125OSM   H17G13411   1.394   4.670   8.176  0.6405  0.1595 -0.1217
  125OSM   C18F13412   1.391   4.475   8.265 -0.6120 -0.7378  0.3970
  125OSM   H18F13413   1.354   4.372   8.247  1.4058 -1.4349  0.0947
  125OSM   H18G13414   1.323   4.511   8.345 -0.4429  1.0982 -0.2572
  125OSM   H18H13415   1.496   4.476   8.301 -0.8887 -0.4153  1.2122
  126OSM      N13416   5.914   3.693   6.580 -0.2773 -0.0579 -0.0306
  126OSM    C1513417   5.851   3.657   6.717 -0.3264 -0.7446  0.3235
  126OSM   H15A13418   5.818   3.554   6.715  0.6669 -1.0829  1.1835
  126OSM   H15B13419   5.768   3.726   6.728  0.1511  0.0110 -0.7098
  126OSM   H15C13420   5.923   3.674   6.796  0.0493  0.3360 -0.2404
  126OSM    C1413421   5.807   3.661   6.478 -0.2498  0.6048 -0.4059
  126OSM   H14A13422   5.841   3.669   6.375 -0.8014 -0.5023 -0.6811
  126OSM   H14B13423   5.717   3.715   6.500 -1.3861 -2.1734  2.0970
  126OSM   H14C13424   5.786   3.556   6.492 -0.7447  0.6195 -0.9998
  126OSM    C1313425   5.942   3.835   6.574  0.1312 -0.4835 -1.0247
  126OSM   H13A13426   5.980   3.867   6.478  0.8023  0.1170 -0.5619
  126OSM   H13B13427   6.026   3.849   6.640 -0.4202  1.2115 -0.6621
  126OSM   H13C13428   5.857   3.900   6.593  0.4646  0.1812 -1.7703
  126OSM    C1213429   6.043   3.620   6.556 -0.2735  0.3235 -0.1565
  126OSM   H12A13430   6.085   3.646   6.460  2.3541 -0.3666  0.7609
  126OSM   H12B13431   6.016   3.515   6.551  0.3380  0.1107  0.7489
  126OSM    C1113432   6.168   3.641   6.652  1.3170  0.3547 -0.9517
  126OSM   H11A13433   6.248   3.566   6.629  0.2835 -0.9405 -0.3951
  126OSM   H11B13434   6.129   3.620   6.754  2.7099 -0.2313 -0.5246
  126OSM      P13435   6.305   3.848   6.575  0.0076 -0.0879 -0.0764
  126OSM    O1313436   6.439   3.772   6.569 -0.1884 -0.0450  0.0652
  126OSM    O1413437   6.241   3.881   6.445  0.2396 -0.1889 -0.3316
  126OSM    O1113438   6.326   3.983   6.650 -0.1029 -0.1826  0.0574
  126OSM    O1213439   6.209   3.775   6.673 -0.6293  0.5963  0.1264
  126OSM    C1S13440   6.231   4.058   6.719 -0.3824  0.3375 -0.4540
  126OSM    H1S13441   6.133   4.071   6.669 -0.3206  0.4219 -0.5531
  126OSM    H1T13442   6.272   4.161   6.727 -0.9581  0.5172  0.2294
  126OSM     NF13443   6.107   4.104   6.919 -0.4564  0.4135 -0.0392
  126OSM    HNF13444   6.140   4.142   7.005  0.9961 -2.3433  0.6868
  126OSM    C2S13445   6.195   4.006   6.861  0.5167 -0.7710 -0.3328
  126OSM    H2S13446   6.145   3.908   6.847 -0.3084 -0.5004  0.6005
  126OSM    C3S13447   6.316   3.976   6.954 -0.6509  0.1839  0.2378
  126OSM    H3S13448   6.371   4.070   6.973 -1.6274  0.9437 -0.6216
  126OSM     O313449   6.407   3.881   6.894 -0.2701 -0.0260 -0.2881
  126OSM    HO313450   6.360   3.856   6.813  1.5483  1.7417 -1.9266
  126OSM    C4S13451   6.276   3.919   7.093 -0.5814 -0.2689  0.0773
  126OSM    H4S13452   6.273   3.994   7.174  0.3197 -0.2429  0.0961
  126OSM    C5S13453   6.242   3.791   7.123  0.4420 -0.1243  0.5898
  126OSM    H5S13454   6.220   3.728   7.036 -1.7822 -2.6638  2.9130
  126OSM    C6S13455   6.189   3.724   7.253 -0.3021 -0.9028  0.2490
  126OSM    H6S13456   6.250   3.633   7.274 -0.5690 -1.1673 -0.1152
  126OSM    H6T13457   6.082   3.695   7.248 -0.7933  1.0087 -0.9027
  126OSM    C7S13458   6.215   3.817   7.374  0.6524 -0.1181 -0.8111
  126OSM    H7S13459   6.129   3.886   7.357  1.5364  0.5927 -2.4643
  126OSM    H7T13460   6.312   3.870   7.369  0.3461  0.4166 -1.2514
  126OSM    C8S13461   6.189   3.744   7.510 -0.0975 -0.8137 -0.3774
  126OSM    H8S13462   6.287   3.698   7.535 -0.1380  0.0061  1.2800
  126OSM    H8T13463   6.109   3.670   7.488 -0.5119 -0.0052 -1.6361
  126OSM    C9S13464   6.163   3.833   7.627  0.2429  0.7117 -0.3289
  126OSM    H9S13465   6.101   3.924   7.611  0.7146  1.2222  0.6956
  126OSM    H9T13466   6.255   3.876   7.672  0.9766  0.9820 -2.0515
  126OSM   C10S13467   6.092   3.755   7.745 -0.5064 -0.1238 -0.4864
  126OSM   H10S13468   6.157   3.673   7.779  3.5386  2.2497 -2.1246
  126OSM   H10T13469   5.998   3.705   7.712 -0.1717 -1.9566  1.2828
  126OSM   C11S13470   6.062   3.849   7.864  0.2910 -0.1885  0.2873
  126OSM   H11S13471   5.995   3.936   7.847 -1.0184 -1.6103 -2.1018
  126OSM   H11T13472   6.159   3.897   7.889  0.0553 -0.2413  1.3235
  126OSM   C12S13473   6.007   3.782   7.985  0.8522  0.5002 -0.3563
  126OSM   H12S13474   6.078   3.703   8.018  1.0743  0.5791 -0.6423
  126OSM   H12T13475   5.909   3.738   7.959  1.9188 -1.6588 -0.9324
  126OSM   C13S13476   5.989   3.883   8.099  0.1574 -0.3481 -0.3906
  126OSM   H13S13477   5.921   3.965   8.068 -0.1248 -0.0473  0.9711
  126OSM   H13T13478   6.076   3.946   8.124 -0.4224  0.3092 -0.0222
  126OSM   C14S13479   5.944   3.814   8.224  0.4175  0.3771 -0.6803
  126OSM   H14S13480   6.000   3.718   8.224  1.8986  1.2173 -1.0304
  126OSM   H14T13481   5.835   3.794   8.218  0.1518  1.4618  0.2747
  126OSM   C15S13482   5.987   3.887   8.343 -0.3837 -0.9015  0.3831
  126OSM   H15S13483   6.097   3.905   8.340  0.0775 -3.6783 -1.0013
  126OSM   H15T13484   5.965   3.830   8.436  3.3901 -1.6110  0.9427
  126OSM   C16S13485   5.922   4.023   8.361 -0.3903 -0.2910  0.0632
  126OSM   H16S13486   5.821   4.033   8.316  0.1451  1.5902 -0.7661
  126OSM   H16T13487   5.981   4.090   8.295 -0.1226 -0.5371  0.0523
  126OSM   C17S13488   5.920   4.062   8.506  0.0511 -0.0056 -0.4617
  126OSM   H17S13489   6.016   4.054   8.561  0.1352  0.7467 -0.4878
  126OSM   H17T13490   5.844   3.990   8.544 -0.9881  0.7490 -1.0830
  126OSM   C18S13491   5.869   4.206   8.533 -0.3809  0.5248 -0.2686
  126OSM   H18S13492   5.900   4.236   8.635  0.2779 -0.4685 -0.1661
  126OSM   H18T13493   5.758   4.207   8.523 -0.3263 -1.0367 -1.4332
  126OSM   H18U13494   5.919   4.275   8.462  1.4267  0.3693  0.8413
  126OSM    C1F13495   5.978   4.120   6.887  0.6403 -0.2481  0.2334
  126OSM     OF13496   5.912   4.049   6.810  0.0722 -0.0907 -0.0749
  126OSM    C2F13497   5.911   4.234   6.957  0.1287 -0.2314  0.7742
  126OSM    H2F13498   5.804   4.238   6.930  0.5665  0.4188 -0.8838
  126OSM    H2G13499   5.950   4.334   6.928  0.4206  0.1803  2.5254
  126OSM    C3F13500   5.914   4.220   7.110 -0.2171 -0.2726 -0.7255
  126OSM    H3F13501   5.883   4.317   7.155  2.6105  0.1605  0.3612
  126OSM    H3G13502   6.016   4.211   7.152 -0.0527  1.7500 -0.6178
  126OSM    C4F13503   5.836   4.104   7.170  0.2437  0.1569 -0.3089
  126OSM    H4F13504   5.855   4.009   7.116 -1.3809 -0.3725  0.0140
  126OSM    H4G13505   5.726   4.106   7.156  0.3158  1.9947 -0.8084
  126OSM    C5F13506   5.884   4.073   7.315 -0.4770  0.5161  0.1826
  126OSM    H5F13507   5.995   4.075   7.324 -0.3780  3.2604 -1.0890
  126OSM    H5G13508   5.860   3.967   7.337 -1.0255  1.0124  2.0566
  126OSM    C6F13509   5.827   4.147   7.426  0.2406 -0.0628 -0.5351
  126OSM    H6F13510   5.719   4.121   7.432  0.1618 -0.0565 -1.8355
  126OSM    H6G13511   5.835   4.258   7.423  3.1197 -0.0901  2.8319
  126OSM    C7F13512   5.894   4.122   7.560 -0.3068 -0.1291  0.2690
  126OSM    H7F13513   6.003   4.138   7.549  0.1801  0.0964  4.4198
  126OSM    H7G13514   5.876   4.018   7.593  2.1205  0.5818  4.1158
  126OSM    C8F13515   5.824   4.195   7.679 -0.5893  0.2728 -0.6112
  126OSM    H8F13516   5.829   4.302   7.650 -2.4242  0.3422 -0.6704
  126OSM    H8G13517   5.884   4.168   7.769 -0.8021 -1.3348 -0.9334
  126OSM    C9F13518   5.675   4.169   7.696 -0.4694 -0.2726  0.4683
  126OSM    H9F13519   5.638   4.108   7.612  1.3276 -2.2310  1.0538
  126OSM   C10F13520   5.610   4.225   7.796  0.1706  0.1928  0.3911
  126OSM   H10F13521   5.503   4.205   7.803  0.3031 -0.5218  0.4367
  126OSM   C11F13522   5.664   4.322   7.907 -0.2300 -0.0547 -0.1258
  126OSM   H11F13523   5.600   4.413   7.906 -3.5837 -2.3462 -0.4492
  126OSM   H11G13524   5.769   4.355   7.890 -0.5314  1.2740  0.5456
  126OSM   C12F13525   5.675   4.250   8.042  1.1513  0.4520 -0.6517
  126OSM   H12F13526   5.722   4.150   8.025 -0.4988 -0.6007  0.7383
  126OSM   H12G13527   5.576   4.223   8.085  0.9169 -0.0073 -1.4565
  126OSM   C13F13528   5.743   4.331   8.146 -0.4675  0.6294 -0.7921
  126OSM   H13F13529   5.852   4.323   8.124 -0.2864  1.1454 -0.0989
  126OSM   H13G13530   5.717   4.276   8.239  0.2754  1.5211 -0.0501
  126OSM   C14F13531   5.693   4.478   8.162 -0.2562  0.7757 -0.3894
  126OSM   H14F13532   5.588   4.485   8.197 -0.5751  3.1365 -1.7757
  126OSM   H14G13533   5.701   4.521   8.060  0.5893 -0.4841 -0.8724
  126OSM   C15F13534   5.777   4.558   8.255 -0.1201 -0.3642 -0.2882
  126OSM   H15F13535   5.750   4.666   8.254 -0.3669 -0.4170  0.7644
  126OSM   H15G13536   5.880   4.536   8.220  0.0056 -0.0310 -0.1328
  126OSM   C16F13537   5.752   4.510   8.402 -0.5491  0.0725  0.8072
  126OSM   H16F13538   5.716   4.406   8.413 -1.2416  0.0577 -1.4753
  126OSM   H16G13539   5.663   4.570   8.430  0.0449  0.9605  0.8264
  126OSM   C17F13540   5.878   4.544   8.494 -0.4104 -0.4214  0.3444
  126OSM   H17F13541   5.965   4.487   8.456  0.6355 -0.2098  2.3563
  126OSM   H17G13542   5.855   4.523   8.601 -0.5671  0.8453  0.5746
  126OSM   C18F13543   5.919   4.691   8.499 -0.1350  0.2888  0.4598
  126OSM   H18F13544   5.901   4.743   8.402 -2.7422 -1.5146 -0.0823
  126OSM   H18G13545   6.029   4.705   8.510 -0.3154  0.2465  2.4522
  126OSM   H18H13546   5.869   4.743   8.583 -1.1012  2.3004 -1.3176
  127OSM      N13547   1.417   2.332   6.154  0.4364 -0.7604  0.3717
  127OSM    C1513548   1.406   2.453   6.060 -0.5290 -0.0661  0.0644
  127OSM   H15A13549   1.497   2.464   6.003 -0.4073 -0.9253  0.0869
  127OSM   H15B13550   1.383   2.541   6.118 -0.6938 -0.4632  0.6015
  127OSM   H15C13551   1.322   2.441   5.992  0.9331  0.7846 -1.9524
  127OSM    C1413552   1.411   2.200   6.081 -0.1564  0.1895 -0.2796
  127OSM   H14A13553   1.398   2.122   6.154 -0.3738  0.1396 -0.3725
  127OSM   H14B13554   1.503   2.184   6.026 -1.2402 -0.3018 -1.9639
  127OSM   H14C13555   1.333   2.189   6.007  0.7478  1.3348 -1.4391
  127OSM    C1313556   1.544   2.343   6.238  0.4002 -0.0928 -0.1048
  127OSM   H13A13557   1.533   2.265   6.312  1.7890  0.7734  1.0412
  127OSM   H13B13558   1.543   2.439   6.287  0.0330  0.4101 -1.0736
  127OSM   H13C13559   1.634   2.343   6.178 -0.4333  1.7606 -1.4128
  127OSM    C1213560   1.299   2.344   6.250 -0.6899  0.5387  0.1219
  127OSM   H12A13561   1.294   2.439   6.301  1.5358  0.8347 -0.1315
  127OSM   H12B13562   1.308   2.262   6.319  4.4454 -1.2584 -2.4140
  127OSM    C1113563   1.161   2.349   6.174 -0.4330  0.2345 -0.1506
  127OSM   H11A13564   1.160   2.422   6.090  3.9609  1.5438  0.8089
  127OSM   H11B13565   1.091   2.386   6.251 -0.8519 -2.8349  1.0202
  127OSM      P13566   0.963   2.185   6.124  0.3661  0.2912 -0.2611
  127OSM    O1313567   0.883   2.305   6.158  0.5132 -0.2527 -0.5578
  127OSM    O1413568   0.926   2.115   6.000 -0.0223  0.4066  0.0406
  127OSM    O1113569   0.958   2.074   6.240  0.3771  0.3878  0.1178
  127OSM    O1213570   1.119   2.220   6.127 -0.2667  0.1318 -0.0331
  127OSM    C1S13571   0.989   2.120   6.377  1.2212  0.2101  0.1750
  127OSM    H1S13572   0.944   2.220   6.396 -0.5059 -0.7302  1.2109
  127OSM    H1T13573   1.100   2.128   6.383  1.1683  0.9613  0.2725
  127OSM     NF13574   0.960   2.065   6.626  0.3173  0.3359  0.0864
  127OSM    HNF13575   1.049   2.033   6.658 -0.9026 -3.8309 -0.2931
  127OSM    C2S13576   0.936   2.017   6.489  0.2837  0.1579  0.1450
  127OSM    H2S13577   0.826   2.026   6.475  0.4085 -0.1019 -1.0490
  127OSM    C3S13578   0.990   1.871   6.461  0.4578  0.3169 -0.0188
  127OSM    H3S13579   1.100   1.882   6.475  0.6853 -1.1209 -0.5939
  127OSM     O313580   0.963   1.818   6.331  0.1575  0.3035  0.1930
  127OSM    HO313581   0.969   1.899   6.280 -1.9970 -0.8179 -1.9813
  127OSM    C4S13582   0.942   1.774   6.569 -0.2428  0.5761 -0.1720
  127OSM    H4S13583   0.977   1.813   6.666 -2.2077 -1.5805  1.4521
  127OSM    C5S13584   0.855   1.669   6.570  0.1352 -0.4679 -0.5565
  127OSM    H5S13585   0.795   1.651   6.480 -1.0427  4.9421 -1.0312
  127OSM    C6S13586   0.818   1.590   6.692  0.1204  0.7872 -0.4746
  127OSM    H6S13587   0.836   1.481   6.679  0.3177  1.0506 -2.5620
  127OSM    H6T13588   0.712   1.602   6.723 -0.7395 -1.7211 -2.2532
  127OSM    C7S13589   0.898   1.620   6.827  0.1119  1.1125  0.3594
  127OSM    H7S13590   0.893   1.729   6.846  0.4733  1.0694  0.7087
  127OSM    H7T13591   1.007   1.598   6.814  0.6752  2.8696  1.8963
  127OSM    C8S13592   0.842   1.539   6.944 -0.3552  0.4389  0.2644
  127OSM    H8S13593   0.843   1.431   6.916 -1.2417  0.8509 -1.4585
  127OSM    H8T13594   0.734   1.563   6.956 -0.5757 -0.2931 -0.2306
  127OSM    C9S13595   0.922   1.574   7.070  0.0672 -0.2212 -0.3043
  127OSM    H9S13596   0.922   1.684   7.089 -0.5879 -0.1091 -0.9357
  127OSM    H9T13597   1.029   1.558   7.042  0.0564 -0.2980 -0.3026
  127OSM   C10S13598   0.895   1.484   7.188 -0.2586 -0.4265  0.5353
  127OSM   H10S13599   0.916   1.375   7.176  0.0903 -0.2217 -0.7994
  127OSM   H10T13600   0.784   1.490   7.201 -0.2820  1.1181 -0.3386
  127OSM   C11S13601   0.942   1.540   7.321  0.3910 -0.2279 -0.1429
  127OSM   H11S13602   0.872   1.619   7.355  0.9782  0.1615  0.1671
  127OSM   H11T13603   1.037   1.589   7.290 -0.3498  1.4068  0.1105
  127OSM   C12S13604   0.966   1.438   7.435  0.0950  1.2398  1.1203
  127OSM   H12S13605   1.040   1.362   7.403 -1.2893  0.6653 -0.8113
  127OSM   H12T13606   0.868   1.389   7.454  1.7548 -2.9253 -0.3859
  127OSM   C13S13607   1.002   1.513   7.563  1.0555  0.0532  0.9262
  127OSM   H13S13608   0.902   1.552   7.591  0.4677 -1.5791  1.2109
  127OSM   H13T13609   1.062   1.602   7.536  0.9122 -0.1080  0.0724
  127OSM   C14S13610   1.068   1.428   7.675 -0.0835 -0.0624 -0.5775
  127OSM   H14S13611   1.161   1.382   7.637 -0.4829  0.5743 -2.3675
  127OSM   H14T13612   0.996   1.348   7.701  0.1142 -0.0697 -0.0449
  127OSM   C15S13613   1.108   1.514   7.789 -0.1953 -0.7089  0.4816
  127OSM   H15S13614   1.016   1.571   7.813  0.3350  0.8380 -1.0105
  127OSM   H15T13615   1.191   1.585   7.768 -1.0666 -0.2965 -1.7842
  127OSM   C16S13616   1.153   1.448   7.923  0.2804  1.0562  0.0010
  127OSM   H16S13617   1.248   1.396   7.898 -1.4676 -1.2166 -2.1063
  127OSM   H16T13618   1.073   1.384   7.964  1.5543 -0.3539  0.3389
  127OSM   C17S13619   1.169   1.548   8.039 -0.4008  0.0238  0.3457
  127OSM   H17S13620   1.066   1.577   8.067 -0.2434 -0.0440  1.0074
  127OSM   H17T13621   1.230   1.634   8.004  0.7665 -1.2965 -0.9241
  127OSM   C18S13622   1.251   1.494   8.153  0.1424 -0.1093 -0.0626
  127OSM   H18S13623   1.355   1.472   8.120 -0.5230 -2.0024 -0.9666
  127OSM   H18T13624   1.199   1.411   8.206  1.4671 -0.7659  0.2247
  127OSM   H18U13625   1.256   1.569   8.235 -2.4268 -1.4422  1.3774
  127OSM    C1F13626   0.904   2.168   6.686 -0.0782 -0.4280  0.6442
  127OSM     OF13627   0.799   2.208   6.642 -0.5694 -0.3355 -0.4064
  127OSM    C2F13628   0.976   2.221   6.810 -0.0774 -0.0631 -0.5689
  127OSM    H2F13629   1.079   2.180   6.819  0.0780 -0.0182 -2.0272
  127OSM    H2G13630   0.918   2.188   6.899  1.2084 -1.8035 -0.3669
  127OSM    C3F13631   0.981   2.374   6.836  0.3001  0.2635  0.3708
  127OSM    H3F13632   0.876   2.405   6.821 -0.4943 -2.0491  0.8646
  127OSM    H3G13633   1.057   2.411   6.764  0.2131 -2.7730 -1.3465
  127OSM    C4F13634   1.038   2.407   6.981  0.1594 -0.2027  0.5645
  127OSM    H4F13635   1.065   2.515   6.984  0.1278 -0.2015  0.7948
  127OSM    H4G13636   1.138   2.364   7.005  0.5384  0.6254  0.4654
  127OSM    C5F13637   0.937   2.379   7.089 -0.5247  0.4910 -0.1957
  127OSM    H5F13638   0.956   2.271   7.106 -2.6408  0.0374 -0.5554
  127OSM    H5G13639   0.828   2.396   7.074 -0.5120  1.3421  0.6469
  127OSM    C6F13640   0.958   2.448   7.229  0.3656 -1.0667  0.0078
  127OSM    H6F13641   0.876   2.424   7.300 -0.0334 -0.0245 -0.0952
  127OSM    H6G13642   0.948   2.557   7.212 -0.3976 -1.1424 -0.0487
  127OSM    C7F13643   1.088   2.425   7.305 -0.0418  0.5019 -0.8016
  127OSM    H7F13644   1.164   2.498   7.270  0.4208  0.2315 -0.3734
  127OSM    H7G13645   1.136   2.326   7.287  1.6854  1.2669 -0.5307
  127OSM    C8F13646   1.079   2.448   7.459  0.2987 -0.0214  0.0058
  127OSM    H8F13647   1.012   2.535   7.477  0.1137 -0.1436 -0.0841
  127OSM    H8G13648   1.179   2.469   7.502 -0.8734 -0.0990  2.8534
  127OSM    C9F13649   1.019   2.325   7.525  0.2998  0.3514 -0.2566
  127OSM    H9F13650   0.959   2.251   7.472  1.8657 -0.6816 -0.6132
  127OSM   C10F13651   1.019   2.312   7.661  0.0272 -0.3190  0.3964
  127OSM   H10F13652   0.971   2.225   7.707 -1.0118 -0.8201 -1.5562
  127OSM   C11F13653   1.088   2.406   7.760  0.8645  0.4133  0.6519
  127OSM   H11F13654   1.137   2.490   7.706 -3.8052  1.2221 -2.5905
  127OSM   H11G13655   1.167   2.346   7.811  0.5100 -0.5166  0.1136
  127OSM   C12F13656   1.000   2.480   7.869  0.1351  0.1122  0.3957
  127OSM   H12F13657   0.917   2.536   7.821  0.3895  0.4602  0.3627
  127OSM   H12G13658   1.068   2.554   7.918  0.6612 -0.7935  1.0515
  127OSM   C13F13659   0.939   2.393   7.984 -0.2705 -0.1777 -0.9403
  127OSM   H13F13660   1.028   2.357   8.040 -0.1430  0.5822 -0.6597
  127OSM   H13G13661   0.873   2.318   7.935 -0.3028 -0.7333 -0.0574
  127OSM   C14F13662   0.842   2.459   8.079 -0.3553  0.1930 -0.2378
  127OSM   H14F13663   0.747   2.488   8.029 -0.4863 -1.4147 -0.9540
  127OSM   H14G13664   0.880   2.549   8.132 -0.9694  1.2794 -1.6266
  127OSM   C15F13665   0.805   2.356   8.192  0.3069 -0.4360 -0.1602
  127OSM   H15F13666   0.893   2.343   8.259  0.2447  1.8377  0.3862
  127OSM   H15G13667   0.790   2.254   8.151 -1.4412  0.1220 -0.9407
  127OSM   C16F13668   0.698   2.405   8.289  0.6002  0.4490  0.1892
  127OSM   H16F13669   0.615   2.441   8.224  2.2614  1.5546 -1.3590
  127OSM   H16G13670   0.717   2.500   8.343 -0.6792 -0.1431  1.7099
  127OSM   C17F13671   0.649   2.305   8.394 -0.6230  0.2830 -0.2960
  127OSM   H17F13672   0.741   2.266   8.444 -1.0436  0.9466  1.0357
  127OSM   H17G13673   0.609   2.213   8.346 -0.6205  0.1522 -0.0504
  127OSM   C18F13674   0.541   2.345   8.498 -0.9197  0.0479 -0.0570
  127OSM   H18F13675   0.561   2.453   8.516  0.1696 -0.3470  1.2623
  127OSM   H18G13676   0.550   2.288   8.593 -0.3091 -0.2347 -0.2776
  127OSM   H18H13677   0.439   2.340   8.456 -1.3770  2.5381  0.6943
  128OSM      N13678   3.022   5.711   6.088 -0.3595  1.2453 -0.1022
  128OSM    C1513679   3.076   5.830   6.011 -0.8683 -0.5235  0.6743
  128OSM   H15A13680   3.029   5.831   5.913 -1.0454  0.3444  0.7575
  128OSM   H15B13681   3.183   5.833   5.998 -0.6988  1.1227  2.2379
  128OSM   H15C13682   3.047   5.925   6.054 -0.5915  0.3487 -1.0263
  128OSM    C1413683   3.001   5.584   6.000 -0.3874  0.6055 -0.0189
  128OSM   H14A13684   2.985   5.495   6.060 -1.9411  2.2324  2.0248
  128OSM   H14B13685   3.080   5.581   5.927 -0.0608 -4.1303  0.3830
  128OSM   H14C13686   2.907   5.598   5.948 -0.6868  0.0639  0.3657
  128OSM    C1313687   3.127   5.683   6.193 -0.5456  0.1072  0.0834
  128OSM   H13A13688   3.221   5.658   6.146 -0.3103 -0.1797  0.7010
  128OSM   H13B13689   3.107   5.611   6.271 -1.5859 -0.0473 -0.3242
  128OSM   H13C13690   3.153   5.776   6.240 -0.7678 -0.7340  1.9218
  128OSM    C1213691   2.886   5.750   6.156  0.1857  0.9882 -0.3254
  128OSM   H12A13692   2.903   5.830   6.226 -0.6620  0.3395  0.6337
  128OSM   H12B13693   2.855   5.664   6.214 -0.6527  1.0251 -0.7179
  128OSM    C1113694   2.763   5.771   6.064  0.4224  0.0238 -0.3732
  128OSM   H11A13695   2.785   5.848   5.987  1.1384  0.1630 -0.0299
  128OSM   H11B13696   2.681   5.820   6.119 -0.0026 -0.1807 -0.8215
  128OSM      P13697   2.637   5.544   6.095 -0.1458  0.1137  0.2868
  128OSM    O1313698   2.498   5.539   6.045  0.2814 -0.1616 -0.1859
  128OSM    O1413699   2.711   5.419   6.084  0.0605 -0.1973  0.3205
  128OSM    O1113700   2.651   5.605   6.246 -0.1822  0.2741  0.1494
  128OSM    O1213701   2.720   5.651   6.004 -0.2337  0.1727  0.3424
  128OSM    C1S13702   2.641   5.510   6.356  0.2109  0.3231  0.6156
  128OSM    H1S13703   2.705   5.423   6.332 -1.5668 -0.4178 -1.6483
  128OSM    H1T13704   2.536   5.479   6.375  0.3010 -0.7296 -0.5534
  128OSM     NF13705   2.690   5.468   6.590 -0.1032 -0.2920 -1.0233
  128OSM    HNF13706   2.633   5.486   6.669  0.6946 -1.3654 -0.1999
  128OSM    C2S13707   2.697   5.571   6.490  1.4150 -0.8137 -0.5319
  128OSM    H2S13708   2.806   5.593   6.486  1.9182 -2.1548  3.4062
  128OSM    C3S13709   2.621   5.706   6.526  0.6060  0.0377  0.6035
  128OSM    H3S13710   2.512   5.688   6.535  0.4829 -1.2568 -2.9690
  128OSM     O313711   2.624   5.797   6.413 -0.0908 -0.6691 -0.0899
  128OSM    HO313712   2.647   5.745   6.336 -0.9260  0.3026 -0.9971
  128OSM    C4S13713   2.667   5.761   6.660 -0.3693 -0.6512 -0.3411
  128OSM    H4S13714   2.632   5.696   6.742 -1.7337  1.8476  1.1009
  128OSM    C5S13715   2.762   5.860   6.670 -0.0245 -0.0680  0.2792
  128OSM    H5S13716   2.813   5.898   6.581 -0.1637 -1.8006 -0.5679
  128OSM    C6S13717   2.815   5.925   6.801  0.7929 -0.0971 -0.1512
  128OSM    H6S13718   2.777   6.029   6.793 -1.1194 -0.7090  0.7374
  128OSM    H6T13719   2.925   5.926   6.816  0.5532 -0.0692  1.7145
  128OSM    C7S13720   2.765   5.858   6.935 -0.2782  0.0836  1.2241
  128OSM    H7S13721   2.797   5.752   6.942 -1.8920 -0.4673  0.5446
  128OSM    H7T13722   2.655   5.861   6.919 -0.3543 -2.8953  0.8205
  128OSM    C8S13723   2.809   5.936   7.058  0.0677  0.1524  0.1526
  128OSM    H8S13724   2.778   6.043   7.055  1.0091  0.4223 -0.5300
  128OSM    H8T13725   2.920   5.934   7.056  0.1657  1.9460  1.9252
  128OSM    C9S13726   2.744   5.870   7.183 -0.0689  0.3865  0.4530
  128OSM    H9S13727   2.762   5.760   7.180 -1.7314  0.1289 -0.6596
  128OSM    H9T13728   2.636   5.895   7.182 -0.3046 -0.6255 -0.2029
  128OSM   C10S13729   2.794   5.938   7.318  0.6539 -0.2191  1.1000
  128OSM   H10S13730   2.787   6.049   7.317  1.6675 -0.1505  1.1301
  128OSM   H10T13731   2.905   5.929   7.311  0.6084 -0.6898  1.0181
  128OSM   C11S13732   2.722   5.874   7.438 -0.9864  0.1354  0.6242
  128OSM   H11S13733   2.712   5.764   7.431 -1.4214  0.2533 -0.7547
  128OSM   H11T13734   2.620   5.918   7.440 -0.7305  0.7471  0.5170
  128OSM   C12S13735   2.788   5.922   7.569  0.1345  0.0697 -0.3298
  128OSM   H12S13736   2.814   6.030   7.573  0.4633 -0.0657  1.3162
  128OSM   H12T13737   2.891   5.881   7.569  0.9128  1.9955  0.1111
  128OSM   C13S13738   2.706   5.881   7.688 -0.0827 -0.5546 -0.0563
  128OSM   H13S13739   2.687   5.771   7.694  0.1125 -0.6010 -0.2580
  128OSM   H13T13740   2.605   5.927   7.697 -0.3738 -1.2242  0.1597
  128OSM   C14S13741   2.779   5.917   7.815 -0.1752  0.0930 -0.2591
  128OSM   H14S13742   2.814   6.022   7.807 -1.1911  0.4351 -0.3059
  128OSM   H14T13743   2.866   5.848   7.823 -0.0154  0.5982  2.7876
  128OSM   C15S13744   2.703   5.895   7.948 -0.5936 -0.2103  0.0562
  128OSM   H15S13745   2.659   5.793   7.950 -0.2235 -0.3681  0.2424
  128OSM   H15T13746   2.632   5.980   7.947 -2.3258 -1.6258 -2.3267
  128OSM   C16S13747   2.786   5.911   8.075 -0.8035  0.0913  0.1361
  128OSM   H16S13748   2.829   6.013   8.083  1.1726 -0.6394 -0.8113
  128OSM   H16T13749   2.865   5.834   8.071 -0.6729  0.2046  0.4888
  128OSM   C17S13750   2.703   5.889   8.206 -0.3928 -0.3548  0.9441
  128OSM   H17S13751   2.631   5.972   8.219  1.6901  1.2260  2.7393
  128OSM   H17T13752   2.785   5.900   8.279  0.9681 -2.0830 -0.2718
  128OSM   C18S13753   2.650   5.749   8.215 -0.2625  0.2940  0.2185
  128OSM   H18S13754   2.620   5.738   8.322 -2.2232  2.4720 -0.0868
  128OSM   H18T13755   2.721   5.672   8.177 -0.4011  0.2376  0.0746
  128OSM   H18U13756   2.560   5.744   8.151 -0.9238 -0.5572  1.1836
  128OSM    C1F13757   2.774   5.368   6.597 -0.4066 -0.0450  0.3137
  128OSM     OF13758   2.844   5.341   6.503  0.3576  0.6647  0.6363
  128OSM    C2F13759   2.775   5.293   6.731 -0.1494 -0.1968 -0.4465
  128OSM    H2F13760   2.678   5.304   6.784  0.5425  0.6408  0.6492
  128OSM    H2G13761   2.868   5.333   6.776  0.4030 -0.1690 -1.5937
  128OSM    C3F13762   2.792   5.142   6.706 -0.0074 -0.7279  0.7643
  128OSM    H3F13763   2.891   5.131   6.656 -0.1995  0.4222  0.1299
  128OSM    H3G13764   2.711   5.105   6.638  0.3806 -0.0142 -0.0982
  128OSM    C4F13765   2.788   5.068   6.836 -0.4132 -0.1934 -0.1456
  128OSM    H4F13766   2.810   4.960   6.823  0.2514  0.0663 -1.2746
  128OSM    H4G13767   2.682   5.071   6.870  0.3716 -0.9218  2.4847
  128OSM    C5F13768   2.878   5.124   6.956 -0.6287 -0.3737 -0.0642
  128OSM    H5F13769   2.848   5.228   6.979 -0.4340 -0.1459 -0.8280
  128OSM    H5G13770   2.984   5.128   6.922 -1.2176 -0.0177 -1.9413
  128OSM    C6F13771   2.875   5.019   7.068  0.5298 -0.5171 -0.1407
  128OSM    H6F13772   2.975   5.025   7.117 -1.3534 -0.5853  3.9780
  128OSM    H6G13773   2.870   4.917   7.025 -0.2457 -0.1027 -1.0674
  128OSM    C7F13774   2.756   5.040   7.172 -0.6458  0.2581  0.5920
  128OSM    H7F13775   2.745   4.947   7.232  0.7507 -0.4799 -0.2666
  128OSM    H7G13776   2.658   5.058   7.123  1.1853 -0.2623 -3.4155
  128OSM    C8F13777   2.789   5.151   7.276 -0.1914 -0.3199  0.1736
  128OSM    H8F13778   2.708   5.177   7.348 -1.9390 -3.4371 -0.5293
  128OSM    H8G13779   2.803   5.252   7.232 -0.6559 -0.5234 -0.4530
  128OSM    C9F13780   2.914   5.115   7.354  0.6771 -0.0166  0.2794
  128OSM    H9F13781   3.008   5.161   7.320  2.5297 -2.7303  1.5454
  128OSM   C10F13782   2.922   5.042   7.464 -0.4930 -0.1024 -0.3471
  128OSM   H10F13783   3.025   5.020   7.494 -1.2448 -2.2511  0.7953
  128OSM   C11F13784   2.810   4.972   7.536  0.3058 -0.3712  0.1020
  128OSM   H11F13785   2.838   4.864   7.530 -0.7421 -0.5395 -2.3305
  128OSM   H11G13786   2.708   4.993   7.498  0.3439  1.2850  0.8853
  128OSM   C12F13787   2.817   5.025   7.681  0.5066 -0.0459  0.0743
  128OSM   H12F13788   2.780   5.129   7.693 -1.2663 -0.6580  0.1859
  128OSM   H12G13789   2.913   5.005   7.732  0.4862 -1.0175 -0.2510
  128OSM   C13F13790   2.721   4.947   7.765  0.1507  0.0752 -0.2753
  128OSM   H13F13791   2.747   4.839   7.762  0.8422  0.1098  3.1836
  128OSM   H13G13792   2.629   4.948   7.702 -0.7949  0.6980  1.0879
  128OSM   C14F13793   2.680   4.998   7.902  0.2893 -0.2369  0.2646
  128OSM   H14F13794   2.616   4.913   7.933  1.6237 -1.2816  0.2042
  128OSM   H14G13795   2.611   5.085   7.891  0.1655 -0.4182 -0.4275
  128OSM   C15F13796   2.787   5.035   8.000 -0.2166  0.0513  0.4235
  128OSM   H15F13797   2.860   5.101   7.948 -0.4335 -2.1290 -2.7651
  128OSM   H15G13798   2.844   4.945   8.029 -1.2240 -2.1020 -4.0062
  128OSM   C16F13799   2.731   5.101   8.122 -0.3724  0.0341 -0.4813
  128OSM   H16F13800   2.808   5.102   8.202  1.3541  0.8761 -2.1138
  128OSM   H16G13801   2.643   5.049   8.167  0.6337 -0.0352  1.4512
  128OSM   C17F13802   2.699   5.252   8.107 -0.6499 -0.2660 -0.0978
  128OSM   H17F13803   2.618   5.271   8.034 -0.4189 -2.5546 -0.9818
  128OSM   H17G13804   2.793   5.294   8.065 -1.4397  1.9908  0.3115
  128OSM   C18F13805   2.665   5.328   8.238  0.8049  0.0244  0.4209
  128OSM   H18F13806   2.726   5.286   8.320 -2.2947 -1.8715  1.8413
  128OSM   H18G13807   2.563   5.297   8.269  1.0124 -0.4191  0.6696
  128OSM   H18H13808   2.660   5.439   8.233 -1.9943 -0.1379 -1.6947
  129OSM      N13809   0.697   1.790   6.027  0.0319 -0.1947 -0.5747
  129OSM    C1513810   0.599   1.857   5.934 -0.1955  0.3153 -0.0286
  129OSM   H15A13811   0.566   1.794   5.853 -0.8525  0.8287 -0.1592
  129OSM   H15B13812   0.641   1.949   5.897  1.4329 -0.6108 -0.5754
  129OSM   H15C13813   0.512   1.896   5.984  0.5675  2.8571 -0.6393
  129OSM    C1413814   0.624   1.677   6.102 -0.3800 -0.1873 -0.0793
  129OSM   H14A13815   0.597   1.601   6.031 -2.0559  0.1020  0.2158
  129OSM   H14B13816   0.534   1.717   6.148 -0.1522 -1.4096  1.4781
  129OSM   H14C13817   0.687   1.636   6.179  0.9799  0.7420 -0.6877
  129OSM    C1313818   0.817   1.733   5.955 -0.4781 -0.4431  0.2692
  129OSM   H13A13819   0.781   1.648   5.900 -0.8670 -1.2836  1.7983
  129OSM   H13B13820   0.903   1.703   6.014  0.6580  1.3950 -0.4115
  129OSM   H13C13821   0.865   1.806   5.892  2.0175 -0.9509  1.5201
  129OSM    C1213822   0.744   1.883   6.139 -0.1459 -0.2731  0.1278
  129OSM   H12A13823   0.807   1.952   6.087 -0.0456  0.8957  1.7453
  129OSM   H12B13824   0.812   1.837   6.209 -0.1074  1.9735  1.6265
  129OSM    C1113825   0.632   1.955   6.227 -0.1851 -0.0383 -0.3749
  129OSM   H11A13826   0.687   2.022   6.297  0.2354 -0.7980  0.0257
  129OSM   H11B13827   0.590   1.876   6.293  1.1065  1.6316  2.5359
  129OSM      P13828   0.383   2.014   6.206 -0.2172 -0.0626  0.2443
  129OSM    O1313829   0.297   2.115   6.131 -0.6846 -0.3247  0.4980
  129OSM    O1413830   0.362   1.870   6.192  0.2644 -0.1142 -0.8445
  129OSM    O1113831   0.383   2.048   6.361  0.1776 -0.2224  0.6158
  129OSM    O1213832   0.532   2.039   6.159  0.1897 -0.3215 -0.3996
  129OSM    C1S13833   0.457   2.157   6.419  0.0836 -0.2254 -0.5866
  129OSM    H1S13834   0.398   2.250   6.409 -1.3037 -0.8150  1.7982
  129OSM    H1T13835   0.562   2.164   6.385 -0.1236 -2.0524 -1.6897
  129OSM     NF13836   0.524   2.230   6.653 -0.1383 -0.0216 -0.0388
  129OSM    HNF13837   0.620   2.216   6.675 -0.9214 -3.3965  1.6879
  129OSM    C2S13838   0.461   2.124   6.578 -0.1707  0.0446 -0.5045
  129OSM    H2S13839   0.357   2.111   6.613 -0.2515 -0.3870 -0.8998
  129OSM    C3S13840   0.535   1.988   6.609  0.7479 -0.3372 -0.0808
  129OSM    H3S13841   0.636   1.990   6.562  0.5618 -0.0829 -0.4759
  129OSM     O313842   0.461   1.881   6.554  0.3741 -0.2148  0.5490
  129OSM    HO313843   0.399   1.928   6.498 -0.8971 -0.4502  1.7245
  129OSM    C4S13844   0.549   1.954   6.748 -0.3860 -0.0390  0.3733
  129OSM    H4S13845   0.460   1.979   6.806 -0.9804 -0.6267 -0.2765
  129OSM    C5S13846   0.663   1.918   6.801  0.0400 -0.6377 -0.5275
  129OSM    H5S13847   0.743   1.898   6.729  0.6767  0.1301 -0.0373
  129OSM    C6S13848   0.682   1.885   6.946 -0.3050  0.1323  0.5741
  129OSM    H6S13849   0.785   1.916   6.971 -1.1281  0.5199  3.7091
  129OSM    H6T13850   0.683   1.775   6.963  3.3912  0.0361  0.0907
  129OSM    C7S13851   0.581   1.958   7.029 -0.0296 -0.4733 -0.6370
  129OSM    H7S13852   0.483   1.908   7.015 -0.8518  1.1111 -0.6830
  129OSM    H7T13853   0.586   2.066   7.006 -1.1164 -0.4791 -0.9642
  129OSM    C8S13854   0.614   1.947   7.176  0.0193 -0.0982 -0.2351
  129OSM    H8S13855   0.613   1.840   7.206 -0.9868 -0.6976 -2.3456
  129OSM    H8T13856   0.516   1.979   7.217 -0.0090  1.2406 -1.3413
  129OSM    C9S13857   0.737   2.019   7.230 -0.6031 -0.1202 -0.6432
  129OSM    H9S13858   0.766   2.100   7.160 -1.0332 -0.2675 -0.9975
  129OSM    H9T13859   0.832   1.961   7.223 -0.4511 -0.1058  0.9950
  129OSM   C10S13860   0.721   2.089   7.367 -0.4297  0.2763  0.1113
  129OSM   H10S13861   0.629   2.150   7.353 -1.4002 -1.1944 -0.0507
  129OSM   H10T13862   0.798   2.165   7.388  0.0407  0.0572 -0.7974
  129OSM   C11S13863   0.709   1.994   7.489  0.2295 -0.7927  0.0125
  129OSM   H11S13864   0.809   1.945   7.492 -0.5489 -2.3816  0.9154
  129OSM   H11T13865   0.618   1.930   7.474  0.3495 -1.5730  2.4976
  129OSM   C12S13866   0.688   2.081   7.613  0.2058 -0.3639  0.2298
  129OSM   H12S13867   0.609   2.154   7.584 -0.4512 -1.6699 -1.3770
  129OSM   H12T13868   0.788   2.120   7.640 -0.1101 -1.0811  2.5299
  129OSM   C13S13869   0.653   1.978   7.727  0.0121  0.3359 -0.0349
  129OSM   H13S13870   0.734   1.906   7.752 -0.0815 -0.1401 -1.0814
  129OSM   H13T13871   0.564   1.921   7.693  0.4553 -0.0786 -0.5082
  129OSM   C14S13872   0.607   2.057   7.853 -0.4897 -0.3448  0.2264
  129OSM   H14S13873   0.540   2.140   7.822 -0.3257 -0.3046 -0.0254
  129OSM   H14T13874   0.705   2.106   7.873  0.8383 -1.3390 -3.4108
  129OSM   C15S13875   0.540   1.977   7.961  0.0855 -0.1564  0.6638
  129OSM   H15S13876   0.618   1.933   8.025  0.3033  0.1185  0.5885
  129OSM   H15T13877   0.478   1.896   7.918  2.0362 -1.1145 -0.3992
  129OSM   C16S13878   0.452   2.074   8.043  0.1198  0.1091  1.1097
  129OSM   H16S13879   0.380   2.113   7.968  1.4144  0.3288 -0.0260
  129OSM   H16T13880   0.514   2.158   8.080  1.0822 -0.3581  0.5742
  129OSM   C17S13881   0.373   2.005   8.153  0.0270  0.0073  0.0394
  129OSM   H17S13882   0.447   1.964   8.226  1.1466 -0.3923 -1.2955
  129OSM   H17T13883   0.329   1.917   8.102 -1.1432 -0.7282  2.2337
  129OSM   C18S13884   0.265   2.099   8.220 -0.7208 -0.3006  0.4566
  129OSM   H18S13885   0.203   2.034   8.286 -0.4879 -1.3204 -0.3082
  129OSM   H18T13886   0.211   2.163   8.147 -0.0029  0.0466  0.2253
  129OSM   H18U13887   0.319   2.173   8.281  1.6124 -1.1032 -0.5659
  129OSM    C1F13888   0.470   2.349   6.671 -0.1367 -0.8535 -0.3884
  129OSM     OF13889   0.353   2.361   6.641 -0.1289  0.7909  0.0052
  129OSM    C2F13890   0.565   2.465   6.720 -0.3933  0.8321 -0.0377
  129OSM    H2F13891   0.565   2.541   6.639  0.7992 -0.5647 -1.3864
  129OSM    H2G13892   0.664   2.416   6.733 -0.3196  0.9686 -0.0840
  129OSM    C3F13893   0.503   2.535   6.845 -1.0933 -0.3801  0.4758
  129OSM    H3F13894   0.398   2.573   6.841 -0.9506  0.2814  2.5115
  129OSM    H3G13895   0.563   2.625   6.869 -0.4593 -0.3875 -1.0355
  129OSM    C4F13896   0.506   2.438   6.966 -0.3399 -0.8889  0.3692
  129OSM    H4F13897   0.613   2.414   6.984 -0.2118  0.0366  0.8921
  129OSM    H4G13898   0.462   2.341   6.934  0.2475 -0.3959 -2.0060
  129OSM    C5F13899   0.439   2.498   7.089  0.4178 -0.6432  0.3739
  129OSM    H5F13900   0.329   2.486   7.077  0.1797  1.3228  0.3874
  129OSM    H5G13901   0.459   2.607   7.090  0.9835 -0.7554  2.5277
  129OSM    C6F13902   0.491   2.429   7.224  0.2708 -0.7969 -0.0701
  129OSM    H6F13903   0.597   2.457   7.241 -0.4547  3.2258 -1.4802
  129OSM    H6G13904   0.473   2.320   7.213  1.0759 -0.8471 -0.9779
  129OSM    C7F13905   0.409   2.469   7.346  0.0900 -0.3286  0.5168
  129OSM    H7F13906   0.306   2.429   7.333  1.0805 -2.9672  0.4339
  129OSM    H7G13907   0.414   2.580   7.347  1.1220 -0.3196 -1.7580
  129OSM    C8F13908   0.457   2.409   7.476  0.2428 -0.3173 -0.7320
  129OSM    H8F13909   0.468   2.299   7.465  1.1409 -0.3477  0.3688
  129OSM    H8G13910   0.373   2.420   7.548  0.3188  0.8848 -0.8105
  129OSM    C9F13911   0.577   2.485   7.523  0.6933 -0.7502  0.5053
  129OSM    H9F13912   0.635   2.530   7.442 -1.3937  1.2058  0.0783
  129OSM   C10F13913   0.619   2.492   7.647 -0.0874 -0.0814 -0.2060
  129OSM   H10F13914   0.713   2.546   7.667  0.0398 -0.4705  0.2464
  129OSM   C11F13915   0.555   2.418   7.761 -0.2178  0.3774 -0.7869
  129OSM   H11F13916   0.634   2.374   7.825  1.0871 -0.1141 -2.6890
  129OSM   H11G13917   0.483   2.340   7.727  2.6403 -1.7809 -2.0303
  129OSM   C12F13918   0.478   2.523   7.848  0.0045 -0.6623  0.1642
  129OSM   H12F13919   0.397   2.574   7.792  2.1945  3.2687  0.4627
  129OSM   H12G13920   0.555   2.592   7.888 -0.9115  0.8611 -0.6391
  129OSM   C13F13921   0.412   2.455   7.968 -0.5042 -0.8100 -0.1779
  129OSM   H13F13922   0.493   2.395   8.014 -0.3650 -1.7420 -1.5920
  129OSM   H13G13923   0.326   2.392   7.937 -0.8026 -1.2467  1.4765
  129OSM   C14F13924   0.358   2.568   8.063 -0.3472 -0.6806  0.1692
  129OSM   H14F13925   0.287   2.629   8.003  0.0029 -1.1673 -0.7580
  129OSM   H14G13926   0.440   2.638   8.089  0.2366 -0.6108 -1.7880
  129OSM   C15F13927   0.307   2.512   8.197  0.3747  0.9538  0.7031
  129OSM   H15F13928   0.394   2.466   8.247 -1.5885 -1.6640  1.8178
  129OSM   H15G13929   0.226   2.437   8.186  0.1951  1.1386  0.7629
  129OSM   C16F13930   0.251   2.619   8.279 -0.0622  0.2560  0.5028
  129OSM   H16F13931   0.167   2.662   8.222 -0.2591  0.3290  0.8446
  129OSM   H16G13932   0.330   2.697   8.282  0.0344  0.1579  0.5204
  129OSM   C17F13933   0.206   2.573   8.416  0.0367 -0.3649  0.6875
  129OSM   H17F13934   0.209   2.663   8.480  1.6277 -0.9341  1.4325
  129OSM   H17G13935   0.285   2.506   8.456 -0.3241 -1.7964 -0.9215
  129OSM   C18F13936   0.060   2.517   8.407 -0.1850  0.3974 -0.3165
  129OSM   H18F13937   0.069   2.407   8.419  2.4842  0.5909 -0.1584
  129OSM   H18G13938  -0.003   2.552   8.323  0.6674  1.9108 -0.3382
  129OSM   H18H13939   0.006   2.559   8.495  0.8603  0.7049  0.1846
  130OSM      N13940   2.573   4.230   6.426 -0.0087  0.2966  0.4374
  130OSM    C1513941   2.592   4.372   6.370 -0.5278  0.2565 -0.0484
  130OSM   H15A13942   2.501   4.426   6.349  0.2853  0.8252 -2.2206
  130OSM   H15B13943   2.648   4.353   6.280  1.7569  0.2149  1.3212
  130OSM   H15C13944   2.653   4.443   6.425 -0.0870 -1.2190  1.4153
  130OSM    C1413945   2.516   4.232   6.566  0.4226  0.9494  0.1473
  130OSM   H14A13946   2.599   4.267   6.625  0.0901  0.2980  1.0077
  130OSM   H14B13947   2.502   4.130   6.599  0.8104  0.4621 -1.1669
  130OSM   H14C13948   2.436   4.303   6.580  1.4771  2.2950 -0.5390
  130OSM    C1313949   2.477   4.159   6.335 -0.3037 -0.1729  0.0683
  130OSM   H13A13950   2.384   4.213   6.345 -0.1057  0.6053 -1.9945
  130OSM   H13B13951   2.475   4.051   6.339 -1.5257 -0.1285  0.5496
  130OSM   H13C13952   2.509   4.171   6.232 -1.5541 -1.2075 -0.4433
  130OSM    C1213953   2.703   4.167   6.428 -0.1914  0.2534 -0.6817
  130OSM   H12A13954   2.684   4.074   6.479  0.0313  0.4599 -0.2214
  130OSM   H12B13955   2.772   4.218   6.494 -0.1910 -0.5850 -0.0262
  130OSM    C1113956   2.783   4.142   6.301  0.0592 -0.1761 -0.0446
  130OSM   H11A13957   2.724   4.074   6.236  0.9656 -0.2489 -0.7992
  130OSM   H11B13958   2.871   4.085   6.337 -1.0892 -0.7471  1.9698
  130OSM      P13959   2.961   4.325   6.252 -0.0145  0.1424 -0.3926
  130OSM    O1313960   3.052   4.241   6.176  0.5221 -0.0978 -0.3348
  130OSM    O1413961   2.963   4.466   6.217  0.1333  0.0041 -0.0737
  130OSM    O1113962   2.986   4.315   6.407  0.1034  0.5790  0.8755
  130OSM    O1213963   2.815   4.271   6.237 -0.3129  0.2221 -0.2515
  130OSM    C1S13964   2.952   4.418   6.500  0.1132 -0.7739  1.1192
  130OSM    H1S13965   2.841   4.425   6.494  0.3541  2.4836 -1.1977
  130OSM    H1T13966   3.001   4.514   6.473 -1.5900 -0.4861 -1.1280
  130OSM     NF13967   2.918   4.471   6.738  0.2859 -0.5140 -0.0588
  130OSM    HNF13968   2.971   4.535   6.793  1.6322 -2.2491  0.7217
  130OSM    C2S13969   2.993   4.387   6.647 -0.3163 -0.0889 -0.2158
  130OSM    H2S13970   2.960   4.283   6.671 -0.7301 -0.3474 -1.8479
  130OSM    C3S13971   3.150   4.404   6.657 -0.1508  0.0098  0.7243
  130OSM    H3S13972   3.173   4.512   6.644 -2.2880  0.3764 -0.1671
  130OSM     O313973   3.223   4.345   6.546 -0.3398  0.1604  0.0975
  130OSM    HO313974   3.149   4.325   6.488 -0.3247  0.8767 -0.1749
  130OSM    C4S13975   3.215   4.350   6.784 -0.3618  0.2509 -0.2076
  130OSM    H4S13976   3.191   4.246   6.811 -2.1543  1.1077  1.6725
  130OSM    C5S13977   3.301   4.418   6.864  0.6718  0.5491 -0.8774
  130OSM    H5S13978   3.329   4.520   6.832 -0.5004  0.5445 -1.9675
  130OSM    C6S13979   3.364   4.360   6.989  0.3591  0.0106 -0.1736
  130OSM    H6S13980   3.469   4.392   7.006 -0.5455  1.7916  2.3757
  130OSM    H6T13981   3.356   4.249   6.981  0.7469  0.1168 -2.3201
  130OSM    C7S13982   3.301   4.412   7.117 -0.6915 -0.0482 -0.8031
  130OSM    H7S13983   3.191   4.403   7.134 -0.7580  1.8907 -0.0413
  130OSM    H7T13984   3.319   4.522   7.118  0.8262 -0.2962  0.1394
  130OSM    C8S13985   3.368   4.356   7.241 -0.6584  0.7251 -0.3905
  130OSM    H8S13986   3.462   4.415   7.253  0.5521 -1.2147 -0.0405
  130OSM    H8T13987   3.392   4.249   7.222 -1.8788  0.3872 -0.0770
  130OSM    C9S13988   3.295   4.361   7.379 -0.0942 -0.0104 -0.5346
  130OSM    H9S13989   3.189   4.327   7.373  0.7665 -3.4297  2.0762
  130OSM    H9T13990   3.294   4.468   7.409 -3.0132  0.0921 -0.7873
  130OSM   C10S13991   3.375   4.270   7.474 -0.3895 -0.0316  0.1538
  130OSM   H10S13992   3.482   4.272   7.443  0.3868 -1.9201  2.5454
  130OSM   H10T13993   3.336   4.166   7.466 -1.9957  0.5798 -0.2612
  130OSM   C11S13994   3.375   4.317   7.620 -0.3763  0.0670 -0.4744
  130OSM   H11S13995   3.274   4.349   7.655  0.0029  0.3378  0.3905
  130OSM   H11T13996   3.447   4.401   7.633  0.0051 -0.3773  0.2567
  130OSM   C12S13997   3.402   4.200   7.719  0.1013 -0.4983 -0.0978
  130OSM   H12S13998   3.503   4.157   7.704  1.0896  1.8051 -0.2624
  130OSM   H12T13999   3.331   4.120   7.688  0.4234 -0.8431  0.0499
  130OSM   C13S14000   3.381   4.243   7.869  0.1614 -0.1603 -0.2331
  130OSM   H13S14001   3.355   4.148   7.919  3.5547  0.7939  3.5452
  130OSM   H13T14002   3.295   4.314   7.874 -0.0470 -0.5284  1.6419
  130OSM   C14S14003   3.513   4.301   7.920 -0.3145 -0.0023 -0.6525
  130OSM   H14S14004   3.515   4.403   7.876  0.3559 -0.0210 -0.6706
  130OSM   H14T14005   3.596   4.239   7.880  2.0663  3.5838 -1.4484
  130OSM   C15S14006   3.515   4.310   8.072  0.0487  0.0298  0.6028
  130OSM   H15S14007   3.539   4.210   8.115  0.4770 -0.1997 -0.1528
  130OSM   H15T14008   3.418   4.345   8.112 -0.8656  0.2991 -1.8009
  130OSM   C16S14009   3.632   4.393   8.133  0.2812 -0.0838  0.2267
  130OSM   H16S14010   3.642   4.487   8.075 -0.4021 -0.3590 -0.3381
  130OSM   H16T14011   3.720   4.325   8.122  0.8878  0.8906 -1.0906
  130OSM   C17S14012   3.603   4.431   8.276 -0.5465 -0.2507 -0.2676
  130OSM   H17S14013   3.558   4.346   8.333 -0.4478 -0.1891 -0.0980
  130OSM   H17T14014   3.528   4.512   8.284  1.9131  2.1831 -1.3065
  130OSM   C18S14015   3.729   4.487   8.344 -0.9510 -0.2455 -0.3585
  130OSM   H18S14016   3.706   4.535   8.442 -1.0157 -1.5733  0.2871
  130OSM   H18T14017   3.781   4.561   8.279 -0.5410  0.5200  0.8185
  130OSM   H18U14018   3.794   4.400   8.369  1.3542  1.4650 -0.2487
  130OSM    C1F14019   2.788   4.454   6.763 -0.5026 -0.1263  0.3707
  130OSM     OF14020   2.729   4.352   6.732  0.1378  0.0172  0.4969
  130OSM    C2F14021   2.719   4.561   6.845 -0.3874 -0.2919  1.1953
  130OSM    H2F14022   2.682   4.637   6.773 -3.1657 -1.6691  1.1229
  130OSM    H2G14023   2.795   4.612   6.908  0.0239  1.6316 -0.8005
  130OSM    C3F14024   2.600   4.503   6.927  0.0605 -0.2326 -0.1527
  130OSM    H3F14025   2.522   4.447   6.870  1.2226 -1.6388 -0.3993
  130OSM    H3G14026   2.535   4.583   6.968  0.3556  0.7775 -1.6344
  130OSM    C4F14027   2.641   4.413   7.047  1.0453 -0.4700 -0.0731
  130OSM    H4F14028   2.707   4.331   7.011 -0.7613 -1.2692 -1.6486
  130OSM    H4G14029   2.555   4.360   7.093  1.6564 -0.8565  0.6379
  130OSM    C5F14030   2.725   4.483   7.154  0.1420 -0.5354 -0.4712
  130OSM    H5F14031   2.825   4.515   7.116 -0.1964 -0.7004 -1.5338
  130OSM    H5G14032   2.742   4.408   7.234 -0.6072  0.5667  0.7365
  130OSM    C6F14033   2.656   4.611   7.209  1.1456  0.3121  0.1227
  130OSM    H6F14034   2.548   4.589   7.221  1.3539  0.0658  1.6358
  130OSM    H6G14035   2.659   4.686   7.127 -1.2748 -0.9550 -1.1692
  130OSM    C7F14036   2.689   4.672   7.346 -0.0976 -0.4107 -0.3974
  130OSM    H7F14037   2.599   4.731   7.373 -0.3236 -1.8650  2.2266
  130OSM    H7G14038   2.777   4.740   7.335 -1.1534  1.2921  1.2481
  130OSM    C8F14039   2.709   4.584   7.465 -0.1733  0.4838  0.5179
  130OSM    H8F14040   2.724   4.640   7.560 -0.4592  4.0654 -1.4724
  130OSM    H8G14041   2.798   4.522   7.440  0.7379  1.9502  0.0495
  130OSM    C9F14042   2.603   4.476   7.489 -0.0172 -0.2385  0.7519
  130OSM    H9F14043   2.547   4.443   7.400  0.6839 -1.5165  0.7661
  130OSM   C10F14044   2.587   4.404   7.604 -0.2587  0.2476 -0.2581
  130OSM   H10F14045   2.509   4.326   7.607  0.5205 -0.4897  1.2556
  130OSM   C11F14046   2.661   4.420   7.730 -0.4618  0.7211 -0.0757
  130OSM   H11F14047   2.737   4.499   7.716  0.7414 -0.5152 -0.7065
  130OSM   H11G14048   2.722   4.329   7.748 -0.4790  1.0074  1.4582
  130OSM   C12F14049   2.584   4.448   7.859 -0.3296  0.3983  0.1426
  130OSM   H12F14050   2.667   4.433   7.932 -1.2487 -0.5182  1.0214
  130OSM   H12G14051   2.508   4.368   7.871 -0.2323  0.4674  1.2973
  130OSM   C13F14052   2.515   4.578   7.861 -0.6937  0.5786  0.3875
  130OSM   H13F14053   2.434   4.561   7.788 -0.4132 -0.8675  0.3926
  130OSM   H13G14054   2.583   4.656   7.820 -0.0955  1.6204  3.2371
  130OSM   C14F14055   2.475   4.633   7.997  0.1427 -0.3189 -0.3163
  130OSM   H14F14056   2.381   4.591   8.040  0.6056  0.6837  1.7372
  130OSM   H14G14057   2.448   4.740   7.984 -0.2233 -0.3531  0.1520
  130OSM   C15F14058   2.598   4.640   8.096 -0.5043 -0.2962 -0.2212
  130OSM   H15F14059   2.685   4.682   8.040 -0.8950 -0.0586 -0.6511
  130OSM   H15G14060   2.623   4.538   8.131 -0.0530  0.0071  0.3607
  130OSM   C16F14061   2.565   4.727   8.218 -0.6599  0.4264 -0.0511
  130OSM   H16F14062   2.470   4.693   8.265  0.6212 -2.4240  0.5677
  130OSM   H16G14063   2.560   4.835   8.191 -0.5127  0.5006  0.2233
  130OSM   C17F14064   2.669   4.707   8.329  0.0701 -0.0998 -0.4759
  130OSM   H17F14065   2.671   4.799   8.392 -0.3811  0.3321 -1.0792
  130OSM   H17G14066   2.768   4.696   8.281  2.0256  0.4273  3.2107
  130OSM   C18F14067   2.644   4.585   8.413 -0.1591  0.1646  0.4065
  130OSM   H18F14068   2.614   4.495   8.356  0.4079 -0.5669  1.2469
  130OSM   H18G14069   2.557   4.605   8.479 -0.8487  1.2947 -0.8259
  130OSM   H18H14070   2.727   4.559   8.482 -0.6052 -2.2205  0.0680
  131OSM      N14071   0.349   0.018   6.080 -0.4051  0.2527  0.4113
  131OSM    C1514072   0.449   0.022   5.966 -0.1137  0.1728 -0.1962
  131OSM   H15A14073   0.455  -0.074   5.917  0.3333 -0.3603  0.9011
  131OSM   H15B14074   0.551   0.033   5.998 -0.3815 -0.9638  1.0984
  131OSM   H15C14075   0.426   0.097   5.891 -1.9081  2.3005  2.3823
  131OSM    C1414076   0.208  -0.005   6.036 -0.3638 -0.4858 -0.3524
  131OSM   H14A14077   0.158   0.077   5.987 -0.1961  0.2536  0.6907
  131OSM   H14B14078   0.143  -0.025   6.120 -0.0851 -1.2097 -0.3059
  131OSM   H14C14079   0.199  -0.087   5.966  0.8243 -0.9552  0.0359
  131OSM    C1314080   0.392  -0.089   6.178  0.5416  0.3695 -1.0748
  131OSM   H13A14081   0.390  -0.185   6.128 -0.2410 -0.6035  0.7352
  131OSM   H13B14082   0.324  -0.094   6.263  1.3999  0.5935 -0.3693
  131OSM   H13C14083   0.494  -0.078   6.210 -0.3561  0.7605  1.8421
  131OSM    C1214084   0.361   0.148   6.157 -0.0695 -0.2342  0.2168
  131OSM   H12A14085   0.464   0.174   6.175 -0.0234 -0.5557  0.4315
  131OSM   H12B14086   0.325   0.131   6.258 -2.3328 -0.6040 -0.6312
  131OSM    C1114087   0.298   0.270   6.086  0.6533  0.0039  0.2898
  131OSM   H11A14088   0.307   0.359   6.151 -1.2280 -0.0742  0.6899
  131OSM   H11B14089   0.189   0.246   6.090  1.1727 -2.5451  0.2374
  131OSM      P14090   0.461   0.388   5.927  0.2757  0.0792 -0.0976
  131OSM    O1314091   0.505   0.363   5.784  0.1560 -0.3661  0.1229
  131OSM    O1414092   0.416   0.525   5.959  0.0137 -0.3997 -0.1066
  131OSM    O1114093   0.567   0.356   6.022 -0.0810 -0.1111 -0.2622
  131OSM    O1214094   0.341   0.304   5.955  0.2269 -0.1978  0.0438
  131OSM    C1S14095   0.666   0.442   6.082 -0.1232  1.0870  0.1922
  131OSM    H1S14096   0.666   0.545   6.042 -0.4530  0.3854 -1.6721
  131OSM    H1T14097   0.767   0.399   6.061 -1.0247 -2.2733  2.2888
  131OSM     NF14098   0.717   0.553   6.300 -0.1614 -0.7179 -0.0686
  131OSM    HNF14099   0.814   0.543   6.323 -0.1449 -1.9122 -0.5960
  131OSM    C2S14100   0.649   0.436   6.238 -0.0647  0.7221  0.8206
  131OSM    H2S14101   0.541   0.446   6.261 -0.1513  0.2011  0.6515
  131OSM    C3S14102   0.706   0.299   6.292 -1.0351 -1.6853  0.3763
  131OSM    H3S14103   0.815   0.319   6.289 -1.8056  3.0814  0.4961
  131OSM     O314104   0.674   0.192   6.199 -0.5453 -0.0957  0.0389
  131OSM    HO314105   0.656   0.245   6.121  0.4165  0.8719  0.4616
  131OSM    C4S14106   0.655   0.251   6.419  0.2155 -0.5466 -0.6743
  131OSM    H4S14107   0.551   0.215   6.412 -0.4417  0.6767  1.9261
  131OSM    C5S14108   0.724   0.241   6.540 -0.1260  0.2076 -0.2580
  131OSM    H5S14109   0.825   0.283   6.557 -1.9224  2.8405  5.1228
  131OSM    C6S14110   0.665   0.204   6.670  0.7292  0.3756 -0.3084
  131OSM    H6S14111   0.683   0.098   6.699  2.0917 -0.1128 -2.7755
  131OSM    H6T14112   0.555   0.200   6.656  0.5076  2.6573  0.5151
  131OSM    C7S14113   0.703   0.276   6.797 -0.1069 -0.0711  0.1598
  131OSM    H7S14114   0.663   0.380   6.799 -1.7026 -0.6250 -1.2208
  131OSM    H7T14115   0.813   0.287   6.807  0.1594  0.0763 -2.5606
  131OSM    C8S14116   0.649   0.203   6.918 -0.1271  0.2714 -0.4216
  131OSM    H8S14117   0.711   0.116   6.949  3.0658  3.4309  2.3998
  131OSM    H8T14118   0.556   0.148   6.893  0.2590 -1.5184  1.8727
  131OSM    C9S14119   0.637   0.302   7.031  0.6487  0.6224 -0.9348
  131OSM    H9S14120   0.572   0.388   7.004 -2.3469 -1.8478 -1.8609
  131OSM    H9T14121   0.741   0.332   7.056  1.5174 -2.9462  0.0238
  131OSM   C10S14122   0.578   0.230   7.162  0.1915 -0.1345 -0.7135
  131OSM   H10S14123   0.620   0.129   7.180 -1.4332 -0.6558  0.1745
  131OSM   H10T14124   0.474   0.201   7.135 -0.0915  2.1671 -2.2508
  131OSM   C11S14125   0.587   0.310   7.296  0.3426 -0.3278 -0.6630
  131OSM   H11S14126   0.566   0.419   7.294  1.0687 -0.1545  0.7413
  131OSM   H11T14127   0.690   0.301   7.338  0.8965 -3.0612 -2.4802
  131OSM   C12S14128   0.495   0.241   7.406 -0.2153  0.0255  0.1033
  131OSM   H12S14129   0.552   0.152   7.440 -2.5623 -2.0174 -1.1675
  131OSM   H12T14130   0.401   0.204   7.360  0.5268 -0.7720 -0.8057
  131OSM   C13S14131   0.456   0.317   7.529  0.5812  0.1457 -0.0616
  131OSM   H13S14132   0.408   0.411   7.497 -0.4231  0.0193  1.0334
  131OSM   H13T14133   0.551   0.339   7.582 -0.2999 -0.8908  1.9975
  131OSM   C14S14134   0.352   0.250   7.624  0.2484 -0.2524  0.5116
  131OSM   H14S14135   0.249   0.257   7.584  0.3079  0.5812  0.4976
  131OSM   H14T14136   0.349   0.328   7.702 -1.9416 -0.1040  0.2921
  131OSM   C15S14137   0.390   0.112   7.661  0.1739 -0.1941  0.0509
  131OSM   H15S14138   0.497   0.116   7.692 -0.0445 -1.5853  0.9997
  131OSM   H15T14139   0.384   0.042   7.576 -0.6788  0.7337 -0.6668
  131OSM   C16S14140   0.307   0.065   7.784  1.3000  0.0251  0.3098
  131OSM   H16S14141   0.322  -0.045   7.778  0.0425 -0.0506 -2.1265
  131OSM   H16T14142   0.200   0.087   7.762  1.7732  0.8724 -1.2291
  131OSM   C17S14143   0.339   0.141   7.913 -0.1586  0.1784 -0.0932
  131OSM   H17S14144   0.329   0.250   7.896  1.8457  0.7284  1.9309
  131OSM   H17T14145   0.448   0.128   7.930 -0.0322  0.0179 -0.9862
  131OSM   C18S14146   0.255   0.099   8.034 -1.0709  0.8362 -0.6471
  131OSM   H18S14147   0.277   0.168   8.118 -2.0200  1.5549 -0.9865
  131OSM   H18T14148   0.271  -0.007   8.063 -1.0913  0.2165 -2.8278
  131OSM   H18U14149   0.146   0.098   8.011 -1.4959  1.8974  1.2348
  131OSM    C1F14150   0.674   0.677   6.279 -0.2505 -0.7400  0.7244
  131OSM     OF14151   0.576   0.707   6.211 -0.7807 -0.0626  0.3122
  131OSM    C2F14152   0.758   0.788   6.334  0.4506  0.7559  0.1756
  131OSM    H2F14153   0.776   0.861   6.252  0.8768 -1.2662 -1.6027
  131OSM    H2G14154   0.859   0.757   6.369  0.1741  0.0391  0.3439
  131OSM    C3F14155   0.680   0.869   6.440 -0.0696  0.1992 -0.4888
  131OSM    H3F14156   0.677   0.811   6.535  1.6340  0.9282  0.0301
  131OSM    H3G14157   0.577   0.887   6.402 -0.1265 -0.0858 -0.4675
  131OSM    C4F14158   0.738   1.008   6.458  0.1296  0.1114  0.3954
  131OSM    H4F14159   0.711   1.076   6.374 -2.5986 -2.3927 -0.8730
  131OSM    H4G14160   0.849   1.018   6.459 -0.1609  4.2959  2.3976
  131OSM    C5F14161   0.676   1.076   6.579 -0.1592 -0.0429 -0.3004
  131OSM    H5F14162   0.566   1.060   6.582 -0.1968  0.2451 -0.1079
  131OSM    H5G14163   0.691   1.184   6.561  0.2682 -0.4353 -2.4506
  131OSM    C6F14164   0.750   1.034   6.706  0.2420  0.0163  0.3836
  131OSM    H6F14165   0.857   1.063   6.695  0.0828  0.2531 -0.5284
  131OSM    H6G14166   0.750   0.924   6.724  0.3957 -0.3367 -1.7277
  131OSM    C7F14167   0.697   1.109   6.830 -0.2130  0.3538  0.3466
  131OSM    H7F14168   0.723   1.216   6.813 -0.6459  0.1670 -1.6744
  131OSM    H7G14169   0.762   1.080   6.915  0.6576 -1.2987 -0.8413
  131OSM    C8F14170   0.550   1.087   6.863 -0.3843 -0.1315  0.3122
  131OSM    H8F14171   0.487   1.081   6.771  1.9548  1.1197 -1.4269
  131OSM    H8G14172   0.513   1.180   6.911 -1.3957  0.1218 -0.9243
  131OSM    C9F14173   0.528   0.982   6.968  0.2518 -0.7646 -0.9181
  131OSM    H9F14174   0.542   0.879   6.934  3.5132 -0.0750 -1.7664
  131OSM   C10F14175   0.511   1.005   7.101 -0.7449  0.3368  0.3095
  131OSM   H10F14176   0.475   0.923   7.165 -4.1445  1.9809  0.6435
  131OSM   C11F14177   0.509   1.133   7.171 -0.1502  1.3841 -0.1221
  131OSM   H11F14178   0.406   1.133   7.214 -0.2343 -0.1536 -0.2861
  131OSM   H11G14179   0.501   1.217   7.100  1.9263  1.2713 -0.5071
  131OSM   C12F14180   0.615   1.151   7.271 -0.1477  0.0477 -0.9080
  131OSM   H12F14181   0.604   1.251   7.316 -0.7905  0.9530 -3.0020
  131OSM   H12G14182   0.716   1.131   7.228 -2.1105  0.0139 -5.9238
  131OSM   C13F14183   0.604   1.049   7.390  0.4072  0.3164  0.2096
  131OSM   H13F14184   0.701   1.052   7.443  0.1056 -0.1454  0.7901
  131OSM   H13G14185   0.589   0.945   7.353  1.4181 -0.3426  1.6164
  131OSM   C14F14186   0.491   1.089   7.485 -0.7436  0.0936 -0.1796
  131OSM   H14F14187   0.390   1.075   7.439 -1.2490  2.9590 -0.0409
  131OSM   H14G14188   0.503   1.198   7.506 -1.6383 -0.1219  1.5232
  131OSM   C15F14189   0.497   1.018   7.618  0.5826  0.4647 -0.0578
  131OSM   H15F14190   0.439   1.078   7.691 -0.0417  0.4722 -0.5607
  131OSM   H15G14191   0.606   1.024   7.642  0.2200 -1.7477  2.3975
  131OSM   C16F14192   0.449   0.876   7.619  0.5798 -0.1488 -0.1422
  131OSM   H16F14193   0.519   0.819   7.555  1.1026  0.4485 -0.1140
  131OSM   H16G14194   0.345   0.861   7.584  1.2339 -0.4853 -1.9965
  131OSM   C17F14195   0.467   0.805   7.751  0.6284 -0.0325 -0.3022
  131OSM   H17F14196   0.426   0.868   7.832 -0.9074 -1.1640 -0.1843
  131OSM   H17G14197   0.571   0.818   7.788  0.9718 -1.9250 -0.5752
  131OSM   C18F14198   0.422   0.665   7.737 -0.2636  0.3809  0.3233
  131OSM   H18F14199   0.313   0.652   7.722 -0.2279 -0.6447  0.8946
  131OSM   H18G14200   0.448   0.610   7.830  3.4869 -0.1558 -0.9621
  131OSM   H18H14201   0.470   0.622   7.647 -0.0434  0.4570  0.4066
  132OSM      N14202   3.024   1.255   5.982  0.0984  0.1537  0.1004
  132OSM    C1514203   3.092   1.364   5.909 -0.3484  0.0397  0.0773
  132OSM   H15A14204   3.198   1.349   5.897 -0.0061  3.0485 -1.2347
  132OSM   H15B14205   3.083   1.459   5.960  1.9223  0.1262  0.3768
  132OSM   H15C14206   3.032   1.384   5.822  0.7274  1.2835 -0.4036
  132OSM    C1414207   2.878   1.288   5.977 -0.1127 -0.4630  0.5386
  132OSM   H14A14208   2.861   1.393   6.000  1.0251  0.1544 -1.3540
  132OSM   H14B14209   2.824   1.230   6.050 -0.0344 -0.1163  0.8727
  132OSM   H14C14210   2.846   1.265   5.877  1.5146  0.2217 -0.1627
  132OSM    C1314211   3.042   1.126   5.907  0.1505 -0.3060 -0.5976
  132OSM   H13A14212   2.985   1.047   5.955 -0.2852 -0.4625 -1.3615
  132OSM   H13B14213   3.145   1.094   5.908  0.2301 -0.0460 -0.6312
  132OSM   H13C14214   3.003   1.129   5.807 -0.6554  2.9762 -0.2403
  132OSM    C1214215   3.072   1.251   6.124 -0.3859 -0.2291  0.0071
  132OSM   H12A14216   3.172   1.211   6.125 -0.5448 -0.6256  0.4632
  132OSM   H12B14217   3.004   1.186   6.177 -0.3548 -1.5363 -1.5116
  132OSM    C1114218   3.065   1.388   6.197  0.4350  0.1987  0.2546
  132OSM   H11A14219   3.126   1.472   6.158  1.1408 -0.5601 -0.2839
  132OSM   H11B14220   3.116   1.377   6.295  0.9910  0.6331  0.0188
  132OSM      P14221   2.872   1.572   6.226  0.2853 -0.2450  0.1539
  132OSM    O1314222   2.875   1.609   6.083 -0.2492 -0.0615 -0.0967
  132OSM    O1414223   2.735   1.586   6.288  0.4233 -0.2751 -0.2918
  132OSM    O1114224   2.978   1.662   6.308  0.2961 -0.7938  0.5862
  132OSM    O1214225   2.928   1.428   6.234 -0.0739 -0.0627 -0.3955
  132OSM    C1S14226   2.936   1.667   6.449 -0.0710  0.0476 -0.2696
  132OSM    H1S14227   2.944   1.567   6.498 -0.2357  0.6475  0.9803
  132OSM    H1T14228   2.840   1.719   6.465 -0.5972 -0.5927 -1.2792
  132OSM     NF14229   2.988   1.754   6.667  0.0668 -0.1518  0.5523
  132OSM    HNF14230   2.925   1.826   6.698 -0.4001 -0.6066  0.6613
  132OSM    C2S14231   3.031   1.761   6.530 -0.0003  0.3955 -0.2344
  132OSM    H2S14232   3.139   1.736   6.524  0.0964  0.3921  1.2394
  132OSM    C3S14233   3.029   1.898   6.464  0.2797  0.3626 -0.2903
  132OSM    H3S14234   2.925   1.935   6.451  0.6630  1.7770  0.5715
  132OSM     O314235   3.085   1.898   6.332 -0.1511 -0.0976 -0.5387
  132OSM    HO314236   3.077   1.807   6.303  1.0892 -0.1804 -0.6346
  132OSM    C4S14237   3.099   2.011   6.540 -0.2216  0.4945  1.2980
  132OSM    H4S14238   3.207   2.000   6.554  0.1604  1.6568 -0.5409
  132OSM    C5S14239   3.037   2.127   6.571  0.5218 -0.2591 -0.1439
  132OSM    H5S14240   2.929   2.134   6.557  0.6991  1.5231 -0.7407
  132OSM    C6S14241   3.108   2.232   6.652  0.2705 -0.1321 -0.6187
  132OSM    H6S14242   3.077   2.336   6.626  0.2132  0.0984  0.3421
  132OSM    H6T14243   3.216   2.211   6.639  0.9456  1.0533  2.5811
  132OSM    C7S14244   3.066   2.199   6.798  0.0653  0.3638 -0.3223
  132OSM    H7S14245   3.106   2.098   6.822 -1.1745 -0.2196 -0.6566
  132OSM    H7T14246   2.955   2.188   6.802  0.3359 -2.6486  0.0773
  132OSM    C8S14247   3.121   2.296   6.907 -0.2929 -0.2779 -0.0570
  132OSM    H8S14248   3.077   2.397   6.894  0.2384  0.0138  0.3633
  132OSM    H8T14249   3.228   2.311   6.880 -0.6806  0.9133 -0.9774
  132OSM    C9S14250   3.077   2.243   7.041  0.1783 -0.0064  0.3349
  132OSM    H9S14251   3.145   2.168   7.086 -1.4349 -0.4729  2.1006
  132OSM    H9T14252   2.975   2.197   7.040  0.0339  0.3368 -1.4349
  132OSM   C10S14253   3.073   2.351   7.149 -0.2241 -0.5980 -0.0779
  132OSM   H10S14254   3.022   2.308   7.238 -1.0656 -0.2846 -0.4167
  132OSM   H10T14255   3.001   2.427   7.115 -1.1018 -1.8832 -1.1524
  132OSM   C11S14256   3.208   2.413   7.188  0.2595  0.1799  0.0021
  132OSM   H11S14257   3.253   2.467   7.102 -1.8831  0.5864 -0.9000
  132OSM   H11T14258   3.286   2.338   7.215 -0.2100 -0.5009 -0.5366
  132OSM   C12S14259   3.184   2.522   7.294  0.8281  0.0742 -0.2241
  132OSM   H12S14260   3.139   2.609   7.242  1.9977  2.1045  2.0827
  132OSM   H12T14261   3.283   2.562   7.325  0.9216 -1.2253  1.2060
  132OSM   C13S14262   3.110   2.491   7.425  0.1304  0.5138 -0.0729
  132OSM   H13S14263   3.166   2.410   7.475 -2.1085 -2.2467 -1.8596
  132OSM   H13T14264   3.005   2.459   7.407  0.3060 -0.5983  0.8169
  132OSM   C14S14265   3.098   2.608   7.524 -1.0083  0.1660  0.4771
  132OSM   H14S14266   3.023   2.670   7.471 -0.3945 -0.5379 -1.2535
  132OSM   H14T14267   3.200   2.649   7.538 -0.4999 -1.4081  1.4743
  132OSM   C15S14268   3.050   2.558   7.658 -0.7191 -0.0063 -0.0345
  132OSM   H15S14269   3.145   2.523   7.703 -0.6360  0.4015  0.1089
  132OSM   H15T14270   2.975   2.478   7.638  1.1706 -1.7573 -0.3713
  132OSM   C16S14271   2.983   2.667   7.741  0.2387 -0.4083 -0.3069
  132OSM   H16S14272   2.881   2.702   7.715 -0.4732 -0.1281  2.6547
  132OSM   H16T14273   3.056   2.750   7.729 -0.0283  0.0967  1.4220
  132OSM   C17S14274   2.996   2.615   7.882 -0.2406  0.1387  0.1280
  132OSM   H17S14275   3.095   2.575   7.912 -0.9498 -2.6832 -1.1329
  132OSM   H17T14276   2.918   2.541   7.910 -0.8903  0.7282 -0.0751
  132OSM   C18S14277   2.982   2.731   7.977  0.7438  0.3040 -0.5688
  132OSM   H18S14278   2.876   2.765   7.980  1.1495  1.6172 -0.8938
  132OSM   H18T14279   3.045   2.817   7.946  0.5813  0.0711 -1.5397
  132OSM   H18U14280   3.011   2.696   8.079  0.8352  0.5967 -0.4949
  132OSM    C1F14281   3.005   1.642   6.739 -0.0340 -0.2493  0.0796
  132OSM     OF14282   3.090   1.563   6.707  0.3334 -0.1981 -0.3611
  132OSM    C2F14283   2.909   1.616   6.852  1.0475  0.4385 -0.7496
  132OSM    H2F14284   2.838   1.544   6.806 -0.6705  1.3371  0.4481
  132OSM    H2G14285   2.857   1.712   6.872  0.4528 -0.0929  0.3158
  132OSM    C3F14286   2.970   1.563   6.982 -0.1142 -0.1695  0.0742
  132OSM    H3F14287   3.057   1.625   7.013 -0.1705 -0.2161  0.3274
  132OSM    H3G14288   3.007   1.462   6.954  0.0891  0.2219 -1.1160
  132OSM    C4F14289   2.876   1.555   7.101 -0.3843 -0.2355  0.3852
  132OSM    H4F14290   2.784   1.496   7.081  0.0990 -1.1470  0.8174
  132OSM    H4G14291   2.843   1.660   7.117  0.9498  0.4128 -1.0811
  132OSM    C5F14292   2.947   1.496   7.230 -0.3666 -0.1639  0.3534
  132OSM    H5F14293   3.055   1.519   7.230  0.2721 -2.9316 -0.7030
  132OSM    H5G14294   2.950   1.386   7.217 -0.4244 -0.1074 -0.1512
  132OSM    C6F14295   2.865   1.523   7.356 -0.3212  0.5179 -0.4321
  132OSM    H6F14296   2.768   1.478   7.327  1.7666 -2.0464 -3.7183
  132OSM    H6G14297   2.845   1.632   7.366 -1.2780  0.2551  0.6622
  132OSM    C7F14298   2.910   1.443   7.479 -0.7002  0.1043  0.6009
  132OSM    H7F14299   3.012   1.480   7.505 -0.3416  1.7386 -2.9189
  132OSM    H7G14300   2.922   1.337   7.448 -1.7524 -0.0932  0.8732
  132OSM    C8F14301   2.821   1.444   7.601  0.6451 -0.0822 -0.5896
  132OSM    H8F14302   2.812   1.348   7.657  1.6240 -1.1558 -2.2188
  132OSM    H8G14303   2.716   1.435   7.565  1.1560 -1.0069 -1.9131
  132OSM    C9F14304   2.836   1.562   7.694  0.3670  0.4620  0.0348
  132OSM    H9F14305   2.884   1.650   7.649  0.7401  0.7427  0.9824
  132OSM   C10F14306   2.823   1.566   7.825 -0.5201  0.2294  0.0251
  132OSM   H10F14307   2.847   1.658   7.882 -0.3701 -0.0456  0.4105
  132OSM   C11F14308   2.785   1.453   7.919 -0.3642 -0.2606 -0.1479
  132OSM   H11F14309   2.880   1.410   7.958  2.1746  4.4940 -0.7173
  132OSM   H11G14310   2.721   1.379   7.867  0.8299 -0.7987 -0.8655
  132OSM   C12F14311   2.698   1.509   8.033  0.0482 -0.5266 -0.0481
  132OSM   H12F14312   2.610   1.444   8.051  0.0391 -0.5843 -0.3033
  132OSM   H12G14313   2.649   1.607   8.014  0.6420 -0.4121 -0.9916
  132OSM   C13F14314   2.773   1.512   8.170  0.2417 -0.0885  0.6255
  132OSM   H13F14315   2.846   1.595   8.165  1.3621 -1.0242  0.9902
  132OSM   H13G14316   2.834   1.420   8.182 -1.2045 -1.0806  0.6062
  132OSM   C14F14317   2.682   1.523   8.297  0.4241  0.0773  0.2683
  132OSM   H14F14318   2.728   1.516   8.398 -2.7006  0.2285  1.7686
  132OSM   H14G14319   2.604   1.446   8.284 -0.3182  0.7392  0.7343
  132OSM   C15F14320   2.607   1.655   8.291  0.1378  0.3727  0.1599
  132OSM   H15F14321   2.519   1.654   8.359 -0.4301  1.4045 -0.5390
  132OSM   H15G14322   2.566   1.677   8.190  0.9152 -0.8636 -0.4473
  132OSM   C16F14323   2.689   1.782   8.326 -0.3198  0.2030  0.0347
  132OSM   H16F14324   2.768   1.787   8.248 -1.6148  0.1341 -1.3035
  132OSM   H16G14325   2.718   1.781   8.433 -1.1171 -0.7423  0.2459
  132OSM   C17F14326   2.612   1.916   8.287  0.2124 -0.2543  0.1197
  132OSM   H17F14327   2.514   1.917   8.339  0.4324 -0.0599  0.5362
  132OSM   H17G14328   2.591   1.894   8.181  1.1345  0.3200 -0.1911
  132OSM   C18F14329   2.698   2.047   8.295 -0.0379  0.0173  0.0904
  132OSM   H18F14330   2.718   2.075   8.401 -0.1566  2.8128 -0.5879
  132OSM   H18G14331   2.657   2.132   8.236  0.5903 -0.8520 -1.6074
  132OSM   H18H14332   2.796   2.028   8.246 -0.9871 -4.8183 -0.2044
  133OSM      N14333   3.448   2.007   6.011  0.1674 -0.3864 -0.1222
  133OSM    C1514334   3.310   2.020   5.961 -0.1977 -0.0504 -0.4223
  133OSM   H15A14335   3.261   2.097   6.018 -0.6916  0.0363 -0.9563
  133OSM   H15B14336   3.252   1.929   5.971  0.0362 -0.0751  0.7128
  133OSM   H15C14337   3.314   2.059   5.860 -0.5887 -0.5308 -0.6301
  133OSM    C1414338   3.514   1.890   5.936  0.4973 -0.5024 -0.0891
  133OSM   H14A14339   3.528   1.919   5.833  1.1902 -0.1744  0.0938
  133OSM   H14B14340   3.455   1.800   5.944 -1.2984  0.5738 -0.8276
  133OSM   H14C14341   3.610   1.869   5.981 -0.4022 -0.6551  1.8212
  133OSM    C1314342   3.511   2.135   5.982 -0.0415 -0.3064  0.3398
  133OSM   H13A14343   3.511   2.160   5.876  2.7954 -0.0389  0.3516
  133OSM   H13B14344   3.611   2.126   6.023 -0.0889 -1.6980  0.1649
  133OSM   H13C14345   3.456   2.211   6.035  1.0399  0.8108 -0.1048
  133OSM    C1214346   3.439   1.979   6.158 -0.0973 -0.0021  0.0562
  133OSM   H12A14347   3.390   2.058   6.212 -0.5847 -1.5077  1.8544
  133OSM   H12B14348   3.542   1.978   6.190 -0.0255  0.5491 -0.1346
  133OSM    C1114349   3.384   1.845   6.198  0.3587  0.1128 -0.3029
  133OSM   H11A14350   3.286   1.826   6.149  0.7003 -0.9399 -0.5934
  133OSM   H11B14351   3.358   1.856   6.306  1.7888 -1.0550  0.1712
  133OSM      P14352   3.608   1.723   6.256 -0.0494 -0.6953  0.2483
  133OSM    O1314353   3.662   1.593   6.216 -0.2255  1.1102 -0.0670
  133OSM    O1414354   3.694   1.839   6.219  0.6388 -0.0542  0.1067
  133OSM    O1114355   3.566   1.741   6.412 -0.1376  0.0819  0.5051
  133OSM    O1214356   3.474   1.738   6.183 -0.6568  0.8599  0.3979
  133OSM    C1S14357   3.468   1.662   6.475 -0.3958 -0.4907  0.4794
  133OSM    H1S14358   3.491   1.555   6.460  0.4760 -0.2740  0.2138
  133OSM    H1T14359   3.371   1.684   6.425 -1.9010 -2.5492  2.4347
  133OSM     NF14360   3.380   1.583   6.695  0.6942 -0.0412 -0.8914
  133OSM    HNF14361   3.291   1.603   6.735  0.1974 -2.7809 -0.5437
  133OSM    C2S14362   3.452   1.686   6.631  0.3941 -0.4768 -0.0630
  133OSM    H2S14363   3.544   1.686   6.693  0.0336 -0.0621  0.4820
  133OSM    C3S14364   3.388   1.826   6.658 -0.4954 -0.6879 -0.2434
  133OSM    H3S14365   3.290   1.834   6.607 -0.7911  0.7391  0.5072
  133OSM     O314366   3.462   1.931   6.604  0.3908  0.1577 -0.4147
  133OSM    HO314367   3.538   1.886   6.565  0.9005 -0.3630  1.1207
  133OSM    C4S14368   3.360   1.849   6.804 -0.8037  0.2515 -0.7803
  133OSM    H4S14369   3.257   1.817   6.825 -0.9270  1.1124 -0.0409
  133OSM    C5S14370   3.429   1.898   6.907 -0.0490  0.0336  0.0334
  133OSM    H5S14371   3.523   1.949   6.882 -0.2074 -0.0212 -0.6903
  133OSM    C6S14372   3.374   1.926   7.043 -0.2916  0.0596 -0.5871
  133OSM    H6S14373   3.390   2.030   7.081 -1.8974  0.8370 -1.9654
  133OSM    H6T14374   3.428   1.865   7.118 -1.5005 -1.2841 -0.7988
  133OSM    C7S14375   3.222   1.898   7.067 -0.1597 -0.7870  0.6269
  133OSM    H7S14376   3.221   1.796   7.025 -2.0272 -0.5176 -0.0020
  133OSM    H7T14377   3.158   1.956   6.997  0.8001  1.2855  1.4242
  133OSM    C8S14378   3.173   1.907   7.207  0.1292  0.3110 -0.4326
  133OSM    H8S14379   3.222   1.987   7.266  0.3922 -2.4449  3.2780
  133OSM    H8T14380   3.198   1.814   7.262 -0.4285  0.5473  0.2355
  133OSM    C9S14381   3.021   1.926   7.234 -0.3860  0.4439  0.6735
  133OSM    H9S14382   2.972   1.848   7.172  1.6233 -0.3492  0.0505
  133OSM    H9T14383   2.999   2.029   7.197  0.6639  0.7764  0.9498
  133OSM   C10S14384   2.969   1.906   7.374  0.6412 -0.4342  0.1791
  133OSM   H10S14385   3.013   1.981   7.443  0.6287 -1.1711  0.9896
  133OSM   H10T14386   2.979   1.802   7.409  2.6167 -0.8544 -1.5470
  133OSM   C11S14387   2.817   1.942   7.391 -0.1628 -0.0878  0.4829
  133OSM   H11S14388   2.762   1.877   7.319  0.9846  0.5536 -1.0110
  133OSM   H11T14389   2.798   2.047   7.360  2.5891  0.1739 -0.4548
  133OSM   C12S14390   2.770   1.925   7.537 -0.8816 -0.0260 -0.0368
  133OSM   H12S14391   2.852   1.962   7.601 -0.0993 -1.6785 -0.0643
  133OSM   H12T14392   2.762   1.815   7.550 -1.4026 -0.0139 -0.2466
  133OSM   C13S14393   2.637   1.991   7.582  0.4000  0.4547  0.0210
  133OSM   H13S14394   2.561   1.950   7.512  0.6374 -1.1302  0.6606
  133OSM   H13T14395   2.644   2.101   7.574 -0.5829  0.3514 -2.4380
  133OSM   C14S14396   2.605   1.965   7.729  0.1521 -0.2403  0.1145
  133OSM   H14S14397   2.696   1.983   7.789 -0.0063 -0.8342  0.5317
  133OSM   H14T14398   2.588   1.855   7.731 -0.9694 -0.1602 -2.6900
  133OSM   C15S14399   2.507   2.059   7.784  0.8361 -0.3878 -0.5700
  133OSM   H15S14400   2.409   2.060   7.730  1.9731 -1.9748 -2.7286
  133OSM   H15T14401   2.543   2.164   7.780 -0.5012  0.2298  2.0021
  133OSM   C16S14402   2.479   2.027   7.937  0.2753 -0.5508  0.3360
  133OSM   H16S14403   2.570   2.037   8.000 -0.8765  1.7630  1.6992
  133OSM   H16T14404   2.435   1.925   7.949  0.9583 -0.9923 -0.8775
  133OSM   C17S14405   2.381   2.126   7.995 -0.0789  0.1770 -0.7628
  133OSM   H17S14406   2.294   2.116   7.926 -0.5568 -1.1346  0.0120
  133OSM   H17T14407   2.414   2.231   7.979  1.0532 -0.1375 -0.5541
  133OSM   C18S14408   2.334   2.106   8.133  0.1857 -0.2651 -0.2690
  133OSM   H18S14409   2.416   2.076   8.202  1.0884 -2.1655 -2.0922
  133OSM   H18T14410   2.267   2.017   8.135 -2.0061  1.3736  0.3291
  133OSM   H18U14411   2.279   2.192   8.177  2.1542  0.1527  1.4827
  133OSM    C1F14412   3.420   1.457   6.724  0.6255  0.0691  0.6006
  133OSM     OF14413   3.511   1.409   6.655  0.2996  0.1392  0.0731
  133OSM    C2F14414   3.339   1.377   6.821  0.8177 -0.3624  0.2251
  133OSM    H2F14415   3.279   1.301   6.768  1.1747 -0.3209 -0.2487
  133OSM    H2G14416   3.269   1.448   6.871  0.6925  0.9767 -1.7857
  133OSM    C3F14417   3.427   1.301   6.926 -0.7461  0.1062  0.2016
  133OSM    H3F14418   3.468   1.370   7.002 -1.3629 -1.2232  1.7620
  133OSM    H3G14419   3.510   1.243   6.879 -0.6213  0.5114 -0.0886
  133OSM    C4F14420   3.350   1.200   7.011  0.1328 -1.2702 -0.0053
  133OSM    H4F14421   3.417   1.168   7.093 -3.3364 -0.3256  3.3758
  133OSM    H4G14422   3.318   1.112   6.952  1.0359 -1.9390  0.4849
  133OSM    C5F14423   3.220   1.262   7.073 -0.2586 -0.1950  0.8556
  133OSM    H5F14424   3.143   1.255   6.993  1.2839  0.5911 -0.7437
  133OSM    H5G14425   3.233   1.365   7.112 -2.2061 -0.3430  1.9500
  133OSM    C6F14426   3.169   1.175   7.196 -0.4079 -0.7062  0.7498
  133OSM    H6F14427   3.181   1.069   7.163  0.9368 -0.5799  0.8304
  133OSM    H6G14428   3.063   1.205   7.211  0.2797  1.4218  1.5104
  133OSM    C7F14429   3.231   1.205   7.329 -0.4655  0.5807 -0.0570
  133OSM    H7F14430   3.182   1.296   7.370  0.2416  0.4751  1.0380
  133OSM    H7G14431   3.339   1.223   7.309 -0.3855  3.3593  2.5170
  133OSM    C8F14432   3.211   1.108   7.444  0.2709  0.5299  0.1567
  133OSM    H8F14433   3.288   1.142   7.517 -0.4454  0.0871  1.1385
  133OSM    H8G14434   3.250   1.005   7.427  0.1134  0.6126 -0.6973
  133OSM    C9F14435   3.062   1.099   7.480 -0.4552  0.7775 -0.7209
  133OSM    H9F14436   2.999   1.078   7.393 -0.7256 -2.1269  0.0969
  133OSM   C10F14437   3.013   1.135   7.606 -0.3855 -0.3282 -0.2243
  133OSM   H10F14438   2.905   1.125   7.624 -0.0743  0.6627  2.5625
  133OSM   C11F14439   3.088   1.187   7.720 -0.6502 -0.7098  0.7037
  133OSM   H11F14440   3.060   1.289   7.754 -1.9415 -0.9266  0.3204
  133OSM   H11G14441   3.197   1.181   7.699 -1.0504 -2.3521 -1.0587
  133OSM   C12F14442   3.061   1.096   7.838  0.2332  0.0614 -0.1111
  133OSM   H12F14443   3.097   0.993   7.815  0.9391  0.6922 -1.8634
  133OSM   H12G14444   2.953   1.115   7.856  0.0270  0.2402 -1.5139
  133OSM   C13F14445   3.127   1.137   7.966 -0.0781 -0.4796  0.2245
  133OSM   H13F14446   3.116   1.247   7.975 -2.7645 -0.6647 -0.4442
  133OSM   H13G14447   3.238   1.124   7.963  0.0566 -1.0709  4.6165
  133OSM   C14F14448   3.067   1.082   8.093 -1.0269 -0.0046 -0.1199
  133OSM   H14F14449   3.135   1.111   8.176 -0.4895 -1.7958  0.0719
  133OSM   H14G14450   3.066   0.971   8.097  0.8779  0.0025  1.0564
  133OSM   C15F14451   2.922   1.120   8.135  0.9962 -0.0022  0.4773
  133OSM   H15F14452   2.867   1.029   8.105  1.9588 -0.6426  0.6352
  133OSM   H15G14453   2.889   1.211   8.079  0.0491 -1.2724 -1.0828
  133OSM   C16F14454   2.903   1.152   8.284  0.8314  0.3151 -0.1384
  133OSM   H16F14455   2.929   1.257   8.310 -1.6049  1.2416 -1.2524
  133OSM   H16G14456   2.966   1.086   8.347 -0.2572 -0.9403 -0.3450
  133OSM   C17F14457   2.755   1.118   8.332  0.7409 -0.1392 -0.5700
  133OSM   H17F14458   2.726   1.019   8.291  1.4556 -1.1590  1.3236
  133OSM   H17G14459   2.684   1.195   8.295  0.6480 -0.6141 -1.3900
  133OSM   C18F14460   2.746   1.102   8.486  0.0164  0.8942  0.4161
  133OSM   H18F14461   2.744   1.203   8.530 -0.0907  1.3391 -0.5965
  133OSM   H18G14462   2.834   1.042   8.515  0.3880  0.7273 -0.9909
  133OSM   H18H14463   2.651   1.048   8.509  1.3119 -1.2166  0.9089
  134OSM      N14464   3.433   5.290   6.313 -0.0964 -0.0343 -0.2660
  134OSM    C1514465   3.448   5.418   6.372 -0.5846 -0.6237 -0.6147
  134OSM   H15A14466   3.357   5.467   6.402 -1.6815 -2.1299 -1.4023
  134OSM   H15B14467   3.498   5.483   6.301 -1.3073  0.6575  0.0397
  134OSM   H15C14468   3.506   5.412   6.462 -1.0526  1.3047 -0.1512
  134OSM    C1414469   3.336   5.300   6.202 -0.6763  0.3590  0.4705
  134OSM   H14A14470   3.374   5.374   6.133 -0.7934  0.6024  0.6664
  134OSM   H14B14471   3.243   5.339   6.241 -1.2108 -0.3674 -0.0603
  134OSM   H14C14472   3.334   5.205   6.150  0.3121  1.5012 -1.7322
  134OSM    C1314473   3.561   5.247   6.245 -0.6444  0.1305 -0.5894
  134OSM   H13A14474   3.631   5.199   6.312 -2.7067 -1.5744  0.4037
  134OSM   H13B14475   3.612   5.331   6.199 -1.7467  1.7309  1.0369
  134OSM   H13C14476   3.545   5.166   6.175  1.5895 -1.0589  0.2083
  134OSM    C1214477   3.386   5.183   6.416  0.3256 -0.6277  0.0150
  134OSM   H12A14478   3.377   5.088   6.364 -2.4606 -2.1897  3.2061
  134OSM   H12B14479   3.296   5.221   6.460  1.8322  4.0545 -0.7079
  134OSM    C1114480   3.491   5.133   6.521 -0.2178  0.2939  0.4473
  134OSM   H11A14481   3.440   5.076   6.603 -0.2592  0.3530  0.4621
  134OSM   H11B14482   3.544   5.221   6.562 -0.2346  0.4269  0.1768
  134OSM      P14483   3.574   4.910   6.383  0.1587  0.0096 -0.1871
  134OSM    O1314484   3.464   4.934   6.291 -0.1625 -0.4880  0.7178
  134OSM    O1414485   3.703   4.867   6.321  0.2639 -0.2778  0.3311
  134OSM    O1114486   3.529   4.790   6.476 -0.1644  0.4936  0.0669
  134OSM    O1214487   3.594   5.048   6.465  0.7254 -0.0715 -0.3796
  134OSM    C1S14488   3.591   4.784   6.603  0.6219 -0.0571 -0.1061
  134OSM    H1S14489   3.547   4.855   6.676  1.2310  0.5389 -0.3190
  134OSM    H1T14490   3.700   4.806   6.598  0.3692  1.3956  0.5986
  134OSM     NF14491   3.650   4.629   6.789  0.6325  0.4003 -0.2186
  134OSM    HNF14492   3.722   4.560   6.783  1.3877  1.2407 -0.8653
  134OSM    C2S14493   3.579   4.639   6.662  0.2717  0.2966 -0.1226
  134OSM    H2S14494   3.476   4.606   6.686  0.8093  0.7687  3.1785
  134OSM    C3S14495   3.620   4.534   6.556  0.1519  0.0767  0.2840
  134OSM    H3S14496   3.726   4.542   6.526 -0.1524  1.2137 -0.5003
  134OSM     O314497   3.558   4.543   6.426  0.2194 -0.7278 -0.1344
  134OSM    HO314498   3.525   4.633   6.421  0.1648 -0.7959 -1.1670
  134OSM    C4S14499   3.604   4.389   6.607 -0.1086  0.3093  0.2451
  134OSM    H4S14500   3.506   4.359   6.646 -0.3012  2.1784  1.2591
  134OSM    C5S14501   3.698   4.295   6.591 -0.1999 -0.5381 -0.2484
  134OSM    H5S14502   3.796   4.325   6.550  1.1094 -0.9826  2.4981
  134OSM    C6S14503   3.689   4.153   6.633 -0.7230  0.2136  0.1324
  134OSM    H6S14504   3.720   4.091   6.546  3.3651  1.3230  0.6850
  134OSM    H6T14505   3.584   4.126   6.657 -0.6959 -0.2889 -0.2997
  134OSM    C7S14506   3.772   4.114   6.755 -0.3355  0.4249  0.4048
  134OSM    H7S14507   3.881   4.132   6.740 -0.0638 -1.5556 -0.2184
  134OSM    H7T14508   3.759   4.008   6.785 -2.3784  1.2238  2.4070
  134OSM    C8S14509   3.747   4.200   6.884  0.6420  0.3382  0.3145
  134OSM    H8S14510   3.640   4.224   6.901  0.2137 -0.6181 -0.9578
  134OSM    H8T14511   3.808   4.289   6.859 -0.1751 -0.0059 -3.0846
  134OSM    C9S14512   3.806   4.123   7.005 -0.5933  0.1661 -0.1599
  134OSM    H9S14513   3.917   4.126   6.995 -0.5859  0.0542 -0.1117
  134OSM    H9T14514   3.788   4.014   6.993  1.5600 -0.3197  0.7046
  134OSM   C10S14515   3.764   4.191   7.138  0.0003  0.2174  0.8699
  134OSM   H10S14516   3.655   4.187   7.156  0.0020 -2.6556  0.4766
  134OSM   H10T14517   3.808   4.293   7.140  1.1450 -0.2720  1.7383
  134OSM   C11S14518   3.840   4.126   7.255  0.6531  0.0729  0.8584
  134OSM   H11S14519   3.949   4.127   7.234  0.4555  1.5452 -0.2120
  134OSM   H11T14520   3.801   4.023   7.270  2.9807 -0.6038  2.6030
  134OSM   C12S14521   3.823   4.191   7.395 -0.1933 -0.5452  0.6423
  134OSM   H12S14522   3.718   4.179   7.429 -0.6039  0.0363 -0.3803
  134OSM   H12T14523   3.847   4.299   7.396  0.4469 -0.6808  0.0405
  134OSM   C13S14524   3.909   4.120   7.500  0.2110 -0.4594  1.2034
  134OSM   H13S14525   4.018   4.135   7.488  0.1480  0.0638  1.2878
  134OSM   H13T14526   3.903   4.009   7.505 -2.7161 -0.4187 -0.3351
  134OSM   C14S14527   3.872   4.162   7.650 -0.0256  0.1729 -0.2194
  134OSM   H14S14528   3.767   4.131   7.669  0.4593 -0.9590  0.6981
  134OSM   H14T14529   3.874   4.273   7.644 -2.0374  0.2060 -0.5967
  134OSM   C15S14530   3.979   4.104   7.742  0.1574  0.1378 -0.3478
  134OSM   H15S14531   4.076   4.150   7.714  1.3228 -1.2972  1.1770
  134OSM   H15T14532   3.976   3.993   7.751 -0.0434  0.3192  2.4083
  134OSM   C16S14533   3.944   4.146   7.884  0.7235  0.1222  0.2676
  134OSM   H16S14534   3.837   4.125   7.906  1.0862 -1.5958  0.4581
  134OSM   H16T14535   3.972   4.252   7.899  3.2036 -0.7171  1.8273
  134OSM   C17S14536   4.032   4.067   7.987  0.9246  0.1462  0.3189
  134OSM   H17S14537   4.133   4.091   7.945  1.4048  0.1898  1.4861
  134OSM   H17T14538   4.024   3.957   7.986 -1.3752  0.3002 -0.3681
  134OSM   C18S14539   4.023   4.115   8.129 -0.1321  0.3315 -0.5091
  134OSM   H18S14540   4.021   4.226   8.135 -1.3578  0.3177 -0.5924
  134OSM   H18T14541   4.117   4.096   8.185  0.5164  1.5955 -1.1518
  134OSM   H18U14542   3.935   4.078   8.186  1.3726  0.4704  1.9600
  134OSM    C1F14543   3.607   4.690   6.900  0.2118 -0.4841 -0.3977
  134OSM     OF14544   3.507   4.754   6.893  0.0634 -0.2067  0.5245
  134OSM    C2F14545   3.693   4.681   7.017  0.0634  0.2473  0.3930
  134OSM    H2F14546   3.779   4.750   7.008 -0.8487  1.3798  0.2449
  134OSM    H2G14547   3.735   4.579   7.003 -1.4110 -0.3813  0.3797
  134OSM    C3F14548   3.610   4.694   7.148  0.1024  0.0268 -0.3342
  134OSM    H3F14549   3.522   4.627   7.140  0.8868 -1.2063  1.2455
  134OSM    H3G14550   3.581   4.801   7.159  1.2025  0.2624  0.3648
  134OSM    C4F14551   3.693   4.667   7.273 -0.2489 -0.8061  0.4222
  134OSM    H4F14552   3.787   4.725   7.257  0.4535 -1.3966  2.2806
  134OSM    H4G14553   3.715   4.558   7.271  1.2895 -0.4870 -1.5425
  134OSM    C5F14554   3.604   4.719   7.390 -0.2231  0.4002  0.6105
  134OSM    H5F14555   3.501   4.678   7.383 -1.1511  2.5820  1.1729
  134OSM    H5G14556   3.601   4.830   7.389  0.4074  0.6162  6.3661
  134OSM    C6F14557   3.664   4.674   7.522  0.0387  0.2175  0.0629
  134OSM    H6F14558   3.767   4.714   7.528 -0.4578  1.6870 -0.8553
  134OSM    H6G14559   3.675   4.563   7.518  1.0020  0.3775 -3.0839
  134OSM    C7F14560   3.566   4.718   7.629 -0.3881  0.7113 -0.6688
  134OSM    H7F14561   3.474   4.655   7.623 -0.8174  1.3304 -0.6937
  134OSM    H7G14562   3.531   4.822   7.610  0.1342  1.1245  0.5706
  134OSM    C8F14563   3.608   4.700   7.778 -0.4573 -0.4364 -0.0634
  134OSM    H8F14564   3.693   4.767   7.805 -1.2633  0.3485  0.5526
  134OSM    H8G14565   3.657   4.603   7.800  0.6328  0.1896  0.2858
  134OSM    C9F14566   3.485   4.714   7.861  0.5695 -0.0606  0.1130
  134OSM    H9F14567   3.400   4.650   7.833 -0.0428  0.9116 -0.2598
  134OSM   C10F14568   3.478   4.796   7.969 -0.4695  0.0248  0.0573
  134OSM   H10F14569   3.388   4.788   8.031 -0.0619 -0.0122  0.6503
  134OSM   C11F14570   3.586   4.888   8.019  0.1699 -0.1195  0.3236
  134OSM   H11F14571   3.539   4.989   8.017 -2.0344 -1.0951  0.8037
  134OSM   H11G14572   3.677   4.897   7.956 -1.0379  1.3621 -1.2597
  134OSM   C12F14573   3.613   4.848   8.168 -0.0847  0.6471 -0.5696
  134OSM   H12F14574   3.650   4.743   8.171 -1.7069  0.0718 -0.3819
  134OSM   H12G14575   3.517   4.853   8.224  1.0829 -1.6193  1.7338
  134OSM   C13F14576   3.717   4.947   8.229 -0.6766  0.5290  0.4884
  134OSM   H13F14577   3.675   5.050   8.225 -0.0569  0.8231  1.3705
  134OSM   H13G14578   3.813   4.943   8.173 -1.6117 -0.3404 -1.1115
  134OSM   C14F14579   3.753   4.908   8.370 -0.4732  0.3304 -0.4057
  134OSM   H14F14580   3.827   4.825   8.367 -0.5524  0.2072  0.7744
  134OSM   H14G14581   3.660   4.888   8.429 -0.1864  0.3006  0.0361
  134OSM   C15F14582   3.808   5.035   8.431 -0.2196  0.5296 -0.8566
  134OSM   H15F14583   3.738   5.121   8.432 -2.6174 -1.3843 -1.2354
  134OSM   H15G14584   3.881   5.068   8.354  0.4982 -0.5415 -0.6399
  134OSM   C16F14585   3.869   4.999   8.570  0.0034 -0.6184  0.4729
  134OSM   H16F14586   3.937   4.912   8.563 -2.9000 -3.0704  1.1481
  134OSM   H16G14587   3.783   4.954   8.625 -0.8371 -0.3504 -0.6094
  134OSM   C17F14588   3.927   5.108   8.658 -0.1647 -0.5257 -0.0564
  134OSM   H17F14589   3.922   5.077   8.765  0.1006  1.0663  0.4342
  134OSM   H17G14590   3.867   5.201   8.651 -0.1878 -0.4615  0.8587
  134OSM   C18F14591   4.075   5.146   8.621 -0.0125 -0.1946 -0.0515
  134OSM   H18F14592   4.129   5.051   8.603  2.5699  1.2666 -0.2158
  134OSM   H18G14593   4.125   5.195   8.706 -0.0160  0.3775 -0.3759
  134OSM   H18H14594   4.075   5.206   8.527 -3.6508 -0.4695 -0.2996
  135OSM      N14595   3.272   4.607   6.146 -0.4117 -0.4034 -0.0540
  135OSM    C1514596   3.168   4.694   6.079 -0.1891 -0.4412 -0.2243
  135OSM   H15A14597   3.067   4.656   6.074 -0.9007  1.4643 -0.6661
  135OSM   H15B14598   3.199   4.734   5.984 -0.0251  0.8021  0.3370
  135OSM   H15C14599   3.157   4.784   6.138 -0.8872 -1.1004  0.6687
  135OSM    C1414600   3.254   4.476   6.078 -0.0993  0.2263 -0.1934
  135OSM   H14A14601   3.165   4.419   6.099  1.0582 -0.1250  4.0671
  135OSM   H14B14602   3.329   4.405   6.109 -0.5712 -0.5041 -0.6963
  135OSM   H14C14603   3.256   4.483   5.970 -0.8430 -0.2795 -0.2402
  135OSM    C1314604   3.406   4.661   6.119 -0.1862  0.0218 -0.0844
  135OSM   H13A14605   3.468   4.573   6.116  0.6006  0.6034 -1.8106
  135OSM   H13B14606   3.445   4.726   6.195  1.1613  0.0159 -0.7521
  135OSM   H13C14607   3.412   4.712   6.024 -0.7019  0.9278  0.3676
  135OSM    C1214608   3.241   4.577   6.293 -0.5324  0.3150  0.4443
  135OSM   H12A14609   3.312   4.513   6.343 -0.1892 -1.4929 -2.2780
  135OSM   H12B14610   3.141   4.536   6.294  0.9254 -3.4998  3.3264
  135OSM    C1114611   3.220   4.692   6.389 -0.5716  0.0784  0.3033
  135OSM   H11A14612   3.298   4.768   6.365  1.3989 -2.2902 -0.9532
  135OSM   H11B14613   3.245   4.656   6.491  1.5780  0.2780 -0.1125
  135OSM      P14614   3.022   4.849   6.469  0.2365 -0.5834 -0.1743
  135OSM    O1314615   3.100   4.967   6.426 -0.2840  0.5789  0.1548
  135OSM    O1414616   2.876   4.861   6.446  0.0766  0.2603 -0.3920
  135OSM    O1114617   3.052   4.824   6.623  0.0061 -0.2373 -0.1869
  135OSM    O1214618   3.090   4.739   6.382 -0.0800  0.0212 -0.0942
  135OSM    C1S14619   3.182   4.871   6.669 -0.0259 -0.3800 -0.5584
  135OSM    H1S14620   3.205   4.972   6.629  1.2067 -0.4746 -0.0890
  135OSM    H1T14621   3.266   4.808   6.631 -0.9724 -1.5205 -0.7977
  135OSM     NF14622   3.299   4.943   6.876 -0.0407  0.6293  0.6531
  135OSM    HNF14623   3.377   4.883   6.891 -0.2777  0.5068  1.3892
  135OSM    C2S14624   3.177   4.884   6.824  0.2555  0.5903 -0.7638
  135OSM    H2S14625   3.089   4.947   6.846 -1.2162 -1.5365 -0.4110
  135OSM    C3S14626   3.155   4.740   6.889  0.8260  0.4662  0.0930
  135OSM    H3S14627   3.233   4.675   6.844  0.0335  0.1027 -0.7772
  135OSM     O314628   3.032   4.681   6.847  0.0553  0.0016  0.2372
  135OSM    HO314629   3.008   4.730   6.767  0.6998  2.0903  1.2840
  135OSM    C4S14630   3.174   4.750   7.039  0.1289  0.7198  0.0859
  135OSM    H4S14631   3.280   4.767   7.061 -0.2910  1.6098  1.5386
  135OSM    C5S14632   3.090   4.750   7.144 -0.5161  0.4144 -0.3015
  135OSM    H5S14633   2.986   4.722   7.123  0.0353  0.4290 -3.3567
  135OSM    C6S14634   3.135   4.771   7.287  0.1849 -0.2397 -0.2639
  135OSM    H6S14635   3.084   4.863   7.323  0.5972 -0.8718  2.0129
  135OSM    H6T14636   3.242   4.796   7.301  0.3705 -1.6071  0.8673
  135OSM    C7S14637   3.086   4.661   7.387 -0.0719 -0.6665  0.0378
  135OSM    H7S14638   3.120   4.559   7.358  0.2824 -0.2386 -1.1095
  135OSM    H7T14639   2.977   4.674   7.374  0.5555  3.2121 -2.2312
  135OSM    C8S14640   3.121   4.702   7.528  0.8515 -1.1226  0.2186
  135OSM    H8S14641   3.088   4.806   7.550 -0.7353 -1.3399 -1.0818
  135OSM    H8T14642   3.231   4.712   7.546  0.5402 -1.1207  2.1821
  135OSM    C9S14643   3.057   4.621   7.639 -0.2247 -0.2147  0.3401
  135OSM    H9S14644   3.083   4.514   7.651  0.7797 -0.3001 -2.4179
  135OSM    H9T14645   2.947   4.625   7.626  0.1035  0.7760 -2.3222
  135OSM   C10S14646   3.089   4.684   7.779 -0.1528 -0.1279 -0.6175
  135OSM   H10S14647   3.027   4.775   7.787  1.7874  1.4488 -2.7119
  135OSM   H10T14648   3.196   4.714   7.785  0.0930 -1.0021 -0.4968
  135OSM   C11S14649   3.055   4.593   7.896  0.3800 -0.5004  0.2769
  135OSM   H11S14650   3.138   4.519   7.892 -0.1909 -1.2413  1.8295
  135OSM   H11T14651   2.958   4.541   7.878  0.1746  0.5388 -1.8778
  135OSM   C12S14652   3.063   4.669   8.030 -0.5294  0.5255  0.3935
  135OSM   H12S14653   2.997   4.758   8.035  3.4079  3.7026 -1.2321
  135OSM   H12T14654   3.165   4.713   8.041  0.5530 -1.9149  0.5858
  135OSM   C13S14655   3.010   4.588   8.153 -0.8843 -0.1192 -0.0444
  135OSM   H13S14656   2.915   4.537   8.125 -0.1956 -1.2963 -0.2987
  135OSM   H13T14657   2.999   4.652   8.243  1.2038 -2.2931  1.8368
  135OSM   C14S14658   3.112   4.478   8.195  0.1496  0.2077 -0.0044
  135OSM   H14S14659   3.203   4.517   8.247  0.7156  0.7213 -1.3637
  135OSM   H14T14660   3.135   4.416   8.106  1.9956 -2.9775  2.5353
  135OSM   C15S14661   3.048   4.383   8.301  0.1213  0.1833 -0.1880
  135OSM   H15S14662   3.093   4.281   8.308 -2.4814 -1.0379 -0.7509
  135OSM   H15T14663   2.947   4.358   8.263 -0.2840  0.1204  0.9274
  135OSM   C16S14664   3.050   4.447   8.440  0.0756  0.6138  0.2154
  135OSM   H16S14665   2.999   4.546   8.447  1.0731  1.0699  1.2080
  135OSM   H16T14666   3.153   4.470   8.474  0.2118  1.1878 -0.5774
  135OSM   C17S14667   2.990   4.354   8.548  0.8760 -0.4244 -0.7344
  135OSM   H17S14668   3.045   4.258   8.554  0.9440 -0.3258  0.1841
  135OSM   H17T14669   2.891   4.324   8.506  0.9551  0.8102 -1.8504
  135OSM   C18S14670   2.988   4.412   8.688 -0.1977 -0.8985  0.1536
  135OSM   H18S14671   2.954   4.518   8.688  0.9142 -0.5401 -0.1541
  135OSM   H18T14672   3.093   4.422   8.723 -0.5913  0.5886  0.9658
  135OSM   H18U14673   2.925   4.348   8.753 -2.8999  2.4504  1.0315
  135OSM    C1F14674   3.318   5.079   6.875  0.2121  0.6068  0.3277
  135OSM     OF14675   3.243   5.159   6.821 -0.1208 -0.7378  0.1790
  135OSM    C2F14676   3.442   5.129   6.944 -0.1554  0.0371  0.2036
  135OSM    H2F14677   3.479   5.217   6.886 -1.2367  0.7987  0.6467
  135OSM    H2G14678   3.518   5.048   6.946 -0.4613 -0.2947 -1.2163
  135OSM    C3F14679   3.425   5.179   7.088  0.1052  0.1520 -0.8881
  135OSM    H3F14680   3.330   5.237   7.092  0.3999  0.5250  1.6564
  135OSM    H3G14681   3.520   5.231   7.112  0.6617 -1.5438  0.7298
  135OSM    C4F14682   3.413   5.074   7.193  0.2696  0.1568  1.0182
  135OSM    H4F14683   3.484   4.989   7.184  1.2132  1.1284 -0.8921
  135OSM    H4G14684   3.316   5.019   7.193 -0.4157  1.3512 -0.5189
  135OSM    C5F14685   3.415   5.140   7.332 -0.1344  0.3030 -0.5268
  135OSM    H5F14686   3.365   5.238   7.341  2.4386  1.5471  0.9040
  135OSM    H5G14687   3.522   5.164   7.352  0.1180 -0.6867 -0.6174
  135OSM    C6F14688   3.368   5.045   7.444  0.1275 -0.1160 -0.0675
  135OSM    H6F14689   3.394   4.941   7.414  0.0210  0.0903 -0.8891
  135OSM    H6G14690   3.258   5.059   7.444 -0.1053 -1.8180  0.4774
  135OSM    C7F14691   3.417   5.091   7.577 -0.6893 -0.1802  0.0964
  135OSM    H7F14692   3.401   5.200   7.592 -0.2531 -0.2702  1.2582
  135OSM    H7G14693   3.526   5.072   7.586 -0.7173  0.3988  1.6987
  135OSM    C8F14694   3.338   5.030   7.692 -0.5036 -0.2982  0.9250
  135OSM    H8F14695   3.408   5.041   7.778  0.7385  2.1466 -0.3465
  135OSM    H8G14696   3.321   4.923   7.666  2.3439 -0.4196 -0.6854
  135OSM    C9F14697   3.208   5.098   7.722 -0.1781 -0.3319  0.6169
  135OSM    H9F14698   3.145   5.112   7.633 -1.0634 -0.3219  1.2394
  135OSM   C10F14699   3.162   5.122   7.842 -0.2995  0.5785  0.2258
  135OSM   H10F14700   3.061   5.162   7.860  0.5174  2.7728  0.0133
  135OSM   C11F14701   3.236   5.094   7.972 -0.5420  0.2996  0.7597
  135OSM   H11F14702   3.346   5.090   7.957 -0.9121  0.5979 -2.5080
  135OSM   H11G14703   3.199   4.992   7.995 -1.1332  0.0191 -1.2817
  135OSM   C12F14704   3.209   5.183   8.098  0.0755 -0.0551  0.1758
  135OSM   H12F14705   3.099   5.189   8.109 -0.1094 -1.2906 -0.8627
  135OSM   H12G14706   3.251   5.285   8.093  0.3019 -0.1619 -0.1249
  135OSM   C13F14707   3.267   5.116   8.224 -0.2752 -0.1725  0.5706
  135OSM   H13F14708   3.275   5.195   8.301 -1.0136  0.0540  0.4165
  135OSM   H13G14709   3.370   5.077   8.208 -0.8417 -2.9767  3.3431
  135OSM   C14F14710   3.198   4.990   8.275  0.5697  0.0522  0.0453
  135OSM   H14F14711   3.186   4.918   8.191  0.1789 -1.2863  1.2292
  135OSM   H14G14712   3.091   5.012   8.290  0.5456 -2.4559  4.3261
  135OSM   C15F14713   3.262   4.927   8.401 -0.0649 -0.2605  0.3756
  135OSM   H15F14714   3.255   4.984   8.496  3.3091 -0.1351  0.6315
  135OSM   H15G14715   3.373   4.928   8.401 -0.0628  0.0033  1.1944
  135OSM   C16F14716   3.214   4.787   8.425 -0.7635 -0.0961 -0.0438
  135OSM   H16F14717   3.231   4.702   8.356 -2.6761  0.0470 -0.7184
  135OSM   H16G14718   3.103   4.793   8.432 -0.8957 -0.0922 -1.9921
  135OSM   C17F14719   3.282   4.733   8.562 -0.3449  0.3481  0.8668
  135OSM   H17F14720   3.214   4.649   8.588  1.4996 -1.4454  0.0412
  135OSM   H17G14721   3.253   4.803   8.643 -1.3598 -0.2835  1.0606
  135OSM   C18F14722   3.422   4.691   8.563 -0.1049  0.3393 -0.0608
  135OSM   H18F14723   3.442   4.606   8.495  1.0648 -1.3850  2.3784
  135OSM   H18G14724   3.448   4.652   8.664 -1.8941 -3.2780 -0.9306
  135OSM   H18H14725   3.498   4.767   8.531  0.6123 -0.5642 -0.5303
  136OSM      N14726   1.140   6.515   5.806 -0.5499  0.6605 -0.0922
  136OSM    C1514727   1.195   6.546   5.672 -0.1098 -0.6217 -0.4620
  136OSM   H15A14728   1.206   6.651   5.650 -0.1552 -1.0949 -2.7861
  136OSM   H15B14729   1.124   6.503   5.602 -0.4698  0.5220 -0.8098
  136OSM   H15C14730   1.295   6.510   5.654 -0.5142 -1.2074 -1.5502
  136OSM    C1414731   1.005   6.592   5.824  0.1373 -0.3407  0.0863
  136OSM   H14A14732   1.028   6.695   5.805  0.9283 -1.0190 -3.0073
  136OSM   H14B14733   0.956   6.583   5.920 -1.7857  3.4671 -0.4875
  136OSM   H14C14734   0.934   6.562   5.749 -0.5230 -1.1875  1.0275
  136OSM    C1314735   1.106   6.371   5.822  0.8209 -0.3015 -0.0400
  136OSM   H13A14736   1.184   6.297   5.835  0.5610 -1.2727 -3.4496
  136OSM   H13B14737   1.037   6.333   5.747  1.3130 -1.2169 -0.0421
  136OSM   H13C14738   1.043   6.361   5.909 -0.0237  1.4411 -0.4290
  136OSM    C1214739   1.241   6.555   5.911 -0.2854  0.0287  0.0849
  136OSM   H12A14740   1.269   6.657   5.887  0.0634 -0.6271 -2.4352
  136OSM   H12B14741   1.332   6.496   5.915 -0.5709 -0.4080  0.1459
  136OSM    C1114742   1.208   6.576   6.062 -0.0936  0.0182 -0.3433
  136OSM   H11A14743   1.127   6.651   6.071  0.0188  0.0793  0.1449
  136OSM   H11B14744   1.301   6.614   6.111  0.8785 -2.2624 -0.3628
  136OSM      P14745   1.259   6.338   6.147 -0.4583 -0.2256  0.1339
  136OSM    O1314746   1.187   6.209   6.134  0.0446 -0.0358 -0.3284
  136OSM    O1414747   1.377   6.346   6.058  0.4224  0.0986  0.0947
  136OSM    O1114748   1.306   6.358   6.294  0.0590  0.3692  0.0481
  136OSM    O1214749   1.153   6.451   6.115 -0.5446 -0.5069  0.3985
  136OSM    C1S14750   1.229   6.302   6.398  0.1461 -0.0667 -0.0783
  136OSM    H1S14751   1.219   6.192   6.392  0.4599 -0.0173 -1.4341
  136OSM    H1T14752   1.123   6.336   6.401  0.2517  0.1940  1.7915
  136OSM     NF14753   1.197   6.306   6.639  0.2010  0.1314 -0.3001
  136OSM    HNF14754   1.161   6.382   6.693  1.1847  1.2631 -1.2044
  136OSM    C2S14755   1.295   6.329   6.536 -0.2200 -0.1909  0.7251
  136OSM    H2S14756   1.387   6.267   6.539 -0.1086 -0.3048 -2.7706
  136OSM    C3S14757   1.358   6.472   6.552  0.5785 -0.5844  0.4201
  136OSM    H3S14758   1.277   6.548   6.567 -1.1101 -2.3687  0.5269
  136OSM     O314759   1.414   6.530   6.432  0.0095  0.3430 -0.4307
  136OSM    HO314760   1.389   6.464   6.367 -2.1234  0.3354  0.3752
  136OSM    C4S14761   1.452   6.474   6.672  0.2157 -0.7128  0.5943
  136OSM    H4S14762   1.535   6.404   6.658  2.0449  1.6349 -0.8594
  136OSM    C5S14763   1.452   6.556   6.776 -0.0757 -0.3945  0.2062
  136OSM    H5S14764   1.380   6.638   6.781 -0.4008 -0.7195  0.9718
  136OSM    C6S14765   1.555   6.546   6.890 -0.4788 -0.7477 -0.1107
  136OSM    H6S14766   1.636   6.472   6.873  0.3496  0.0090  0.5062
  136OSM    H6T14767   1.501   6.524   6.984 -0.3372  2.2833  0.7556
  136OSM    C7S14768   1.640   6.674   6.907 -0.1815 -0.0977  0.7916
  136OSM    H7S14769   1.659   6.707   6.803 -0.6261  0.1761  0.7934
  136OSM    H7T14770   1.738   6.654   6.954  0.8411  2.0461 -0.3490
  136OSM    C8S14771   1.586   6.788   6.990 -0.5012 -0.1230 -0.4992
  136OSM    H8S14772   1.559   6.760   7.094 -0.2263  1.3999  0.0014
  136OSM    H8T14773   1.494   6.813   6.934 -2.1148 -1.4852  1.4799
  136OSM    C9S14774   1.680   6.903   7.004  0.2184 -0.3343  0.0889
  136OSM    H9S14775   1.714   6.943   6.905  0.7372 -0.4038  0.2407
  136OSM    H9T14776   1.775   6.867   7.048 -1.2682 -0.5511  3.2521
  136OSM   C10S14777   1.626   7.013   7.098 -0.2281  0.0128 -0.6159
  136OSM   H10S14778   1.624   6.955   7.193  0.9879  2.1888  0.7729
  136OSM   H10T14779   1.525   7.044   7.062 -0.6670 -0.3562  0.2826
  136OSM   C11S14780   1.721   7.130   7.082  1.7639 -0.7691 -0.6414
  136OSM   H11S14781   1.707   7.170   6.979  3.5330 -0.9354 -0.9607
  136OSM   H11T14782   1.822   7.084   7.084  1.8922 -0.4739 -0.1618
  136OSM   C12S14783   1.719   7.250   7.186 -0.0893 -0.1852 -0.7340
  136OSM   H12S14784   1.629   7.315   7.182  1.4872  2.1278  0.4701
  136OSM   H12T14785   1.804   7.319   7.167 -0.7382  0.8174 -0.0114
  136OSM   C13S14786   1.729   7.217   7.339  0.4064 -0.8851 -0.0265
  136OSM   H13S14787   1.807   7.140   7.354  2.2495  0.4471 -2.3048
  136OSM   H13T14788   1.627   7.185   7.369  0.1208  0.2250  0.2015
  136OSM   C14S14789   1.754   7.339   7.433  0.0000 -1.1353 -0.0449
  136OSM   H14S14790   1.658   7.395   7.435 -0.2981 -1.6780  2.1416
  136OSM   H14T14791   1.820   7.421   7.398 -1.9391 -1.4317 -4.6887
  136OSM   C15S14792   1.808   7.305   7.574 -0.7002 -0.0770  0.4366
  136OSM   H15S14793   1.916   7.282   7.563 -1.2412 -3.3141  1.3414
  136OSM   H15T14794   1.755   7.210   7.598 -1.3922  0.5879  1.6566
  136OSM   C16S14795   1.778   7.401   7.690 -0.0939 -0.5746  0.3910
  136OSM   H16S14796   1.833   7.495   7.668  0.2130 -0.4125  1.8163
  136OSM   H16T14797   1.808   7.357   7.788 -0.3878  0.4913  0.9685
  136OSM   C17S14798   1.631   7.454   7.705 -0.4234 -0.2580 -0.7187
  136OSM   H17S14799   1.573   7.360   7.711  0.3034 -0.5992  1.6451
  136OSM   H17T14800   1.595   7.509   7.615  0.1624 -0.4863 -1.0896
  136OSM   C18S14801   1.611   7.532   7.833 -0.0947 -0.1335  0.0943
  136OSM   H18S14802   1.501   7.539   7.842 -0.5124 -2.3100 -2.3703
  136OSM   H18T14803   1.659   7.632   7.827  0.4047 -0.3616  0.2699
  136OSM   H18U14804   1.655   7.474   7.917 -0.8652 -0.7292  0.0931
  136OSM    C1F14805   1.141   6.188   6.662 -0.8540  0.1023 -0.3326
  136OSM     OF14806   1.176   6.080   6.608  0.7038  0.1141  0.0881
  136OSM    C2F14807   1.026   6.179   6.758 -0.4754 -0.7020  0.9853
  136OSM    H2F14808   0.951   6.119   6.703  1.3985 -1.0842 -1.2322
  136OSM    H2G14809   0.982   6.279   6.778 -0.5406 -0.6483  0.5734
  136OSM    C3F14810   1.048   6.111   6.897 -0.5322  0.1140  0.1564
  136OSM    H3F14811   1.124   6.163   6.958 -0.9317  0.2508  0.5386
  136OSM    H3G14812   1.094   6.012   6.878  1.7580  1.2235 -0.2819
  136OSM    C4F14813   0.925   6.089   6.983  0.0687  0.4041  0.5816
  136OSM    H4F14814   0.860   6.002   6.962 -2.9446  2.0857  2.4901
  136OSM    H4G14815   0.859   6.178   6.969  1.0338  0.9900 -0.3611
  136OSM    C5F14816   0.958   6.075   7.131 -0.2397 -0.1988  0.6447
  136OSM    H5F14817   1.036   6.151   7.151  1.0878 -1.6972  1.2670
  136OSM    H5G14818   1.002   5.977   7.159 -2.6482 -1.8142 -1.0074
  136OSM    C6F14819   0.830   6.114   7.218  0.2485  0.6488  0.2080
  136OSM    H6F14820   0.744   6.048   7.191 -0.8100  1.1966  2.0969
  136OSM    H6G14821   0.807   6.222   7.214 -1.1741  0.3466 -0.2435
  136OSM    C7F14822   0.856   6.086   7.368 -0.0604  0.0271 -0.1710
  136OSM    H7F14823   0.833   5.977   7.373 -0.8416  0.2007  0.0616
  136OSM    H7G14824   0.780   6.135   7.432  1.1830  3.2474 -1.1001
  136OSM    C8F14825   0.997   6.131   7.422 -0.1541  0.3104 -0.4733
  136OSM    H8F14826   1.081   6.092   7.360 -0.9200  1.1533 -2.0753
  136OSM    H8G14827   1.002   6.083   7.522  0.5663  0.7062 -0.3107
  136OSM    C9F14828   1.017   6.276   7.435 -0.1079 -0.0874 -0.2265
  136OSM    H9F14829   1.001   6.337   7.345 -0.4054  1.3875  0.8097
  136OSM   C10F14830   1.032   6.342   7.554 -0.6326  0.3141  0.9680
  136OSM   H10F14831   1.017   6.451   7.554  1.9891  0.7200 -0.9894
  136OSM   C11F14832   1.040   6.271   7.688  0.2095  0.2046 -0.3028
  136OSM   H11F14833   1.121   6.321   7.746 -0.0680 -1.7190  1.8020
  136OSM   H11G14834   1.076   6.167   7.702  0.4038  0.2787 -0.2514
  136OSM   C12F14835   0.912   6.288   7.770 -1.1312  0.1321 -0.3477
  136OSM   H12F14836   0.842   6.220   7.716 -0.3308 -1.4055  0.5162
  136OSM   H12G14837   0.881   6.394   7.774  1.1043  0.7329  2.8144
  136OSM   C13F14838   0.909   6.220   7.914  0.1819 -0.2015 -0.3018
  136OSM   H13F14839   0.980   6.282   7.974 -1.5613  0.8498  0.7373
  136OSM   H13G14840   0.947   6.117   7.898 -0.4892 -0.5774  0.4579
  136OSM   C14F14841   0.770   6.253   7.970 -0.4437 -0.0899 -0.3097
  136OSM   H14F14842   0.697   6.218   7.893  0.8210 -0.5457 -1.3264
  136OSM   H14G14843   0.764   6.362   7.986  4.2492  0.1642  0.3982
  136OSM   C15F14844   0.739   6.171   8.097 -1.0366 -0.4571  0.7101
  136OSM   H15F14845   0.829   6.172   8.162  0.8810 -1.0053 -1.8453
  136OSM   H15G14846   0.730   6.067   8.059 -1.7053 -0.1983  0.1470
  136OSM   C16F14847   0.620   6.225   8.167  0.4915  0.1388 -0.8948
  136OSM   H16F14848   0.525   6.215   8.109  0.0894 -0.6516 -0.1026
  136OSM   H16G14849   0.640   6.331   8.194  1.2392 -0.2469  0.0574
  136OSM   C17F14850   0.588   6.145   8.299  1.1081 -0.0345  0.1504
  136OSM   H17F14851   0.580   6.039   8.268  0.0386 -0.0747  0.5377
  136OSM   H17G14852   0.495   6.190   8.338 -0.0273 -1.2212 -1.1240
  136OSM   C18F14853   0.695   6.163   8.407  0.1009  0.2155  0.2025
  136OSM   H18F14854   0.792   6.114   8.385  0.2262 -1.0617  3.2583
  136OSM   H18G14855   0.650   6.116   8.498  2.0514  1.3002  1.7723
  136OSM   H18H14856   0.710   6.271   8.426 -4.0580  0.6245  1.7949
  137OSM      N14857   4.770   4.160   6.077 -0.6794 -0.2129 -0.3975
  137OSM    C1514858   4.848   4.272   6.148  0.6075 -0.3362 -0.8861
  137OSM   H15A14859   4.823   4.257   6.252 -1.0088 -0.4277 -1.2654
  137OSM   H15B14860   4.805   4.369   6.128  1.9009  0.6185  0.8310
  137OSM   H15C14861   4.956   4.273   6.153  0.5909  0.9938 -0.6824
  137OSM    C1414862   4.628   4.170   6.102 -0.3208 -0.0806  0.2356
  137OSM   H14A14863   4.598   4.113   6.189  1.9786 -0.1576  1.0041
  137OSM   H14B14864   4.576   4.129   6.017 -0.3688 -1.5410  0.9371
  137OSM   H14C14865   4.594   4.271   6.116  1.4107  0.7104 -1.2224
  137OSM    C1314866   4.793   4.170   5.925  0.7233 -0.4909  0.0396
  137OSM   H13A14867   4.749   4.083   5.878 -2.1912  1.3134 -0.7030
  137OSM   H13B14868   4.900   4.169   5.909  0.9179 -1.6273  1.3076
  137OSM   H13C14869   4.747   4.253   5.874  0.9327  0.0622  0.7609
  137OSM    C1214870   4.819   4.022   6.128  0.0367 -0.5042  0.5790
  137OSM   H12A14871   4.912   3.995   6.081 -0.3928  0.3302 -0.7732
  137OSM   H12B14872   4.749   3.945   6.098 -1.0636  1.3138 -1.6122
  137OSM    C1114873   4.837   4.008   6.279 -0.1950  0.4426 -0.4883
  137OSM   H11A14874   4.914   4.082   6.309 -0.1144  0.2062 -0.1177
  137OSM   H11B14875   4.881   3.909   6.304 -0.9493 -0.3363 -2.1699
  137OSM      P14876   4.614   3.906   6.373 -0.1681  0.5157  0.2184
  137OSM    O1314877   4.484   3.969   6.417  0.1441  0.2590 -0.4140
  137OSM    O1414878   4.611   3.823   6.249  0.5590  0.1298 -0.2631
  137OSM    O1114879   4.659   3.826   6.504  0.1526 -0.0554 -0.3264
  137OSM    O1214880   4.720   4.028   6.359  0.7347  0.1832  0.4509
  137OSM    C1S14881   4.698   3.905   6.619 -0.4382  0.4794  0.5906
  137OSM    H1S14882   4.706   4.015   6.602 -0.1863  0.1704 -1.3547
  137OSM    H1T14883   4.804   3.886   6.646 -0.3415  1.6892  1.1258
  137OSM     NF14884   4.649   3.987   6.844  0.1979 -0.0108 -0.0183
  137OSM    HNF14885   4.703   3.968   6.925  0.1992  1.9441  0.4473
  137OSM    C2S14886   4.617   3.878   6.752 -0.4241  0.1193  0.2210
  137OSM    H2S14887   4.507   3.892   6.739 -0.8682  0.9671  4.2530
  137OSM    C3S14888   4.648   3.733   6.802 -0.1726  0.4928  0.6815
  137OSM    H3S14889   4.758   3.717   6.796 -0.1874  0.0216  1.5851
  137OSM     O314890   4.609   3.633   6.708 -0.4653  0.0035 -0.6274
  137OSM    HO314891   4.615   3.676   6.622 -1.0681  1.7647  0.2042
  137OSM    C4S14892   4.598   3.710   6.944 -0.6271  1.1618 -0.7968
  137OSM    H4S14893   4.655   3.770   7.015 -0.5293  0.2930 -0.1283
  137OSM    C5S14894   4.500   3.627   6.983  0.1103 -0.0023 -0.0002
  137OSM    H5S14895   4.466   3.556   6.907 -1.0184 -0.4344  0.8824
  137OSM    C6S14896   4.451   3.593   7.133 -0.1967  0.1357  0.7502
  137OSM    H6S14897   4.441   3.483   7.147 -1.1138  0.4603  2.7733
  137OSM    H6T14898   4.357   3.645   7.160 -1.0610 -0.3764 -1.2201
  137OSM    C7S14899   4.556   3.651   7.232  0.0643  0.2261 -0.5422
  137OSM    H7S14900   4.554   3.762   7.222 -2.0535  0.0892 -1.8353
  137OSM    H7T14901   4.661   3.623   7.208  0.3481 -0.6265  1.5869
  137OSM    C8S14902   4.524   3.591   7.372  0.1137  0.2140 -0.3778
  137OSM    H8S14903   4.514   3.480   7.371  0.5997  0.1321  1.3269
  137OSM    H8T14904   4.424   3.625   7.406 -1.1224 -2.9491 -0.6319
  137OSM    C9S14905   4.627   3.618   7.490  0.4509  0.2359 -0.0540
  137OSM    H9S14906   4.625   3.727   7.513 -2.3321  0.0182  1.0470
  137OSM    H9T14907   4.725   3.579   7.456 -0.4535 -0.9076 -1.3906
  137OSM   C10S14908   4.595   3.543   7.620  0.5472 -0.3088  0.3787
  137OSM   H10S14909   4.570   3.436   7.612  2.0649 -0.6145 -0.5465
  137OSM   H10T14910   4.507   3.594   7.664  0.2936 -1.1279  0.8188
  137OSM   C11S14911   4.697   3.560   7.739 -0.0501 -0.3128 -0.5536
  137OSM   H11S14912   4.803   3.541   7.712  0.7154  2.6102  0.1575
  137OSM   H11T14913   4.670   3.483   7.815  1.5998 -0.6571 -0.3027
  137OSM   C12S14914   4.692   3.701   7.801 -0.1495  0.1189 -0.5733
  137OSM   H12S14915   4.589   3.714   7.841  0.0656 -1.5769  0.6075
  137OSM   H12T14916   4.699   3.780   7.724  2.2397 -0.4811 -1.0100
  137OSM   C13S14917   4.804   3.704   7.899  0.1284 -0.0437  0.4345
  137OSM   H13S14918   4.898   3.688   7.842  0.0372 -0.1135  0.3025
  137OSM   H13T14919   4.792   3.621   7.973  4.0345  1.4450  2.9130
  137OSM   C14S14920   4.824   3.829   7.987  0.2844  0.2099  0.5256
  137OSM   H14S14921   4.727   3.849   8.037  0.8019  4.7685 -0.1118
  137OSM   H14T14922   4.839   3.921   7.927  0.7341  0.8451  1.6014
  137OSM   C15S14923   4.936   3.813   8.087  0.5051  0.4909 -0.0846
  137OSM   H15S14924   5.025   3.832   8.023  1.7419  0.9981  1.7509
  137OSM   H15T14925   4.936   3.712   8.134  1.9748  0.3153 -0.4377
  137OSM   C16S14926   4.930   3.927   8.190  0.0885 -0.6088  0.6996
  137OSM   H16S14927   4.844   3.898   8.254 -2.0006  2.1944 -0.6770
  137OSM   H16T14928   4.901   4.026   8.147 -0.6047 -1.6528 -1.2750
  137OSM   C17S14929   5.051   3.936   8.283  0.2533  0.0494 -0.7791
  137OSM   H17S14930   5.139   3.980   8.230  0.1305 -0.3574 -1.3300
  137OSM   H17T14931   5.077   3.841   8.334 -0.7625 -0.7605 -1.7485
  137OSM   C18S14932   5.025   4.031   8.403  0.4521 -0.0900  0.2939
  137OSM   H18S14933   4.948   3.988   8.471  1.2383  0.3177  1.4744
  137OSM   H18T14934   4.980   4.128   8.371 -0.3872 -0.6228 -0.1643
  137OSM   H18U14935   5.114   4.060   8.463  0.8353  0.6596 -0.6308
  137OSM    C1F14936   4.613   4.113   6.827 -0.7181 -0.5735 -0.4225
  137OSM     OF14937   4.540   4.145   6.735  0.3718  0.8737 -0.5014
  137OSM    C2F14938   4.677   4.224   6.911 -0.2716  0.6597 -0.1524
  137OSM    H2F14939   4.715   4.300   6.839  1.7228 -0.1087  0.0546
  137OSM    H2G14940   4.771   4.183   6.953 -0.2820 -1.5017 -2.1620
  137OSM    C3F14941   4.579   4.275   7.018 -0.2006 -0.0874 -0.5189
  137OSM    H3F14942   4.526   4.191   7.067 -0.3084  0.0817 -0.3462
  137OSM    H3G14943   4.496   4.335   6.976 -1.3097 -0.4114  1.1568
  137OSM    C4F14944   4.653   4.352   7.134  0.7785 -0.1875  0.5751
  137OSM    H4F14945   4.701   4.447   7.102 -0.0009  0.0266  0.0314
  137OSM    H4G14946   4.726   4.285   7.184  0.4167 -1.2764 -0.3333
  137OSM    C5F14947   4.556   4.398   7.243  0.6445 -0.1273  0.6796
  137OSM    H5F14948   4.497   4.306   7.263 -0.2721  0.5206  0.9536
  137OSM    H5G14949   4.489   4.474   7.198 -0.4765 -0.6713  1.4041
  137OSM    C6F14950   4.617   4.447   7.374  0.5365 -0.1222 -0.6713
  137OSM    H6F14951   4.690   4.525   7.342 -0.7022  2.0148  1.6103
  137OSM    H6G14952   4.672   4.365   7.424 -2.1668 -1.8137 -0.3935
  137OSM    C7F14953   4.506   4.500   7.468 -0.1327 -0.8491  0.1867
  137OSM    H7F14954   4.428   4.425   7.492 -0.4546 -0.1440  1.3724
  137OSM    H7G14955   4.450   4.584   7.421  1.6840  0.6738  0.6719
  137OSM    C8F14956   4.556   4.564   7.602 -0.1781  0.1778  0.2976
  137OSM    H8F14957   4.621   4.646   7.564 -0.2654 -0.0384 -0.3320
  137OSM    H8G14958   4.616   4.493   7.661 -0.8698  0.6987  1.6364
  137OSM    C9F14959   4.455   4.625   7.697  0.2681 -0.6599  0.8393
  137OSM    H9F14960   4.370   4.671   7.644 -0.8911  0.6360  3.6978
  137OSM   C10F14961   4.465   4.641   7.829  0.0059 -0.2325 -0.2347
  137OSM   H10F14962   4.387   4.703   7.873  0.8122  0.8150 -0.2607
  137OSM   C11F14963   4.567   4.591   7.929  0.5379  0.4609 -0.4433
  137OSM   H11F14964   4.671   4.582   7.892  0.6841  1.2565 -0.2181
  137OSM   H11G14965   4.529   4.486   7.934 -2.8275  1.4774 -2.5150
  137OSM   C12F14966   4.560   4.658   8.073 -0.0952 -0.1039  0.3716
  137OSM   H12F14967   4.458   4.650   8.116  1.0457  0.3583  3.2574
  137OSM   H12G14968   4.593   4.764   8.079 -4.4133  1.3010  0.8690
  137OSM   C13F14969   4.655   4.584   8.163  0.5301  0.4476  0.4250
  137OSM   H13F14970   4.758   4.591   8.123  0.6982  1.1017  0.9895
  137OSM   H13G14971   4.617   4.479   8.163  1.3453  0.1335 -0.8625
  137OSM   C14F14972   4.649   4.625   8.314  0.5111 -0.1842  0.0947
  137OSM   H14F14973   4.543   4.637   8.344  0.6452 -1.3126  1.0732
  137OSM   H14G14974   4.703   4.722   8.324  0.5755 -0.2563  0.4502
  137OSM   C15F14975   4.727   4.526   8.396 -0.0660  0.0112  0.1995
  137OSM   H15F14976   4.830   4.516   8.355 -0.1037 -1.5646  0.4467
  137OSM   H15G14977   4.670   4.431   8.389 -1.2768  0.7772 -0.4557
  137OSM   C16F14978   4.735   4.573   8.545 -0.3032  0.0944 -0.2355
  137OSM   H16F14979   4.631   4.597   8.576 -1.1418 -2.8039 -0.6316
  137OSM   H16G14980   4.790   4.669   8.554  1.7418 -1.0216 -0.4575
  137OSM   C17F14981   4.792   4.482   8.655 -0.2465  0.6576  0.0095
  137OSM   H17F14982   4.705   4.426   8.696  0.3656  0.5173  1.1308
  137OSM   H17G14983   4.833   4.539   8.741  0.8425 -2.5228  1.6807
  137OSM   C18F14984   4.898   4.382   8.606  0.0319 -0.0113 -0.5174
  137OSM   H18F14985   4.941   4.319   8.687  0.1218  0.1234 -0.4595
  137OSM   H18G14986   4.987   4.434   8.564  1.9448 -2.1751  0.7535
  137OSM   H18H14987   4.854   4.309   8.535  0.1505 -1.5040  0.9364
  138OSM      N14988   5.455   5.715   6.010 -0.1245 -0.1182 -0.0331
  138OSM    C1514989   5.440   5.604   6.113 -0.2017  0.6859 -0.5678
  138OSM   H15A14990   5.527   5.540   6.114  1.0193  2.2748 -1.7531
  138OSM   H15B14991   5.350   5.555   6.082 -0.5978  0.8117  0.3751
  138OSM   H15C14992   5.410   5.646   6.208 -1.6236 -0.1824 -0.6270
  138OSM    C1414993   5.513   5.672   5.875  0.4622 -0.7406  0.6690
  138OSM   H14A14994   5.454   5.596   5.827  2.6187 -0.6703 -2.2316
  138OSM   H14B14995   5.609   5.626   5.893  0.1016 -1.2206  1.3747
  138OSM   H14C14996   5.529   5.753   5.805 -1.1296  1.1292  2.4144
  138OSM    C1314997   5.306   5.753   5.974  0.4438  0.4392  0.1818
  138OSM   H13A14998   5.241   5.758   6.060  0.8696 -0.2454  0.5448
  138OSM   H13B14999   5.273   5.672   5.910 -1.0917 -0.8921  2.5846
  138OSM   H13C15000   5.303   5.849   5.924  0.8020 -0.5634 -1.8493
  138OSM    C1215001   5.528   5.833   6.081 -0.3913  0.0775 -0.4098
  138OSM   H12A15002   5.517   5.927   6.028 -0.0775  0.7696  0.7345
  138OSM   H12B15003   5.633   5.808   6.080 -0.8625 -2.0509  0.8465
  138OSM    C1115004   5.500   5.865   6.233 -0.0578  0.2346  0.1777
  138OSM   H11A15005   5.588   5.928   6.262  1.0553 -0.5072 -1.5321
  138OSM   H11B15006   5.500   5.775   6.298 -3.0256  0.0731  0.0079
  138OSM      P15007   5.339   6.075   6.205  0.6255 -0.4014 -0.1233
  138OSM    O1315008   5.386   6.179   6.297  0.1690 -0.8604  0.1539
  138OSM    O1415009   5.380   6.098   6.064  0.5750  0.2719  0.4410
  138OSM    O1115010   5.181   6.085   6.202  0.2314  0.2462  0.1732
  138OSM    O1215011   5.374   5.930   6.253  0.1607  0.6316  0.3656
  138OSM    C1S15012   5.098   6.013   6.295  1.0306  0.0887  1.5169
  138OSM    H1S15013   5.140   5.912   6.312 -1.0844 -1.4442 -1.8398
  138OSM    H1T15014   5.000   6.012   6.243  1.5186 -0.7245  0.6019
  138OSM     NF15015   5.016   5.991   6.524  0.1275 -0.1861 -0.5856
  138OSM    HNF15016   4.917   5.977   6.524 -0.2883  2.3515  0.6374
  138OSM    C2S15017   5.074   6.090   6.431  0.3056  0.4941  0.5549
  138OSM    H2S15018   5.174   6.125   6.464 -0.2128  0.6735  1.9585
  138OSM    C3S15019   4.980   6.217   6.408  0.0735 -0.6396  0.3120
  138OSM    H3S15020   4.879   6.181   6.379  0.8507 -1.1069 -1.8988
  138OSM     O315021   5.022   6.295   6.296  0.1285  0.1205 -0.0872
  138OSM    HO315022   5.083   6.233   6.256  0.8459  0.4211  0.4997
  138OSM    C4S15023   4.964   6.312   6.526  0.5037  0.1647  0.4969
  138OSM    H4S15024   5.055   6.368   6.552  1.6671 -1.7359  0.5683
  138OSM    C5S15025   4.853   6.351   6.590  0.8648  0.6617 -0.3845
  138OSM    H5S15026   4.760   6.304   6.555  0.8202  0.6187 -0.2067
  138OSM    C6S15027   4.847   6.446   6.700 -0.3424  0.0547  0.0237
  138OSM    H6S15028   4.836   6.390   6.795  0.8080  1.5264  1.0467
  138OSM    H6T15029   4.762   6.512   6.674 -0.4675 -0.2584 -0.3620
  138OSM    C7S15030   4.971   6.538   6.711 -0.1209  0.7121  0.3646
  138OSM    H7S15031   4.983   6.601   6.620  0.8233 -0.2978 -0.2249
  138OSM    H7T15032   5.068   6.485   6.724  1.1712  2.4967 -1.5992
  138OSM    C8S15033   4.977   6.651   6.822 -0.5940 -0.0841 -0.0837
  138OSM    H8S15034   4.878   6.700   6.830 -0.1481  0.7045  0.7013
  138OSM    H8T15035   5.059   6.721   6.795 -1.0960  0.5633  0.0742
  138OSM    C9S15036   4.995   6.587   6.958 -0.1642 -0.4317 -0.5603
  138OSM    H9S15037   5.092   6.533   6.956  0.5028  0.7526 -0.6781
  138OSM    H9T15038   4.916   6.511   6.978 -0.1165 -0.2718  0.2626
  138OSM   C10S15039   4.984   6.692   7.068 -0.3703  0.3483 -0.1012
  138OSM   H10S15040   4.880   6.731   7.062 -0.7424 -0.7847 -1.4036
  138OSM   H10T15041   5.061   6.772   7.065  1.0977 -0.9400  2.2906
  138OSM   C11S15042   4.997   6.635   7.209  0.7785 -0.4918 -0.2064
  138OSM   H11S15043   5.077   6.558   7.206  0.7944 -0.4550 -0.7023
  138OSM   H11T15044   4.905   6.581   7.238  0.4223  0.5897  0.7246
  138OSM   C12S15045   5.011   6.743   7.324  0.4353 -0.0858  0.0812
  138OSM   H12S15046   4.921   6.807   7.315  0.2209 -0.3049  0.6552
  138OSM   H12T15047   5.089   6.814   7.290 -0.4111  1.0287  0.4402
  138OSM   C13S15048   5.013   6.682   7.463 -0.1940  0.2288 -0.2279
  138OSM   H13S15049   5.109   6.634   7.493 -0.0423  0.3432 -0.5350
  138OSM   H13T15050   4.940   6.598   7.468 -2.5653  2.1990 -0.7455
  138OSM   C14S15051   4.975   6.781   7.571  0.0989  0.0455  0.0989
  138OSM   H14S15052   4.875   6.821   7.543  1.5427  1.1457 -3.8064
  138OSM   H14T15053   5.042   6.869   7.573 -0.8226  0.7332  1.6069
  138OSM   C15S15054   4.966   6.716   7.715 -0.5201 -0.3154 -0.1737
  138OSM   H15S15055   5.066   6.681   7.747 -1.2480 -1.8928  0.3866
  138OSM   H15T15056   4.915   6.618   7.706  0.4263 -1.0450  2.0765
  138OSM   C16S15057   4.924   6.805   7.833  0.4740  0.3159 -0.5831
  138OSM   H16S15058   4.816   6.833   7.834 -0.0668 -1.7051 -0.9036
  138OSM   H16T15059   4.966   6.907   7.823  1.7509 -0.2187 -0.8640
  138OSM   C17S15060   4.950   6.741   7.965 -0.6640  0.6856  0.1445
  138OSM   H17S15061   5.060   6.735   7.976 -0.9192 -1.1482  2.0003
  138OSM   H17T15062   4.925   6.633   7.975  0.5001  0.5143  1.3508
  138OSM   C18S15063   4.891   6.809   8.084  0.0493 -0.4351 -0.2581
  138OSM   H18S15064   4.783   6.831   8.070 -0.0514 -1.0173 -0.3793
  138OSM   H18T15065   4.951   6.900   8.110  0.0762 -0.9971  1.6990
  138OSM   H18U15066   4.909   6.745   8.173 -1.9223  0.9985  1.2373
  138OSM    C1F15067   5.091   5.895   6.580 -0.0976  0.2354  0.6758
  138OSM     OF15068   5.214   5.905   6.597  0.1208 -0.0924  0.5855
  138OSM    C2F15069   5.017   5.767   6.602  0.0432  0.8298 -0.4501
  138OSM    H2F15070   5.023   5.712   6.506 -1.2744  2.3477 -1.4265
  138OSM    H2G15071   4.908   5.782   6.620  0.2332  0.8101  0.8042
  138OSM    C3F15072   5.060   5.680   6.719  0.0196  0.1042  0.5212
  138OSM    H3F15073   5.170   5.693   6.715  0.1149 -0.0623  2.1170
  138OSM    H3G15074   5.051   5.570   6.706  2.8953 -0.2206  0.9828
  138OSM    C4F15075   4.998   5.725   6.851  0.5855  0.1155  0.6544
  138OSM    H4F15076   4.889   5.707   6.846  0.6429 -0.6821  2.0113
  138OSM    H4G15077   5.012   5.835   6.859  1.4930  0.0659 -0.0929
  138OSM    C5F15078   5.055   5.650   6.973 -0.6576 -0.6513  0.2119
  138OSM    H5F15079   5.163   5.677   6.980 -0.4578 -1.3680 -0.0186
  138OSM    H5G15080   5.060   5.541   6.955  1.5911 -0.6294  0.4483
  138OSM    C6F15081   4.982   5.676   7.107  0.3124 -0.8268 -0.5697
  138OSM    H6F15082   4.890   5.615   7.113 -0.1354  0.1290  3.2045
  138OSM    H6G15083   4.947   5.781   7.109 -0.0185 -0.9516  3.8414
  138OSM    C7F15084   5.056   5.643   7.237 -0.3227 -0.4860  0.0413
  138OSM    H7F15085   5.142   5.712   7.247 -0.6517 -0.2615  1.3464
  138OSM    H7G15086   5.101   5.542   7.223  1.8812  0.9321 -3.9732
  138OSM    C8F15087   4.977   5.633   7.370  0.0373  0.4994  0.6667
  138OSM    H8F15088   5.044   5.602   7.452  1.0605 -1.6745 -0.9445
  138OSM    H8G15089   4.898   5.556   7.356  1.1749 -0.4973 -0.3605
  138OSM    C9F15090   4.927   5.772   7.415 -0.9767  0.4785 -0.3551
  138OSM    H9F15091   4.930   5.846   7.333 -2.6457  2.4577  1.3230
  138OSM   C10F15092   4.888   5.807   7.540 -0.0651  0.4910  0.3400
  138OSM   H10F15093   4.862   5.914   7.547  0.0818  0.7553 -2.3542
  138OSM   C11F15094   4.891   5.734   7.668 -0.2860 -0.4205 -0.1893
  138OSM   H11F15095   4.891   5.626   7.642  0.5304 -0.2047 -1.1081
  138OSM   H11G15096   4.792   5.760   7.711  0.8162  0.9859  1.5582
  138OSM   C12F15097   5.013   5.761   7.758  0.6562 -0.0001 -0.0022
  138OSM   H12F15098   5.033   5.870   7.766  1.3628  0.0160 -1.8557
  138OSM   H12G15099   5.106   5.726   7.708 -0.4502 -0.8324 -1.4779
  138OSM   C13F15100   4.978   5.719   7.908 -0.0047 -0.0643  0.7180
  138OSM   H13F15101   4.966   5.609   7.908 -1.8560  0.1160 -0.2037
  138OSM   H13G15102   4.882   5.763   7.942 -0.2988 -0.4858  0.4234
  138OSM   C14F15103   5.102   5.757   7.998 -0.4922  0.1894  0.3414
  138OSM   H14F15104   5.117   5.867   7.989  0.2713  0.1068  0.5688
  138OSM   H14G15105   5.192   5.708   7.953 -2.9786 -2.2985 -2.1589
  138OSM   C15F15106   5.098   5.714   8.143  0.1373 -0.8010  0.2544
  138OSM   H15F15107   5.189   5.741   8.202  1.1316 -2.6053 -0.4318
  138OSM   H15G15108   5.092   5.604   8.155 -0.2991 -0.7773  0.2331
  138OSM   C16F15109   4.975   5.774   8.207  0.3030 -0.5475 -0.2964
  138OSM   H16F15110   4.885   5.756   8.144  1.4784 -3.4995 -1.1646
  138OSM   H16G15111   4.990   5.884   8.213  1.2334 -0.6954  0.2177
  138OSM   C17F15112   4.952   5.725   8.353  0.4079  0.4711 -0.7859
  138OSM   H17F15113   5.042   5.739   8.417  0.9174 -0.1514 -1.3554
  138OSM   H17G15114   4.925   5.617   8.350  0.8635  0.2422  2.1699
  138OSM   C18F15115   4.834   5.806   8.410 -0.4335  0.5597 -0.7594
  138OSM   H18F15116   4.853   5.912   8.384  3.2068 -0.8173 -4.2860
  138OSM   H18G15117   4.839   5.801   8.521  2.4610  0.3799 -0.8705
  138OSM   H18H15118   4.733   5.789   8.367 -1.1130 -0.3071  1.0886
  139OSM      N15119   4.720   6.338   6.047 -0.2939  0.1241  0.3467
  139OSM    C1515120   4.648   6.286   5.928 -0.0515  0.1062  0.2829
  139OSM   H15A15121   4.564   6.353   5.921  0.2469  0.7129  2.0650
  139OSM   H15B15122   4.625   6.186   5.962  1.9139 -0.4668  0.0063
  139OSM   H15C15123   4.706   6.269   5.839 -2.7342  1.5729 -1.8171
  139OSM    C1415124   4.801   6.228   6.104 -0.3664  0.0564 -0.3763
  139OSM   H14A15125   4.877   6.196   6.035  0.4469  0.8615  0.1435
  139OSM   H14B15126   4.739   6.143   6.132  0.6526 -1.6594 -3.1882
  139OSM   H14C15127   4.858   6.269   6.186 -2.5003  0.7170  0.8258
  139OSM    C1315128   4.806   6.449   5.998  0.0327 -0.4539  0.1813
  139OSM   H13A15129   4.865   6.487   6.080 -1.0704 -2.3412  1.9107
  139OSM   H13B15130   4.743   6.534   5.977  2.7621  0.9168 -2.7463
  139OSM   H13C15131   4.871   6.427   5.915 -0.6732 -1.8232 -0.0282
  139OSM    C1215132   4.626   6.395   6.152  0.3990  0.0022  0.5908
  139OSM   H12A15133   4.555   6.319   6.182  2.7437 -2.1345  0.8915
  139OSM   H12B15134   4.560   6.470   6.111  0.3359 -0.4198 -0.0901
  139OSM    C1115135   4.693   6.467   6.274  0.5979 -0.8624 -0.0500
  139OSM   H11A15136   4.776   6.400   6.307  0.4802 -0.0487  1.9708
  139OSM   H11B15137   4.624   6.463   6.361 -0.8895 -0.8264 -1.2184
  139OSM      P15138   4.646   6.726   6.209 -0.1069 -0.1642  0.2593
  139OSM    O1315139   4.730   6.843   6.230  0.2604 -0.0430  0.0447
  139OSM    O1415140   4.584   6.707   6.080 -0.1644 -0.1517  0.0300
  139OSM    O1115141   4.538   6.705   6.324  0.2120 -0.5687 -0.0290
  139OSM    O1215142   4.738   6.597   6.236 -0.1839  0.0164  0.4449
  139OSM    C1S15143   4.575   6.740   6.460  0.4888  0.5850 -0.6941
  139OSM    H1S15144   4.603   6.848   6.467  2.5954  0.1248 -1.6416
  139OSM    H1T15145   4.656   6.675   6.499 -0.0462  0.5686  0.3927
  139OSM     NF15146   4.496   6.772   6.688 -0.7560  0.0110 -0.5821
  139OSM    HNF15147   4.524   6.701   6.753 -0.0098  0.2419 -0.6489
  139OSM    C2S15148   4.458   6.728   6.558  0.2780 -0.4960  0.1646
  139OSM    H2S15149   4.378   6.800   6.529  0.5344  0.2797  1.3478
  139OSM    C3S15150   4.394   6.588   6.555  0.1689  0.6867  0.6995
  139OSM    H3S15151   4.473   6.516   6.584 -0.0961 -0.3970 -1.1898
  139OSM     O315152   4.357   6.540   6.430  0.1966  0.6244  0.3753
  139OSM    HO315153   4.405   6.605   6.378  0.0066  1.7681  1.5912
  139OSM    C4S15154   4.263   6.587   6.642 -0.3096 -0.0290  0.2515
  139OSM    H4S15155   4.267   6.525   6.732 -1.7216 -0.8150 -0.2132
  139OSM    C5S15156   4.150   6.650   6.605  0.1878  0.0531  0.0280
  139OSM    H5S15157   4.152   6.694   6.505 -0.4439  1.8082  0.7607
  139OSM    C6S15158   4.026   6.649   6.692  0.2803  0.2232  0.6568
  139OSM    H6S15159   3.961   6.572   6.646 -0.1171  0.7413  0.3540
  139OSM    H6T15160   3.968   6.743   6.687  0.3046  0.2047  0.0702
  139OSM    C7S15161   4.036   6.615   6.837 -0.0660  0.2072 -0.1371
  139OSM    H7S15162   4.111   6.678   6.888 -2.1304 -0.5387  4.0564
  139OSM    H7T15163   4.086   6.516   6.849  0.7010  0.3565 -2.0063
  139OSM    C8S15164   3.908   6.612   6.921  0.5684  0.3326 -0.1478
  139OSM    H8S15165   3.902   6.543   7.008  0.7674 -1.7272 -1.7634
  139OSM    H8T15166   3.834   6.566   6.853  1.4695 -0.3232 -0.6906
  139OSM    C9S15167   3.867   6.754   6.967 -0.6276 -0.0090  0.0297
  139OSM    H9S15168   3.759   6.762   6.995 -0.4562 -0.1245  0.7297
  139OSM    H9T15169   3.877   6.821   6.879  1.3288  0.0398  0.2654
  139OSM   C10S15170   3.956   6.797   7.083 -0.1917  0.9175 -0.3880
  139OSM   H10S15171   4.063   6.796   7.056  0.4325 -0.3991  1.9974
  139OSM   H10T15172   3.938   6.728   7.168 -1.2054  2.4114  0.6509
  139OSM   C11S15173   3.929   6.942   7.134 -0.2433 -0.2116 -0.2946
  139OSM   H11S15174   3.820   6.937   7.155 -0.3523 -0.8033 -0.9635
  139OSM   H11T15175   3.950   7.012   7.050  2.7171  1.0685  1.4422
  139OSM   C12S15176   4.011   6.980   7.257 -0.0963  0.1918 -0.0702
  139OSM   H12S15177   3.994   7.089   7.265 -1.5655 -0.0935  0.8346
  139OSM   H12T15178   4.114   6.950   7.227 -0.2253  0.3708 -0.6917
  139OSM   C13S15179   3.982   6.905   7.392  0.3739  0.9087 -0.2500
  139OSM   H13S15180   4.064   6.938   7.459 -2.1565  2.9281  1.9272
  139OSM   H13T15181   3.980   6.795   7.375 -0.6451  0.5834  1.8679
  139OSM   C14S15182   3.863   6.958   7.468  0.2705  0.0461  0.2627
  139OSM   H14S15183   3.772   6.924   7.414  0.1536  1.1156 -0.2222
  139OSM   H14T15184   3.860   7.067   7.449 -2.8598 -0.6867 -4.2252
  139OSM   C15S15185   3.858   6.931   7.615 -0.3543  0.1395  0.5283
  139OSM   H15S15186   3.777   6.992   7.661 -1.4231 -1.1024  0.3002
  139OSM   H15T15187   3.950   6.974   7.661 -0.4909 -1.4550  2.3649
  139OSM   C16S15188   3.849   6.785   7.650 -0.1485  0.6728  0.1393
  139OSM   H16S15189   3.936   6.733   7.603 -0.3598  0.5786 -0.1475
  139OSM   H16T15190   3.761   6.738   7.602  0.7199 -0.6735 -0.1578
  139OSM   C17S15191   3.852   6.751   7.801 -0.4469 -0.0669 -0.1402
  139OSM   H17S15192   3.763   6.800   7.848  1.0345  2.4512  0.1514
  139OSM   H17T15193   3.944   6.789   7.850 -0.5743 -1.1703  0.9755
  139OSM   C18S15194   3.852   6.595   7.819 -0.1072 -0.6448  0.4014
  139OSM   H18S15195   3.861   6.565   7.925  2.8874  0.3487  0.4772
  139OSM   H18T15196   3.940   6.547   7.771 -0.6028 -0.6866 -0.4767
  139OSM   H18U15197   3.757   6.567   7.769 -0.7434  0.1722  1.1470
  139OSM    C1F15198   4.509   6.904   6.730  0.6914 -0.0704  0.4388
  139OSM     OF15199   4.490   6.993   6.645 -0.2154  0.4754 -0.2373
  139OSM    C2F15200   4.532   6.920   6.876  0.1840  0.2639  0.7831
  139OSM    H2F15201   4.608   6.847   6.909 -0.2867  0.0768  1.4631
  139OSM    H2G15202   4.453   6.887   6.947 -1.7229  0.2949 -1.2820
  139OSM    C3F15203   4.592   7.058   6.923  0.3638  0.1626 -0.1271
  139OSM    H3F15204   4.539   7.141   6.872  0.2878 -0.6453 -1.3930
  139OSM    H3G15205   4.699   7.054   6.894 -0.3923 -1.7328 -2.8022
  139OSM    C4F15206   4.578   7.084   7.072  0.0187 -0.1509  0.6503
  139OSM    H4F15207   4.645   7.169   7.101  1.6964 -1.4942  0.7991
  139OSM    H4G15208   4.617   6.992   7.120  1.0984  0.0324  0.1363
  139OSM    C5F15209   4.436   7.123   7.110  0.9943  0.2556  0.2009
  139OSM    H5F15210   4.359   7.046   7.089 -2.3041  2.9073  2.0261
  139OSM    H5G15211   4.411   7.215   7.054  0.2466 -0.5118 -0.7462
  139OSM    C6F15212   4.415   7.150   7.262  0.4012 -0.3914  0.0990
  139OSM    H6F15213   4.310   7.183   7.266 -0.1031 -1.7432 -1.5786
  139OSM    H6G15214   4.477   7.231   7.308 -0.8032 -0.2409  1.4898
  139OSM    C7F15215   4.424   7.033   7.354  0.1513  0.5837 -0.4899
  139OSM    H7F15216   4.530   7.009   7.378  0.9907  2.3311 -2.2184
  139OSM    H7G15217   4.395   6.941   7.299  0.4689  0.8687 -1.1435
  139OSM    C8F15218   4.337   7.036   7.477  0.1671 -0.2635  0.2405
  139OSM    H8F15219   4.336   6.933   7.518  3.1137 -0.7210 -0.7182
  139OSM    H8G15220   4.234   7.069   7.451 -0.3661 -3.0439 -1.2799
  139OSM    C9F15221   4.390   7.125   7.584  0.4738  0.0442  0.3681
  139OSM    H9F15222   4.492   7.149   7.552  1.1035  0.1833  2.3765
  139OSM   C10F15223   4.350   7.163   7.709  0.1530 -0.2455 -0.0878
  139OSM   H10F15224   4.416   7.234   7.760  2.4243 -2.0783 -0.3371
  139OSM   C11F15225   4.223   7.128   7.785 -0.0265  0.5709  0.4864
  139OSM   H11F15226   4.156   7.075   7.714 -0.8332 -1.0235  2.3862
  139OSM   H11G15227   4.172   7.225   7.804  0.2799  0.6050  1.1465
  139OSM   C12F15228   4.251   7.059   7.915 -0.0316  0.0823 -0.7468
  139OSM   H12F15229   4.324   7.111   7.981 -1.1663 -0.6484  1.1258
  139OSM   H12G15230   4.295   6.962   7.884 -0.1328  0.6247 -2.6053
  139OSM   C13F15231   4.131   7.036   7.997  0.6071  0.1017 -0.1116
  139OSM   H13F15232   4.062   6.962   7.950  0.0936 -0.0434  0.8533
  139OSM   H13G15233   4.075   7.128   8.023  0.3047 -0.3538  0.8604
  139OSM   C14F15234   4.180   6.979   8.133 -0.2842  0.3274  0.9561
  139OSM   H14F15235   4.229   7.067   8.179  0.1014  0.5440  0.1472
  139OSM   H14G15236   4.261   6.903   8.130  0.3508  1.0261  0.3449
  139OSM   C15F15237   4.053   6.939   8.213  0.7815 -0.0020 -0.0795
  139OSM   H15F15238   4.006   6.845   8.177  0.0849 -0.1508  1.1690
  139OSM   H15G15239   3.981   7.023   8.195 -2.0792 -2.8443 -2.4815
  139OSM   C16F15240   4.095   6.935   8.361  0.5225 -0.2696  0.5156
  139OSM   H16F15241   4.153   7.021   8.401 -1.0889  0.8984  0.3781
  139OSM   H16G15242   4.162   6.846   8.363  0.2164 -0.4935  1.1656
  139OSM   C17F15243   3.981   6.907   8.460  0.1103  0.2266 -0.5989
  139OSM   H17F15244   3.922   6.817   8.431 -3.7460  1.7703  2.0383
  139OSM   H17G15245   3.905   6.985   8.437 -0.3149 -0.0410 -0.1162
  139OSM   C18F15246   4.024   6.897   8.598  0.1306 -0.0860 -0.2735
  139OSM   H18F15247   3.935   6.877   8.662  0.8615  2.5799  1.6429
  139OSM   H18G15248   4.080   6.984   8.637  0.3687 -0.3176 -0.0985
  139OSM   H18H15249   4.091   6.810   8.617  0.0158 -0.7360 -2.6329
  140OSM      N15250   5.839   2.202   6.058 -0.1582 -0.1317 -0.2320
  140OSM    C1515251   5.902   2.070   6.073 -0.0159  0.0154  0.6178
  140OSM   H15A15252   5.913   2.054   6.180 -1.3993 -0.1443  0.7373
  140OSM   H15B15253   6.005   2.065   6.039  0.6487 -0.4330  2.5966
  140OSM   H15C15254   5.843   1.991   6.030 -1.2567  2.2040 -1.8377
  140OSM    C1415255   5.909   2.293   6.153  0.1874  0.5307 -0.7362
  140OSM   H14A15256   6.014   2.312   6.140  0.6095  0.3815  2.0010
  140OSM   H14B15257   5.893   2.270   6.258 -0.3828  0.4945 -0.8261
  140OSM   H14C15258   5.871   2.393   6.139 -0.0979  0.5591  0.1580
  140OSM    C1315259   5.860   2.239   5.916 -0.3517 -0.2342  0.3981
  140OSM   H13A15260   5.794   2.313   5.874 -1.5247 -1.8453 -0.6982
  140OSM   H13B15261   5.836   2.154   5.853 -2.4584 -0.1241  1.0245
  140OSM   H13C15262   5.965   2.258   5.905 -0.4765 -0.1895 -0.8010
  140OSM    C1215263   5.688   2.204   6.091  0.2305  0.2080 -0.3093
  140OSM   H12A15264   5.675   2.158   6.188  0.7122  1.3485  0.3056
  140OSM   H12B15265   5.643   2.155   6.005  1.1017 -0.9328 -0.1401
  140OSM    C1115266   5.618   2.337   6.081  0.1520  0.4982  0.4725
  140OSM   H11A15267   5.508   2.320   6.075  0.2300  0.7855 -2.7264
  140OSM   H11B15268   5.643   2.390   5.986  1.4711 -1.9513 -0.5985
  140OSM      P15269   5.560   2.483   6.302 -0.0851 -0.1574  0.0880
  140OSM    O1315270   5.631   2.575   6.393 -0.7308  0.1178 -0.5448
  140OSM    O1415271   5.442   2.531   6.229 -0.1315  0.3573  0.0973
  140OSM    O1115272   5.522   2.361   6.390 -0.3667 -0.4296  0.4722
  140OSM    O1215273   5.660   2.425   6.185  0.8679  0.2588 -0.3586
  140OSM    C1S15274   5.626   2.283   6.447  0.5265  0.5754  0.2214
  140OSM    H1S15275   5.722   2.281   6.390 -1.1887 -1.0095 -2.7855
  140OSM    H1T15276   5.590   2.179   6.464 -2.3611  1.3600 -0.8590
  140OSM     NF15277   5.782   2.270   6.640  0.3128 -0.2993 -0.2764
  140OSM    HNF15278   5.776   2.205   6.716  1.0573 -0.1154 -0.0472
  140OSM    C2S15279   5.661   2.334   6.590  0.2995 -0.1255  0.1063
  140OSM    H2S15280   5.686   2.441   6.572 -1.4965  0.5151  1.3040
  140OSM    C3S15281   5.535   2.321   6.682 -0.0371  0.4968 -0.3270
  140OSM    H3S15282   5.503   2.215   6.696 -0.0954  0.5929  0.3058
  140OSM     O315283   5.413   2.369   6.627 -0.3767 -0.1063 -0.1058
  140OSM    HO315284   5.433   2.377   6.533  1.7473 -0.1910  0.3255
  140OSM    C4S15285   5.559   2.385   6.814 -0.0482 -0.5024 -0.0215
  140OSM    H4S15286   5.603   2.486   6.811 -1.7249  0.2348  0.0100
  140OSM    C5S15287   5.523   2.345   6.934 -0.1670 -0.1678 -0.1479
  140OSM    H5S15288   5.464   2.253   6.942  0.8875 -0.9887 -1.6226
  140OSM    C6S15289   5.548   2.421   7.059  0.1602 -0.4023  0.7353
  140OSM    H6S15290   5.625   2.501   7.052  2.2885 -2.5772 -1.5716
  140OSM    H6T15291   5.567   2.348   7.141  1.7402  1.1281  1.7825
  140OSM    C7S15292   5.422   2.498   7.092  0.7025  0.0700 -0.5443
  140OSM    H7S15293   5.333   2.437   7.117  1.9392 -1.3210  0.4942
  140OSM    H7T15294   5.392   2.568   7.010 -0.3286 -0.1924 -0.4066
  140OSM    C8S15295   5.440   2.585   7.214 -0.4132  0.5367 -0.3066
  140OSM    H8S15296   5.375   2.675   7.205  0.4772  1.1479 -0.7051
  140OSM    H8T15297   5.546   2.619   7.216 -0.4740  0.7798 -1.0625
  140OSM    C9S15298   5.393   2.528   7.347 -0.0604  0.0711  0.3026
  140OSM    H9S15299   5.458   2.450   7.392 -1.1356  0.0159  1.8095
  140OSM    H9T15300   5.295   2.477   7.336  0.2992 -0.5977  0.1724
  140OSM   C10S15301   5.365   2.636   7.461 -0.4909 -0.9349  0.5520
  140OSM   H10S15302   5.289   2.711   7.431 -0.5120 -2.3204 -3.1246
  140OSM   H10T15303   5.457   2.696   7.480 -1.0961  0.5589 -1.0873
  140OSM   C11S15304   5.325   2.582   7.599  0.8205  0.3549  0.4845
  140OSM   H11S15305   5.410   2.517   7.629  0.1375 -0.4877  0.6001
  140OSM   H11T15306   5.238   2.514   7.586  1.2246  0.3808 -3.0069
  140OSM   C12S15307   5.291   2.691   7.707  0.2675 -0.6522 -0.3138
  140OSM   H12S15308   5.311   2.789   7.659 -1.6534  0.6290  1.4319
  140OSM   H12T15309   5.347   2.684   7.803 -3.5561  1.9455  2.2350
  140OSM   C13S15310   5.139   2.678   7.739  0.1885 -0.0357 -1.1486
  140OSM   H13S15311   5.134   2.569   7.759  0.8125  0.2286  0.5208
  140OSM   H13T15312   5.078   2.706   7.650  2.3664  1.4032 -2.2478
  140OSM   C14S15313   5.098   2.755   7.868  0.3037 -0.3675  0.0963
  140OSM   H14S15314   5.124   2.862   7.856  1.1017 -0.6251 -0.5021
  140OSM   H14T15315   5.166   2.710   7.943 -2.0065  0.3149  2.7060
  140OSM   C15S15316   4.960   2.717   7.925 -0.2094  0.2834 -0.0226
  140OSM   H15S15317   4.962   2.612   7.963  0.2988  0.7250  1.1752
  140OSM   H15T15318   4.883   2.721   7.845 -0.4005  0.0809  0.1522
  140OSM   C16S15319   4.927   2.794   8.053 -0.4584  0.1884 -0.9046
  140OSM   H16S15320   4.943   2.902   8.033  2.5898 -0.1134 -0.3649
  140OSM   H16T15321   5.000   2.767   8.132 -1.6832 -0.2798  0.0988
  140OSM   C17S15322   4.782   2.764   8.110  0.0212 -0.1898 -0.1337
  140OSM   H17S15323   4.768   2.655   8.124  0.1909 -0.3119 -0.8684
  140OSM   H17T15324   4.717   2.789   8.024  0.9974 -1.6113 -1.3010
  140OSM   C18S15325   4.739   2.840   8.230  0.9347  0.2436 -0.4157
  140OSM   H18S15326   4.800   2.815   8.320 -0.2838 -1.5372 -0.0513
  140OSM   H18T15327   4.635   2.814   8.260  1.7569 -3.5948 -0.5749
  140OSM   H18U15328   4.743   2.948   8.208 -1.7264  0.2056 -1.2638
  140OSM    C1F15329   5.905   2.281   6.587 -0.3061 -0.7902  0.4957
  140OSM     OF15330   5.927   2.381   6.522 -0.4965 -0.5585 -0.1216
  140OSM    C2F15331   6.008   2.175   6.621 -0.2372  0.3067  0.5107
  140OSM    H2F15332   6.108   2.222   6.630  1.0788 -1.7799 -2.4150
  140OSM    H2G15333   6.027   2.123   6.525 -2.2779  0.3086  0.0906
  140OSM    C3F15334   5.977   2.086   6.744  0.4718  1.1499  0.1297
  140OSM    H3F15335   6.064   2.017   6.753 -0.7869 -0.3364  1.0662
  140OSM    H3G15336   5.888   2.024   6.720  0.2639  1.5987 -0.2623
  140OSM    C4F15337   5.962   2.163   6.878  0.1287 -0.5925 -0.7181
  140OSM    H4F15338   5.869   2.223   6.885 -0.0629 -1.0870  1.3873
  140OSM    H4G15339   6.052   2.219   6.910 -0.9440 -0.1108  1.5552
  140OSM    C5F15340   5.929   2.060   6.990  0.1710  0.0295 -0.3801
  140OSM    H5F15341   5.984   1.965   6.974  0.1549 -0.1542  0.6359
  140OSM    H5G15342   5.826   2.018   6.987  0.5511 -1.2473  2.3691
  140OSM    C6F15343   5.950   2.109   7.131  0.3512 -0.0966 -0.6844
  140OSM    H6F15344   6.057   2.136   7.127 -0.1280  1.9771 -0.1475
  140OSM    H6G15345   5.930   2.031   7.208  3.1029  0.2867  0.4503
  140OSM    C7F15346   5.864   2.227   7.179 -0.0584  0.2101  0.0316
  140OSM    H7F15347   5.768   2.187   7.217  0.0125  0.1631  0.1612
  140OSM    H7G15348   5.842   2.304   7.102 -1.5518 -0.9942 -0.7934
  140OSM    C8F15349   5.927   2.291   7.300 -0.3156 -0.1492  0.8311
  140OSM    H8F15350   6.017   2.344   7.263  0.0008 -0.8826  0.5407
  140OSM    H8G15351   5.961   2.203   7.359  1.1300 -1.1511 -1.4358
  140OSM    C9F15352   5.833   2.385   7.364  0.0677 -0.2676 -0.6658
  140OSM    H9F15353   5.807   2.471   7.300 -0.1646  0.5394  0.4903
  140OSM   C10F15354   5.768   2.366   7.480 -0.7128 -0.7556  0.4797
  140OSM   H10F15355   5.702   2.447   7.517 -0.2600 -0.6313  1.0185
  140OSM   C11F15356   5.779   2.255   7.581 -0.7776  0.4480 -0.3305
  140OSM   H11F15357   5.865   2.279   7.647  0.8945 -4.1607 -0.6761
  140OSM   H11G15358   5.795   2.160   7.526 -2.1802 -0.9095  1.5341
  140OSM   C12F15359   5.653   2.231   7.663  0.8575 -0.1367 -0.6661
  140OSM   H12F15360   5.575   2.203   7.590  0.5594  1.9167 -1.1710
  140OSM   H12G15361   5.622   2.330   7.703 -0.5195 -1.8384  2.6059
  140OSM   C13F15362   5.658   2.138   7.782  0.0905  0.3368 -0.5341
  140OSM   H13F15363   5.701   2.042   7.746  0.9149  0.5802 -0.2223
  140OSM   H13G15364   5.553   2.132   7.816  0.3541 -0.7949  0.1085
  140OSM   C14F15365   5.746   2.185   7.907  0.2118  0.3533  0.7386
  140OSM   H14F15366   5.692   2.269   7.955 -1.2316 -0.1156 -0.0217
  140OSM   H14G15367   5.844   2.215   7.864  1.5306 -1.1467  2.6180
  140OSM   C15F15368   5.770   2.083   8.006  0.8840  0.3325  0.8979
  140OSM   H15F15369   5.850   2.021   7.961  1.1522  0.6963  0.8801
  140OSM   H15G15370   5.680   2.019   8.024 -0.7211  2.7029  1.4948
  140OSM   C16F15371   5.816   2.138   8.151 -0.0936 -0.2074 -0.8464
  140OSM   H16F15372   5.734   2.204   8.187 -0.6788 -1.3900  0.0116
  140OSM   H16G15373   5.902   2.205   8.132 -0.4609  0.1744 -1.1673
  140OSM   C17F15374   5.843   2.027   8.251 -0.2948  0.3738  0.0847
  140OSM   H17F15375   5.933   1.971   8.218 -0.3170  0.6715 -0.4942
  140OSM   H17G15376   5.763   1.950   8.257  0.0622  0.1069  1.7521
  140OSM   C18F15377   5.875   2.091   8.386  1.1919  0.0497  0.6063
  140OSM   H18F15378   5.930   2.024   8.456 -3.3321 -2.6994  1.7708
  140OSM   H18G15379   5.784   2.124   8.441  0.7802 -0.3791  0.1923
  140OSM   H18H15380   5.940   2.175   8.355 -1.4392  1.8970 -0.1474
  141OSM      N15381   3.770   4.053   6.121 -0.7772 -0.4884  0.1755
  141OSM    C1515382   3.742   4.163   6.220  0.0274 -0.0292  0.4332
  141OSM   H15A15383   3.745   4.123   6.321 -0.6683 -0.9766  0.0851
  141OSM   H15B15384   3.644   4.201   6.196 -0.0234 -2.1198 -2.9089
  141OSM   H15C15385   3.813   4.243   6.209 -1.5511  1.2613 -0.6427
  141OSM    C1415386   3.725   4.112   5.983 -0.5282  0.5763  0.1645
  141OSM   H14A15387   3.797   4.186   5.951  0.9373 -1.5021 -1.5169
  141OSM   H14B15388   3.622   4.145   5.982 -0.7380 -0.0716 -2.0416
  141OSM   H14C15389   3.735   4.035   5.908  0.5659 -0.3503  1.2503
  141OSM    C1315390   3.915   4.029   6.124  0.1063 -0.5886  0.3849
  141OSM   H13A15391   3.964   4.113   6.171  1.1642 -1.3785  0.7194
  141OSM   H13B15392   3.951   4.007   6.024 -0.3875 -0.1776  0.1160
  141OSM   H13C15393   3.927   3.941   6.185 -1.7307 -0.8420  0.4013
  141OSM    C1215394   3.687   3.929   6.155 -0.5349 -0.0762 -0.7282
  141OSM   H12A15395   3.700   3.850   6.082 -3.2128 -1.1690 -0.1048
  141OSM   H12B15396   3.579   3.935   6.157 -0.5737 -0.9730  1.3457
  141OSM    C1115397   3.722   3.851   6.288 -0.4635 -0.1222  0.4247
  141OSM   H11A15398   3.657   3.761   6.289 -0.0332 -0.4655 -1.1436
  141OSM   H11B15399   3.697   3.920   6.371 -1.6035 -1.1487  0.9405
  141OSM      P15400   3.912   3.681   6.264 -0.3953  0.0662  0.1685
  141OSM    O1315401   3.833   3.619   6.157  0.4918  0.5413 -0.5200
  141OSM    O1415402   4.059   3.700   6.233  0.1500  0.1735 -0.3471
  141OSM    O1115403   3.895   3.608   6.402  0.0739 -0.2714  0.5736
  141OSM    O1215404   3.860   3.821   6.294 -0.4378 -0.1043 -0.4030
  141OSM    C1S15405   3.949   3.653   6.529 -0.7028  0.4718 -0.5332
  141OSM    H1S15406   4.042   3.711   6.509 -2.0166  2.7305 -0.1778
  141OSM    H1T15407   3.962   3.559   6.587 -0.1238  2.0910  2.0365
  141OSM     NF15408   3.922   3.776   6.732  0.2876 -0.3511 -0.4181
  141OSM    HNF15409   3.900   3.707   6.801  2.0112 -0.0208  0.4812
  141OSM    C2S15410   3.859   3.742   6.611  0.6004 -0.2353 -0.7832
  141OSM    H2S15411   3.841   3.838   6.558 -2.3821 -0.0750  0.3802
  141OSM    C3S15412   3.720   3.673   6.631 -0.3958  0.7642 -0.2329
  141OSM    H3S15413   3.725   3.597   6.711 -1.2354  1.9432  0.9432
  141OSM     O315414   3.666   3.608   6.511 -0.0770 -0.3043  0.9066
  141OSM    HO315415   3.748   3.616   6.460 -1.4613  0.5186 -1.2491
  141OSM    C4S15416   3.626   3.780   6.667  0.4685 -0.0563 -0.7601
  141OSM    H4S15417   3.609   3.865   6.600 -0.4272 -0.7210 -1.3896
  141OSM    C5S15418   3.546   3.778   6.780  0.3978 -0.0964  0.2853
  141OSM    H5S15419   3.568   3.691   6.844  0.3730 -0.5052 -0.2594
  141OSM    C6S15420   3.453   3.886   6.818 -0.8317  0.8141 -0.4808
  141OSM    H6S15421   3.351   3.841   6.819 -0.7638  0.6657  1.1603
  141OSM    H6T15422   3.461   3.972   6.748 -0.6122  0.7722 -0.5056
  141OSM    C7S15423   3.475   3.953   6.954 -0.1034 -0.1308 -0.5886
  141OSM    H7S15424   3.389   4.022   6.964  0.2045  0.4880 -2.0832
  141OSM    H7T15425   3.564   4.020   6.951 -0.8633  0.9052 -0.0555
  141OSM    C8S15426   3.472   3.860   7.072 -0.6442 -0.1883 -0.6344
  141OSM    H8S15427   3.547   3.780   7.051 -0.4425 -0.3021  0.4762
  141OSM    H8T15428   3.372   3.813   7.069 -0.5029 -0.4901 -0.6223
  141OSM    C9S15429   3.494   3.933   7.207 -0.3950 -0.0122  0.1665
  141OSM    H9S15430   3.412   4.006   7.219 -0.6544  0.0416 -1.7283
  141OSM    H9T15431   3.589   3.989   7.195 -1.3576  1.4687 -0.6325
  141OSM   C10S15432   3.516   3.830   7.316 -0.2306 -0.3169  0.8203
  141OSM   H10S15433   3.612   3.780   7.289 -0.5272 -0.0819 -0.7099
  141OSM   H10T15434   3.437   3.753   7.329 -0.9145  0.3011  0.3767
  141OSM   C11S15435   3.542   3.900   7.449  0.2667  0.2935  0.3729
  141OSM   H11S15436   3.460   3.969   7.479 -0.1462 -0.0984  0.1608
  141OSM   H11T15437   3.641   3.949   7.442  0.3595  0.1882  0.9612
  141OSM   C12S15438   3.550   3.796   7.570 -0.3985  0.8001  0.1065
  141OSM   H12S15439   3.590   3.698   7.539  0.3941  2.0969 -3.2152
  141OSM   H12T15440   3.448   3.791   7.613 -0.4001  1.7489  0.2442
  141OSM   C13S15441   3.647   3.855   7.671 -0.0529 -0.2711 -0.8358
  141OSM   H13S15442   3.610   3.953   7.707 -1.3904 -1.3179  0.7113
  141OSM   H13T15443   3.746   3.874   7.624  0.3193 -0.8786 -0.3011
  141OSM   C14S15444   3.660   3.768   7.801 -0.4412 -0.1246 -0.8512
  141OSM   H14S15445   3.701   3.671   7.766 -1.1128 -0.3166 -1.1123
  141OSM   H14T15446   3.556   3.747   7.832  0.2278 -0.1844  1.4120
  141OSM   C15S15447   3.748   3.824   7.919 -0.5004 -0.3678 -0.4179
  141OSM   H15S15448   3.705   3.921   7.949 -0.3609  0.2595 -2.1937
  141OSM   H15T15449   3.854   3.837   7.888 -0.5597 -2.1082 -1.4198
  141OSM   C16S15450   3.739   3.736   8.040 -1.0543  0.3208 -0.0634
  141OSM   H16S15451   3.766   3.629   8.022 -1.7674  0.0011  0.7116
  141OSM   H16T15452   3.632   3.739   8.068 -0.9639  1.5810  0.1521
  141OSM   C17S15453   3.811   3.803   8.156  0.2784 -0.9265  0.0947
  141OSM   H17S15454   3.770   3.906   8.167  4.5801  0.8942  0.1830
  141OSM   H17T15455   3.915   3.827   8.126  0.1117  1.5600  1.3617
  141OSM   C18S15456   3.811   3.730   8.296  0.2632  0.1770 -0.5210
  141OSM   H18S15457   3.865   3.799   8.364 -0.8887 -0.8094  1.4281
  141OSM   H18T15458   3.847   3.624   8.294  0.5466  0.2495  0.3445
  141OSM   H18U15459   3.711   3.730   8.343  0.3389 -1.6365 -0.3267
  141OSM    C1F15460   4.019   3.867   6.736  0.5037 -0.4002  0.2208
  141OSM     OF15461   4.054   3.920   6.631  0.3596 -0.0646  0.4539
  141OSM    C2F15462   4.090   3.881   6.867  0.1242 -0.0472  0.8162
  141OSM    H2F15463   4.137   3.787   6.902 -3.1881 -1.8221  0.7027
  141OSM    H2G15464   4.018   3.900   6.950 -1.8921 -1.0404 -0.6511
  141OSM    C3F15465   4.200   3.993   6.868 -0.5441  0.5168 -0.4674
  141OSM    H3F15466   4.170   4.100   6.865 -0.4513  0.5347 -0.7449
  141OSM    H3G15467   4.264   3.972   6.779  1.6246 -1.3045  1.4280
  141OSM    C4F15468   4.290   3.978   6.991  0.7063 -0.4274 -0.3270
  141OSM    H4F15469   4.378   4.045   6.982 -0.2626  0.8625 -0.3653
  141OSM    H4G15470   4.334   3.876   6.991  1.7628  0.0222 -0.8426
  141OSM    C5F15471   4.222   3.992   7.128  0.2657 -0.1206  0.6027
  141OSM    H5F15472   4.130   3.931   7.136 -0.7031  1.3656  0.8628
  141OSM    H5G15473   4.191   4.097   7.146 -1.3988 -0.3579 -0.7228
  141OSM    C6F15474   4.323   3.962   7.243  0.2708 -0.0058  0.1106
  141OSM    H6F15475   4.419   4.004   7.207 -0.3369  1.0520 -0.2888
  141OSM    H6G15476   4.344   3.853   7.248  0.9081  0.1110 -0.0213
  141OSM    C7F15477   4.285   4.026   7.376  1.1704 -1.1428 -0.2964
  141OSM    H7F15478   4.181   3.999   7.404  0.7954  1.3124  0.7912
  141OSM    H7G15479   4.286   4.136   7.359 -1.5031 -1.1322 -0.6232
  141OSM    C8F15480   4.379   3.988   7.497  0.9632  0.3233  0.3207
  141OSM    H8F15481   4.477   4.039   7.486  0.9363  0.4273  0.5565
  141OSM    H8G15482   4.384   3.878   7.510 -0.6705 -0.0147 -1.6728
  141OSM    C9F15483   4.316   4.041   7.624  0.2066 -1.1044 -0.0098
  141OSM    H9F15484   4.212   4.007   7.636 -0.2965 -0.3275 -2.1023
  141OSM   C10F15485   4.366   4.122   7.714  0.4022 -0.3350  0.3417
  141OSM   H10F15486   4.295   4.160   7.789 -0.1781  2.3469 -1.4921
  141OSM   C11F15487   4.507   4.185   7.719 -0.1633 -0.3589 -0.2684
  141OSM   H11F15488   4.493   4.280   7.662 -4.2709 -1.6593 -1.5449
  141OSM   H11G15489   4.587   4.117   7.682  1.5781 -0.3903  3.3523
  141OSM   C12F15490   4.536   4.205   7.871  0.1297 -0.3014  0.8354
  141OSM   H12F15491   4.476   4.288   7.914 -0.7135  1.2352 -3.0756
  141OSM   H12G15492   4.642   4.239   7.872  0.4433 -1.1140 -1.4838
  141OSM   C13F15493   4.516   4.079   7.960 -0.1762 -0.3207 -0.4769
  141OSM   H13F15494   4.602   4.012   7.937  0.5100  0.8758 -1.4678
  141OSM   H13G15495   4.419   4.026   7.956 -1.9211  2.3616  3.2576
  141OSM   C14F15496   4.517   4.125   8.111 -0.4409  0.8337  0.2052
  141OSM   H14F15497   4.420   4.172   8.136 -0.2024  1.6942 -0.4833
  141OSM   H14G15498   4.596   4.202   8.116  0.8974 -0.5483  0.8318
  141OSM   C15F15499   4.548   4.014   8.216  0.3422  0.2617  0.1657
  141OSM   H15F15500   4.656   3.988   8.209  0.1224 -0.3234 -1.3932
  141OSM   H15G15501   4.487   3.925   8.189  2.4915 -1.1897 -0.0635
  141OSM   C16F15502   4.506   4.047   8.353  0.1253 -0.3166 -0.7515
  141OSM   H16F15503   4.428   3.978   8.394  1.1329 -0.2808  1.2940
  141OSM   H16G15504   4.462   4.149   8.348 -0.5182 -0.5032  0.8541
  141OSM   C17F15505   4.625   4.046   8.453  0.3864 -0.3783  0.2525
  141OSM   H17F15506   4.697   4.115   8.404  0.1324  0.7742  1.4804
  141OSM   H17G15507   4.675   3.947   8.467  0.8616  0.0957  1.9599
  141OSM   C18F15508   4.585   4.090   8.592  0.6101  0.0419  0.7197
  141OSM   H18F15509   4.516   4.018   8.642 -1.4915  2.2728  1.1139
  141OSM   H18G15510   4.529   4.185   8.584 -1.2853 -1.0359  0.8188
  141OSM   H18H15511   4.671   4.108   8.659 -0.4210  0.5750  1.9350
  142OSM      N15512   3.989   5.280   5.922  0.0361 -0.2813  0.2870
  142OSM    C1515513   3.896   5.249   5.812  0.2707  0.0559  0.0269
  142OSM   H15A15514   3.941   5.252   5.713  0.3331 -1.7530 -0.0309
  142OSM   H15B15515   3.810   5.313   5.818  0.2611 -0.0760  1.4560
  142OSM   H15C15516   3.857   5.149   5.827 -1.1918  0.0594 -3.2226
  142OSM    C1415517   4.096   5.172   5.922 -0.1580  0.1003 -0.3297
  142OSM   H14A15518   4.157   5.191   6.009 -0.2355  0.5668 -0.3810
  142OSM   H14B15519   4.152   5.179   5.831  0.0869 -1.5728 -0.3248
  142OSM   H14C15520   4.049   5.077   5.943  1.3109 -0.6335 -0.2848
  142OSM    C1315521   4.048   5.414   5.896  0.3776  0.1814 -0.1191
  142OSM   H13A15522   4.098   5.425   5.801 -0.3501 -1.1297 -0.6798
  142OSM   H13B15523   4.129   5.434   5.964 -0.2194  0.5329  0.4936
  142OSM   H13C15524   3.973   5.492   5.890  0.5651  0.3221 -0.6743
  142OSM    C1215525   3.914   5.271   6.058 -0.1379  0.7230 -0.2831
  142OSM   H12A15526   3.882   5.167   6.062 -1.3194  1.1262  0.9608
  142OSM   H12B15527   3.821   5.325   6.045 -0.2794  0.2372 -1.4735
  142OSM    C1115528   3.979   5.308   6.193  1.0564  0.2478  0.1605
  142OSM   H11A15529   4.080   5.264   6.206  0.9211 -0.3532 -0.8559
  142OSM   H11B15530   3.912   5.268   6.272 -1.5297  1.8863 -1.1373
  142OSM      P15531   3.872   5.540   6.236 -0.1548  0.1526 -0.4215
  142OSM    O1315532   3.914   5.686   6.234 -0.1900 -0.3281 -0.3075
  142OSM    O1415533   3.751   5.504   6.163 -0.4521 -0.0893  0.1885
  142OSM    O1115534   3.849   5.508   6.388  1.0768 -0.8240 -0.4770
  142OSM    O1215535   3.996   5.452   6.204 -0.4836  0.0729  0.0869
  142OSM    C1S15536   3.957   5.499   6.481 -0.4417 -0.0433  0.3847
  142OSM    H1S15537   4.041   5.568   6.460 -0.6256 -0.6325 -2.5364
  142OSM    H1T15538   3.995   5.394   6.480  0.8919  0.4257  1.0724
  142OSM     NF15539   4.019   5.571   6.711 -0.0398 -0.4505  0.0150
  142OSM    HNF15540   4.044   5.492   6.767  0.9674 -0.6575 -0.7297
  142OSM    C2S15541   3.913   5.536   6.626 -0.4538  0.0953  0.4971
  142OSM    H2S15542   3.846   5.624   6.631 -1.1671 -0.4561  0.8885
  142OSM    C3S15543   3.832   5.415   6.662 -0.4461  0.4099  0.0607
  142OSM    H3S15544   3.903   5.329   6.661  1.1782  1.7351 -0.2641
  142OSM     O315545   3.735   5.375   6.570 -0.1033  0.7104  0.0698
  142OSM    HO315546   3.773   5.406   6.488 -0.8055  0.1910 -0.4612
  142OSM    C4S15547   3.771   5.430   6.793  0.4789 -0.1789 -0.1556
  142OSM    H4S15548   3.838   5.403   6.876  1.9316  2.5149 -0.4079
  142OSM    C5S15549   3.639   5.469   6.825  0.5712 -0.3842 -0.4441
  142OSM    H5S15550   3.575   5.510   6.745  0.1296  2.0107  1.1012
  142OSM    C6S15551   3.588   5.488   6.965  0.4653 -0.9085 -0.2327
  142OSM    H6S15552   3.494   5.430   6.978  0.0220 -0.6408 -2.1196
  142OSM    H6T15553   3.556   5.594   6.977 -0.8390 -1.1681 -1.2855
  142OSM    C7S15554   3.684   5.445   7.079 -0.4661  0.0239  0.4999
  142OSM    H7S15555   3.777   5.506   7.073 -0.9053  0.8092  1.4466
  142OSM    H7T15556   3.697   5.335   7.069  3.4097  0.4836 -0.4072
  142OSM    C8S15557   3.619   5.476   7.214 -0.7614  0.0172  0.4069
  142OSM    H8S15558   3.525   5.419   7.231  0.1865 -1.0323  2.2930
  142OSM    H8T15559   3.597   5.584   7.223  1.9824  0.7317 -1.0880
  142OSM    C9S15560   3.718   5.445   7.329  0.2337  0.6256 -0.0975
  142OSM    H9S15561   3.804   5.510   7.301 -1.4064  3.3158  0.8934
  142OSM    H9T15562   3.752   5.340   7.338 -1.2297  0.3730  3.3405
  142OSM   C10S15563   3.661   5.487   7.466  0.1859  0.0830  0.2866
  142OSM   H10S15564   3.578   5.414   7.479  0.2086  0.0425  0.1981
  142OSM   H10T15565   3.625   5.592   7.466 -2.7577 -0.8627  0.8886
  142OSM   C11S15566   3.768   5.464   7.570 -1.0948 -0.0208 -0.1388
  142OSM   H11S15567   3.846   5.542   7.552 -0.5645 -0.3845  0.5420
  142OSM   H11T15568   3.814   5.363   7.563  2.8390  1.5706  0.8373
  142OSM   C12S15569   3.734   5.489   7.717 -0.8338 -0.0133  0.4601
  142OSM   H12S15570   3.712   5.598   7.720 -0.6552  0.0127  0.8229
  142OSM   H12T15571   3.824   5.457   7.774  0.7864 -0.2269 -2.1182
  142OSM   C13S15572   3.614   5.399   7.764  0.3703 -0.1100 -1.0995
  142OSM   H13S15573   3.638   5.291   7.751 -0.1115 -0.7720  2.9503
  142OSM   H13T15574   3.524   5.423   7.704  0.3640  0.8559 -0.7018
  142OSM   C14S15575   3.584   5.417   7.918  0.4601 -0.2812  0.5832
  142OSM   H14S15576   3.640   5.362   7.997  1.0553 -1.6913 -0.8212
  142OSM   H14T15577   3.482   5.375   7.931  0.0823  0.1048 -1.0327
  142OSM   C15S15578   3.563   5.560   7.966  0.2260  0.2268 -0.2367
  142OSM   H15S15579   3.503   5.608   7.886 -0.0862  1.0195  0.4721
  142OSM   H15T15580   3.652   5.625   7.976  1.8321 -1.8464 -0.6537
  142OSM   C16S15581   3.502   5.576   8.107  0.0272  0.0402  0.5162
  142OSM   H16S15582   3.530   5.498   8.181 -1.4196  1.8559  3.0250
  142OSM   H16T15583   3.395   5.547   8.107  0.8105 -3.1065 -1.6625
  142OSM   C17S15584   3.533   5.715   8.171  0.5468 -0.0463  0.3851
  142OSM   H17S15585   3.460   5.785   8.125 -1.3184 -1.8361  0.5524
  142OSM   H17T15586   3.636   5.750   8.151  0.0935  1.1808  0.1415
  142OSM   C18S15587   3.518   5.704   8.319  0.0555  0.4197 -0.4423
  142OSM   H18S15588   3.419   5.660   8.341 -0.3382  0.3955 -2.2093
  142OSM   H18T15589   3.514   5.798   8.378 -0.3475 -0.4871  1.0059
  142OSM   H18U15590   3.599   5.640   8.363 -0.9631  0.3382  1.3842
  142OSM    C1F15591   4.085   5.684   6.701 -0.3068 -0.3804  0.6064
  142OSM     OF15592   4.047   5.775   6.630  0.0296  0.2604  0.0336
  142OSM    C2F15593   4.220   5.696   6.776 -0.4394  0.0854  0.4731
  142OSM    H2F15594   4.302   5.747   6.721 -1.0526  2.0430  1.3261
  142OSM    H2G15595   4.263   5.595   6.792  0.5357  0.0181 -2.2404
  142OSM    C3F15596   4.204   5.759   6.911  0.0617  0.3021 -0.0549
  142OSM    H3F15597   4.152   5.857   6.906 -2.7650 -1.0819  0.9646
  142OSM    H3G15598   4.299   5.783   6.962  1.1765 -1.6055 -1.1773
  142OSM    C4F15599   4.130   5.690   7.027  0.2162 -0.0126  0.2313
  142OSM    H4F15600   4.170   5.589   7.049  1.5445  0.4210 -0.1542
  142OSM    H4G15601   4.026   5.665   6.996 -0.3631  1.3890  0.9636
  142OSM    C5F15602   4.135   5.776   7.157 -0.1648 -0.2945  0.4480
  142OSM    H5F15603   4.112   5.884   7.143  0.9391  0.0752  1.4267
  142OSM    H5G15604   4.236   5.772   7.202 -0.2792 -1.3765  0.6295
  142OSM    C6F15605   4.045   5.714   7.264  0.6656  0.1204 -0.9130
  142OSM    H6F15606   4.085   5.619   7.304  0.2643  0.7328  0.9689
  142OSM    H6G15607   3.944   5.704   7.218 -0.5321  1.2364  1.4094
  142OSM    C7F15608   4.031   5.815   7.383  0.3286  0.2560  0.4116
  142OSM    H7F15609   3.946   5.781   7.445  0.4675  0.9985  1.0091
  142OSM    H7G15610   4.019   5.916   7.336 -1.8643 -0.2881 -0.2531
  142OSM    C8F15611   4.149   5.822   7.477  0.5598 -0.0488  0.3934
  142OSM    H8F15612   4.131   5.904   7.551 -0.2812  1.2637 -1.2222
  142OSM    H8G15613   4.233   5.847   7.408 -0.9901 -0.2092 -1.5884
  142OSM    C9F15614   4.196   5.697   7.545 -0.2016 -0.1442 -1.0985
  142OSM    H9F15615   4.270   5.635   7.491 -0.0091 -1.3418  0.5055
  142OSM   C10F15616   4.166   5.649   7.668 -0.3047 -0.7804  0.5434
  142OSM   H10F15617   4.196   5.546   7.690 -0.0987 -0.9603 -0.5543
  142OSM   C11F15618   4.063   5.714   7.758  0.0666 -0.2255 -0.3722
  142OSM   H11F15619   3.989   5.633   7.778  1.9420 -1.8554  0.2166
  142OSM   H11G15620   4.007   5.794   7.706 -1.4056  0.1246  1.6728
  142OSM   C12F15621   4.105   5.766   7.896 -0.6853  0.0729  0.1494
  142OSM   H12F15622   4.181   5.845   7.881 -1.5793  0.5207 -2.2122
  142OSM   H12G15623   4.154   5.679   7.945 -1.1538  0.5447  1.4786
  142OSM   C13F15624   3.984   5.812   7.980 -0.0490  0.5997 -0.4330
  142OSM   H13F15625   3.909   5.731   7.963 -0.4235 -0.0186  3.5051
  142OSM   H13G15626   3.972   5.914   7.939 -1.9212  0.7602  0.4233
  142OSM   C14F15627   4.006   5.826   8.134 -1.2256 -0.0993  0.2619
  142OSM   H14F15628   3.967   5.919   8.182  0.4048  1.2324 -0.9167
  142OSM   H14G15629   4.117   5.835   8.139 -1.4309  3.9363 -0.7380
  142OSM   C15F15630   3.964   5.705   8.219  0.1003  0.4764 -0.3917
  142OSM   H15F15631   3.856   5.684   8.203 -0.3073  2.5424 -0.5937
  142OSM   H15G15632   3.970   5.730   8.327 -0.6052  1.4113 -0.5597
  142OSM   C16F15633   4.038   5.569   8.192  0.4196 -0.3734 -0.1368
  142OSM   H16F15634   4.147   5.585   8.207  0.8894 -2.5585 -1.0311
  142OSM   H16G15635   4.038   5.552   8.082 -0.9876  0.5708 -0.2956
  142OSM   C17F15636   3.992   5.451   8.274  1.1281 -0.2963 -0.0040
  142OSM   H17F15637   3.976   5.473   8.382  2.4927 -1.1898  0.4020
  142OSM   H17G15638   4.075   5.377   8.267  0.9864 -0.4203 -0.3707
  142OSM   C18F15639   3.864   5.389   8.216  0.4318  0.0318 -0.3418
  142OSM   H18F15640   3.882   5.348   8.114  2.8320  0.7519 -0.2196
  142OSM   H18G15641   3.789   5.471   8.213  0.6173  0.3352  2.4639
  142OSM   H18H15642   3.838   5.308   8.288  1.0950  0.4289  0.3495
  143OSM      N15643   0.001   2.086   6.334  0.2915  0.4422 -0.8641
  143OSM    C1515644   0.088   1.999   6.419  0.1493 -0.2730 -0.2939
  143OSM   H15A15645   0.077   1.896   6.390  0.8605 -0.1995 -0.8396
  143OSM   H15B15646   0.064   2.007   6.524  0.6122 -1.7155 -0.0656
  143OSM   H15C15647   0.191   2.028   6.400 -0.3208  0.2740 -2.0284
  143OSM    C1415648   0.064   2.217   6.314  0.0285 -0.2742 -0.7452
  143OSM   H14A15649   0.167   2.198   6.287  0.5338 -0.6473  1.3479
  143OSM   H14B15650   0.064   2.283   6.400  0.9180 -0.6348 -0.4584
  143OSM   H14C15651   0.002   2.271   6.244 -0.8524  1.2299  1.1333
  143OSM    C1315652   0.000   2.020   6.197 -0.3289 -0.5566 -0.3973
  143OSM   H13A15653  -0.041   1.922   6.215 -1.6329  0.2876  1.3336
  143OSM   H13B15654   0.101   2.007   6.161 -0.0783 -1.4198  0.6213
  143OSM   H13C15655  -0.073   2.065   6.130 -1.4840 -1.2213  0.4085
  143OSM    C1215656  -0.135   2.104   6.397  0.0989  0.3823  0.5961
  143OSM   H12A15657  -0.182   2.183   6.341  1.1832  0.9978  0.5530
  143OSM   H12B15658  -0.119   2.122   6.502  0.5942  1.4102  0.3433
  143OSM    C1115659  -0.230   1.979   6.393 -0.4046  0.0744  0.3605
  143OSM   H11A15660  -0.323   2.015   6.442 -0.0762 -0.3153  1.2835
  143OSM   H11B15661  -0.182   1.901   6.456 -1.0533 -0.2538  0.4563
  143OSM      P15662  -0.344   1.812   6.218  0.0541 -0.3167  0.0896
  143OSM    O1315663  -0.453   1.873   6.132 -0.1102 -0.7860  0.4906
  143OSM    O1415664  -0.257   1.701   6.174  0.3885 -0.6525  0.4114
  143OSM    O1115665  -0.416   1.757   6.351 -0.0831 -0.3348 -0.4855
  143OSM    O1215666  -0.255   1.932   6.265  0.0878 -0.4434 -0.4516
  143OSM    C1S15667  -0.342   1.672   6.444 -0.7342 -0.1122  0.0574
  143OSM    H1S15668  -0.236   1.703   6.463 -0.5916 -0.8305  0.4285
  143OSM    H1T15669  -0.331   1.576   6.390 -1.4890 -0.0138 -0.2714
  143OSM     NF15670  -0.335   1.576   6.672 -0.2840  0.3560  0.3494
  143OSM    HNF15671  -0.368   1.485   6.694  0.6454 -0.3276 -1.0331
  143OSM    C2S15672  -0.417   1.650   6.584  0.0255 -0.2519 -0.4553
  143OSM    H2S15673  -0.429   1.753   6.625 -1.7709 -1.2442  1.6115
  143OSM    C3S15674  -0.559   1.591   6.562  0.3663 -0.0263  0.7462
  143OSM    H3S15675  -0.537   1.483   6.546 -0.2770  0.2685 -2.3346
  143OSM     O315676  -0.627   1.632   6.443  0.6071  0.2286 -0.1059
  143OSM    HO315677  -0.556   1.679   6.400 -0.3859  2.6722  0.8182
  143OSM    C4S15678  -0.633   1.600   6.694  0.6001  0.0765  1.2039
  143OSM    H4S15679  -0.628   1.505   6.750  0.9767 -1.3899 -1.2704
  143OSM    C5S15680  -0.715   1.701   6.727 -0.1601  0.4981  0.1132
  143OSM    H5S15681  -0.721   1.785   6.656 -0.5458 -1.0510 -1.7194
  143OSM    C6S15682  -0.805   1.689   6.854 -0.4138  0.0653  0.3609
  143OSM    H6S15683  -0.901   1.637   6.834 -0.1323  0.1883 -1.3400
  143OSM    H6T15684  -0.845   1.788   6.882 -0.6610  0.9350 -2.8886
  143OSM    C7S15685  -0.734   1.630   6.972  0.2113 -0.1716  0.3594
  143OSM    H7S15686  -0.652   1.696   7.008  1.0979  0.3294 -2.4952
  143OSM    H7T15687  -0.686   1.531   6.957  3.1637  0.8607  2.3739
  143OSM    C8S15688  -0.821   1.589   7.085  0.6268  0.1398 -0.3017
  143OSM    H8S15689  -0.913   1.544   7.041  0.9808  0.0906 -0.9956
  143OSM    H8T15690  -0.861   1.680   7.137 -1.0714 -0.8566  0.1758
  143OSM    C9S15691  -0.751   1.478   7.177 -0.1636  0.3791 -0.0691
  143OSM    H9S15692  -0.666   1.524   7.231  0.0309  1.3237 -1.1498
  143OSM    H9T15693  -0.723   1.387   7.120  1.0946  0.0821  1.0063
  143OSM   C10S15694  -0.850   1.424   7.278  0.4819 -0.4333 -0.1047
  143OSM   H10S15695  -0.928   1.367   7.222  1.4237 -0.6467 -1.2105
  143OSM   H10T15696  -0.891   1.516   7.325 -1.4609 -0.3466 -1.8757
  143OSM   C11S15697  -0.785   1.346   7.395  0.2246 -0.5828 -0.0825
  143OSM   H11S15698  -0.698   1.398   7.440 -0.1698 -0.3543  0.4177
  143OSM   H11T15699  -0.734   1.256   7.353  0.4087  0.0095 -1.1274
  143OSM   C12S15700  -0.885   1.301   7.499  0.5821  0.2397  0.8135
  143OSM   H12S15701  -0.932   1.205   7.468  1.4550 -0.7982  2.6321
  143OSM   H12T15702  -0.953   1.385   7.525 -0.8678 -1.1086  1.4509
  143OSM   C13S15703  -0.820   1.260   7.632  0.4877 -0.2570  0.0301
  143OSM   H13S15704  -0.770   1.352   7.670  1.9061 -0.9457 -0.1292
  143OSM   H13T15705  -0.743   1.187   7.599 -1.8026 -1.8638 -1.8600
  143OSM   C14S15706  -0.918   1.197   7.736 -0.1853 -0.0706  0.2987
  143OSM   H14S15707  -0.962   1.107   7.687  0.3056  0.1853 -0.6071
  143OSM   H14T15708  -0.993   1.274   7.764  0.4752  0.2253  1.2809
  143OSM   C15S15709  -0.850   1.142   7.862 -0.2526  0.7909  0.0605
  143OSM   H15S15710  -0.781   1.221   7.900 -1.1556  1.4669  0.3209
  143OSM   H15T15711  -0.781   1.061   7.831 -1.6827 -0.2517 -0.4482
  143OSM   C16S15712  -0.936   1.101   7.978 -0.0270  0.5020 -0.3682
  143OSM   H16S15713  -1.016   1.032   7.944  0.0530 -0.2883  0.9913
  143OSM   H16T15714  -0.986   1.189   8.023 -0.7432 -0.6608  1.1774
  143OSM   C17S15715  -0.859   1.029   8.088 -0.2445 -0.3899 -0.4060
  143OSM   H17S15716  -0.815   1.085   8.173 -2.0034  0.6766 -0.1669
  143OSM   H17T15717  -0.780   0.963   8.045  2.2816  1.0138  1.9148
  143OSM   C18S15718  -0.965   0.943   8.163 -0.0777 -0.5605 -0.3088
  143OSM   H18S15719  -1.022   0.897   8.080 -1.4274 -0.2546  0.4326
  143OSM   H18T15720  -1.034   1.015   8.212 -1.4119 -1.7131 -0.4789
  143OSM   H18U15721  -0.926   0.868   8.235  1.1404  0.8875  0.5660
  143OSM    C1F15722  -0.221   1.615   6.729 -0.1443 -0.2443 -0.1366
  143OSM     OF15723  -0.182   1.728   6.707  0.4705  0.1474 -0.1375
  143OSM    C2F15724  -0.154   1.514   6.824  0.3118 -0.2474 -0.2345
  143OSM    H2F15725  -0.104   1.437   6.761 -1.2969 -1.0726 -0.5223
  143OSM    H2G15726  -0.232   1.460   6.882  1.5078 -1.1380  0.5602
  143OSM    C3F15727  -0.059   1.583   6.925 -0.0337 -0.4235  0.2728
  143OSM    H3F15728  -0.128   1.622   7.003  1.4158  1.7087  0.5226
  143OSM    H3G15729   0.006   1.654   6.870  1.2659 -2.6393 -1.1378
  143OSM    C4F15730   0.039   1.489   6.999 -0.1152  0.0992  0.7669
  143OSM    H4F15731   0.106   1.542   7.070  0.9452  0.6373 -0.5981
  143OSM    H4G15732   0.108   1.436   6.929  0.1051  1.7830 -0.3251
  143OSM    C5F15733  -0.040   1.394   7.096 -0.1255 -0.3752  0.3708
  143OSM    H5F15734   0.009   1.295   7.105  0.2098 -0.2196  0.2940
  143OSM    H5G15735  -0.135   1.381   7.041 -0.5392  1.8148  0.5296
  143OSM    C6F15736  -0.074   1.454   7.235  0.7568  0.2383 -0.2340
  143OSM    H6F15737  -0.145   1.540   7.235  0.4475 -0.0126 -1.1331
  143OSM    H6G15738   0.025   1.495   7.267 -0.1289  2.8897 -0.7228
  143OSM    C7F15739  -0.120   1.361   7.344  0.1448 -0.0954  0.3893
  143OSM    H7F15740  -0.043   1.281   7.350 -0.4727 -0.8177 -1.2097
  143OSM    H7G15741  -0.217   1.318   7.311  1.1443  0.3404 -3.2778
  143OSM    C8F15742  -0.148   1.414   7.482 -0.1726  0.4802 -0.1471
  143OSM    H8F15743  -0.058   1.467   7.520 -0.2670 -0.4293  1.3665
  143OSM    H8G15744  -0.163   1.336   7.559  2.3966  0.2355  0.1626
  143OSM    C9F15745  -0.266   1.504   7.492 -0.0945 -0.9737  0.2796
  143OSM    H9F15746  -0.287   1.582   7.417 -1.9023 -1.1394  0.5884
  143OSM   C10F15747  -0.360   1.501   7.591  0.1799 -1.0433  1.0067
  143OSM   H10F15748  -0.440   1.576   7.587  0.0419 -1.2583 -0.9989
  143OSM   C11F15749  -0.360   1.417   7.718  0.6603  1.0267 -0.2981
  143OSM   H11F15750  -0.410   1.471   7.801 -0.0965 -1.9836  1.2768
  143OSM   H11G15751  -0.256   1.389   7.745  0.6380  1.3284  0.0969
  143OSM   C12F15752  -0.454   1.295   7.700  0.5268 -0.4527 -0.4543
  143OSM   H12F15753  -0.391   1.229   7.636  1.6034 -1.5558  1.6862
  143OSM   H12G15754  -0.548   1.327   7.651  1.1136  0.6509 -0.8927
  143OSM   C13F15755  -0.482   1.216   7.825  0.2196 -0.3962 -0.7774
  143OSM   H13F15756  -0.529   1.117   7.805 -0.3473  0.2833 -2.9600
  143OSM   H13G15757  -0.547   1.283   7.884  0.8890 -0.8361  0.4774
  143OSM   C14F15758  -0.361   1.186   7.899 -0.2226  0.0561 -0.3195
  143OSM   H14F15759  -0.314   1.281   7.933  1.1141 -1.4626  2.3368
  143OSM   H14G15760  -0.279   1.135   7.843  1.4089  1.7974  0.4222
  143OSM   C15F15761  -0.378   1.116   8.039 -0.5885 -0.9329  1.2510
  143OSM   H15F15762  -0.401   1.008   8.028 -0.2526 -0.8059 -0.7994
  143OSM   H15G15763  -0.430   1.160   8.127  2.5046 -0.0704  2.7166
  143OSM   C16F15764  -0.241   1.118   8.118 -0.2688  0.3491 -1.0918
  143OSM   H16F15765  -0.268   1.082   8.220  0.3032  1.6327 -0.4792
  143OSM   H16G15766  -0.204   1.222   8.122  1.3953 -0.2243 -1.1884
  143OSM   C17F15767  -0.134   1.031   8.061 -1.1392 -0.0607  0.1567
  143OSM   H17F15768  -0.120   1.057   7.953  1.2771  0.3968  0.5469
  143OSM   H17G15769  -0.150   0.921   8.060 -0.5111 -0.1542  0.2183
  143OSM   C18F15770   0.002   1.048   8.139 -0.2807 -0.5119 -0.0049
  143OSM   H18F15771  -0.024   1.003   8.237  1.6739  0.3374  0.9101
  143OSM   H18G15772   0.051   1.148   8.139  2.3274 -1.7676  1.2635
  143OSM   H18H15773   0.077   0.981   8.093 -1.3730 -0.0667 -2.5671
  144OSM      N15774   4.934   0.710   5.876  0.3065 -0.7100 -0.5355
  144OSM    C1515775   4.801   0.660   5.912 -0.7384 -0.6975 -0.8158
  144OSM   H15A15776   4.807   0.568   5.968 -0.5769 -1.1977 -1.6470
  144OSM   H15B15777   4.744   0.644   5.822  1.1208  3.1422 -2.8071
  144OSM   H15C15778   4.765   0.739   5.977  2.0582 -0.7558  0.8429
  144OSM    C1415779   4.977   0.660   5.742 -0.2491  0.1534 -0.2860
  144OSM   H14A15780   4.907   0.673   5.662 -1.2919  0.9754  0.7345
  144OSM   H14B15781   5.006   0.556   5.749  1.2735  0.4565 -1.8486
  144OSM   H14C15782   5.074   0.700   5.714 -0.1703 -0.6403 -1.1510
  144OSM    C1315783   4.924   0.860   5.849  0.4638  0.2331  0.3869
  144OSM   H13A15784   5.016   0.893   5.803  0.6293  0.4074  0.8397
  144OSM   H13B15785   4.907   0.910   5.944 -0.6711  0.9877 -0.1969
  144OSM   H13C15786   4.836   0.880   5.790  1.7907  1.6644 -1.1395
  144OSM    C1215787   5.040   0.673   5.981  1.0703  0.5722  0.3827
  144OSM   H12A15788   5.005   0.733   6.065  0.7457  2.1549 -0.8544
  144OSM   H12B15789   5.140   0.698   5.949  0.8554 -0.9383 -1.4974
  144OSM    C1115790   5.049   0.526   6.028 -0.1065  0.1449 -0.4706
  144OSM   H11A15791   5.148   0.516   6.078 -1.1150  3.9503  2.5407
  144OSM   H11B15792   5.047   0.457   5.941  0.3034  0.2425 -0.5582
  144OSM      P15793   4.914   0.546   6.250  0.3075  0.0686 -0.3541
  144OSM    O1315794   4.867   0.687   6.248  0.9264  0.5633 -0.1655
  144OSM    O1415795   4.828   0.449   6.313 -0.0289  0.6160 -0.2643
  144OSM    O1115796   5.054   0.557   6.326  0.7681 -0.1461 -0.0717
  144OSM    O1215797   4.940   0.484   6.111 -0.1904  0.3332 -0.1632
  144OSM    C1S15798   5.064   0.586   6.461 -0.3328 -0.6896  0.5238
  144OSM    H1S15799   4.978   0.648   6.495 -0.0454  0.7732 -1.2889
  144OSM    H1T15800   5.160   0.639   6.480  0.8495 -1.9273 -1.7366
  144OSM     NF15801   5.030   0.492   6.684  0.3879 -0.3805  0.2608
  144OSM    HNF15802   5.106   0.505   6.747 -1.1324  0.0849  2.0770
  144OSM    C2S15803   5.068   0.458   6.549 -0.2560  0.4871  0.6417
  144OSM    H2S15804   4.992   0.388   6.507  0.4373 -1.7949  3.0567
  144OSM    C3S15805   5.203   0.392   6.537 -0.9946 -0.0924  0.2683
  144OSM    H3S15806   5.284   0.466   6.555  0.5048 -1.7926  0.6938
  144OSM     O315807   5.237   0.346   6.405  0.4997  0.2060  0.5517
  144OSM    HO315808   5.184   0.391   6.339 -1.7185 -3.8040 -0.6010
  144OSM    C4S15809   5.217   0.275   6.629 -1.1571 -0.6088 -0.4212
  144OSM    H4S15810   5.143   0.196   6.612  1.5487 -2.9494 -1.7690
  144OSM    C5S15811   5.303   0.277   6.731 -0.0160  0.2354 -0.3237
  144OSM    H5S15812   5.363   0.366   6.757  0.8423 -0.2437 -0.6431
  144OSM    C6S15813   5.301   0.173   6.840  0.3509  0.6594 -0.0611
  144OSM    H6S15814   5.403   0.135   6.862  0.0764  0.5381  1.0411
  144OSM    H6T15815   5.246   0.085   6.800 -1.1172  1.2061  0.7165
  144OSM    C7S15816   5.237   0.217   6.972 -0.3823  0.1307 -0.5350
  144OSM    H7S15817   5.305   0.282   7.031  0.8099 -2.2938  0.8135
  144OSM    H7T15818   5.228   0.125   7.033 -0.1337  1.4402  1.4969
  144OSM    C8S15819   5.097   0.283   6.969 -0.2873 -0.1584  0.2957
  144OSM    H8S15820   5.033   0.225   6.900  0.2577 -0.5420  0.1061
  144OSM    H8T15821   5.130   0.379   6.923 -0.6049 -0.6449 -0.9744
  144OSM    C9S15822   5.018   0.290   7.100 -0.6588 -0.6990 -0.0590
  144OSM    H9S15823   4.999   0.185   7.129 -0.8324 -0.7276 -0.2766
  144OSM    H9T15824   4.917   0.333   7.081 -2.1207 -2.9169  2.3492
  144OSM   C10S15825   5.073   0.374   7.216 -0.5491  0.5758 -0.8732
  144OSM   H10S15826   5.077   0.482   7.193  1.5744  0.5888 -0.5676
  144OSM   H10T15827   5.181   0.352   7.232 -1.0102 -1.6191 -0.5672
  144OSM   C11S15828   4.999   0.358   7.354  0.7145  0.4531 -0.6943
  144OSM   H11S15829   5.060   0.411   7.431 -0.4053  0.7845 -0.0196
  144OSM   H11T15830   4.974   0.253   7.378 -0.6800  0.5773 -1.5761
  144OSM   C12S15831   4.863   0.427   7.365  0.0264 -0.3578  0.1734
  144OSM   H12S15832   4.804   0.399   7.275  1.1678  2.0938 -1.3810
  144OSM   H12T15833   4.881   0.537   7.361 -2.6054  0.0616 -0.4927
  144OSM   C13S15834   4.777   0.406   7.485  0.1467 -0.5098 -0.6776
  144OSM   H13S15835   4.726   0.311   7.462  0.8118 -0.1198 -3.9822
  144OSM   H13T15836   4.708   0.493   7.479  1.9204  1.0909  0.8927
  144OSM   C14S15837   4.831   0.406   7.624 -0.1397  0.3165  0.0999
  144OSM   H14S15838   4.896   0.496   7.625  0.5702 -0.1320 -2.8789
  144OSM   H14T15839   4.894   0.316   7.645  1.9983  1.4584 -1.2150
  144OSM   C15S15840   4.723   0.412   7.735 -0.5157  0.5615 -0.6501
  144OSM   H15S15841   4.653   0.328   7.715  3.1515 -2.7638 -0.1061
  144OSM   H15T15842   4.655   0.498   7.719 -0.3405  0.3352 -2.6596
  144OSM   C16S15843   4.769   0.421   7.885 -0.3305  0.7480 -0.1713
  144OSM   H16S15844   4.828   0.515   7.896  1.1529 -0.0503 -1.1783
  144OSM   H16T15845   4.838   0.342   7.919 -0.5411  0.4273 -0.4794
  144OSM   C17S15846   4.645   0.428   7.978 -0.2262  0.1591  0.6996
  144OSM   H17S15847   4.581   0.345   7.942  1.2381 -1.0295  0.7538
  144OSM   H17T15848   4.613   0.533   7.963  0.4048  0.0502 -1.6057
  144OSM   C18S15849   4.667   0.396   8.128 -0.3389 -0.0943 -0.6452
  144OSM   H18S15850   4.732   0.307   8.142 -1.9073 -1.0433  0.8415
  144OSM   H18T15851   4.565   0.366   8.159  0.5468 -1.2377  1.3116
  144OSM   H18U15852   4.717   0.474   8.190  2.2214 -3.5339  1.8054
  144OSM    C1F15853   4.906   0.525   6.717 -0.1710  0.0468 -0.6126
  144OSM     OF15854   4.811   0.483   6.655  0.1765  0.1324 -0.1338
  144OSM    C2F15855   4.900   0.596   6.851  0.0121 -0.3745  0.8255
  144OSM    H2F15856   4.956   0.691   6.838  1.0668 -0.6868  2.7613
  144OSM    H2G15857   4.957   0.538   6.927 -0.5474 -0.0544  1.4947
  144OSM    C3F15858   4.764   0.631   6.904 -0.3111  0.3003 -0.4441
  144OSM    H3F15859   4.693   0.546   6.895 -0.5489  0.4649 -0.1695
  144OSM    H3G15860   4.740   0.727   6.853 -0.1782  0.0874 -0.9060
  144OSM    C4F15861   4.768   0.663   7.051  0.5763 -0.1521 -0.0520
  144OSM    H4F15862   4.838   0.745   7.076 -2.5790  2.5651  0.3016
  144OSM    H4G15863   4.801   0.580   7.117  1.0927  1.2960  1.5422
  144OSM    C5F15864   4.624   0.705   7.094  0.7808 -0.5928 -0.3331
  144OSM    H5F15865   4.552   0.622   7.080  1.0917 -0.5961 -1.9991
  144OSM    H5G15866   4.602   0.795   7.032 -1.1023 -0.3319  0.6895
  144OSM    C6F15867   4.616   0.744   7.245 -0.3683  0.3964 -0.2185
  144OSM    H6F15868   4.690   0.822   7.270  0.2376 -0.0012 -0.7678
  144OSM    H6G15869   4.653   0.653   7.296 -0.8537  1.5399  2.2251
  144OSM    C7F15870   4.475   0.781   7.284  0.1987 -0.6949 -0.0731
  144OSM    H7F15871   4.395   0.721   7.235 -0.2106 -0.0221 -0.2526
  144OSM    H7G15872   4.439   0.882   7.253 -0.0251 -0.7391  0.0400
  144OSM    C8F15873   4.453   0.750   7.435  0.4057  0.1866 -0.0605
  144OSM    H8F15874   4.476   0.643   7.452  0.7325 -0.0877 -2.0914
  144OSM    H8G15875   4.343   0.749   7.449  0.6145  3.2466  2.4945
  144OSM    C9F15876   4.519   0.842   7.538 -0.0264  0.5919  0.7279
  144OSM    H9F15877   4.609   0.896   7.506  0.2117 -0.0369  0.3494
  144OSM   C10F15878   4.464   0.860   7.658 -0.2128  0.7459  0.7562
  144OSM   H10F15879   4.501   0.940   7.724  2.5459  1.8093 -1.9423
  144OSM   C11F15880   4.341   0.792   7.719  0.0574 -0.0218  0.0267
  144OSM   H11F15881   4.350   0.682   7.712 -0.5236  0.0767 -2.5932
  144OSM   H11G15882   4.253   0.817   7.656  1.0333  3.2071 -0.1832
  144OSM   C12F15883   4.321   0.827   7.872 -0.0319 -0.1130  0.1289
  144OSM   H12F15884   4.218   0.789   7.890 -1.0309  1.6374 -1.7278
  144OSM   H12G15885   4.312   0.937   7.879  1.8794  0.1515 -1.4143
  144OSM   C13F15886   4.394   0.754   7.986  0.0400  0.7366 -0.3341
  144OSM   H13F15887   4.491   0.798   8.019  0.6113 -1.3276  0.8005
  144OSM   H13G15888   4.408   0.652   7.944  1.5692  1.2092 -1.0372
  144OSM   C14F15889   4.316   0.743   8.113  0.7966  0.5435 -0.6296
  144OSM   H14F15890   4.209   0.729   8.088  0.7558 -1.6447  0.5438
  144OSM   H14G15891   4.325   0.841   8.165  0.4100  0.5318 -0.5378
  144OSM   C15F15892   4.350   0.623   8.195  0.3206 -0.1657 -0.1382
  144OSM   H15F15893   4.460   0.615   8.206  0.2159 -0.3969  0.6928
  144OSM   H15G15894   4.308   0.531   8.150 -1.3775 -0.3248  1.7069
  144OSM   C16F15895   4.299   0.641   8.340  0.5200  0.1865 -0.8050
  144OSM   H16F15896   4.306   0.745   8.378 -0.0499  0.9759 -2.7772
  144OSM   H16G15897   4.366   0.577   8.401 -0.0512  1.0914  0.7980
  144OSM   C17F15898   4.148   0.597   8.353  0.7512 -0.3799 -1.0844
  144OSM   H17F15899   4.141   0.495   8.309 -0.2372 -0.1130 -1.5651
  144OSM   H17G15900   4.090   0.657   8.279  0.8318 -0.2935 -1.0773
  144OSM   C18F15901   4.079   0.620   8.492 -0.1814  0.2611  0.0606
  144OSM   H18F15902   3.985   0.561   8.497  0.1661 -0.2814  0.4231
  144OSM   H18G15903   4.061   0.728   8.504 -0.7217  0.0193  1.5629
  144OSM   H18H15904   4.138   0.576   8.576 -0.9045  1.5326  1.2492
  145SAPE     N15905   2.776   1.137  10.590 -0.0645  0.7228  0.1395
  145SAPE   HN115906   2.878   1.119  10.604 -0.2686 -1.0957 -0.5487
  145SAPE   HN215907   2.713   1.090  10.658 -0.8185  1.7785  0.1829
  145SAPE   HN315908   2.762   1.092  10.497  0.3528 -0.4740  0.6489
  145SAPE   C1215909   2.748   1.283  10.588 -0.2961 -0.4124  0.0705
  145SAPE  H12A15910   2.783   1.310  10.690 -2.8744 -2.3733  1.5445
  145SAPE  H12B15911   2.638   1.294  10.572 -0.3335 -1.5447 -0.5411
  145SAPE   C1115912   2.831   1.344  10.476  0.7104 -0.0557  0.5167
  145SAPE  H11A15913   2.805   1.450  10.453  3.2083  0.7790  1.3989
  145SAPE  H11B15914   2.816   1.298  10.376 -1.9357 -1.9162  1.7108
  145SAPE     P15915   3.068   1.443  10.565  0.1141  0.4829 -0.1749
  145SAPE   O1315916   3.030   1.468  10.708  0.1328  0.4402  0.1567
  145SAPE   O1415917   3.213   1.419  10.540 -0.1112  0.6509 -0.0387
  145SAPE   O1215918   2.976   1.327  10.503  0.3122  0.3338  0.2838
  145SAPE   O1115919   3.027   1.564  10.478 -0.5465  0.5203  0.1611
  145SAPE    C115920   3.038   1.574  10.338 -0.2374 -0.5366 -0.1096
  145SAPE    HA15921   3.049   1.474  10.291  1.4272 -0.3047 -0.2217
  145SAPE    HB15922   2.936   1.601  10.300 -1.0857 -1.7937  1.2537
  145SAPE    C215923   3.146   1.672  10.282 -0.6739  0.5176  0.6878
  145SAPE    HS15924   3.240   1.638  10.329  0.0755  1.7345  0.0862
  145SAPE   O2115925   3.117   1.812  10.321  0.5177  0.2418 -0.1074
  145SAPE   C2115926   3.221   1.891  10.322  0.2246  0.1468  0.1516
  145SAPE   O2215927   3.334   1.864  10.284 -0.5194  0.1899 -0.6545
  145SAPE   C2215928   3.187   2.034  10.370  0.8268 -0.5868  1.0845
  145SAPE   H2R15929   3.077   2.045  10.358  0.5298 -3.3619  0.9196
  145SAPE   H2S15930   3.219   2.038  10.476  0.9732  1.8862  0.9726
  145SAPE    C315931   3.182   1.654  10.131  0.0512  0.1729 -0.2094
  145SAPE    HX15932   3.268   1.715  10.096  1.5493 -0.5388  2.1390
  145SAPE    HY15933   3.085   1.691  10.090 -0.8718 -0.6622  1.1836
  145SAPE   O3115934   3.202   1.520  10.076  0.0489 -0.6258 -0.0442
  145SAPE   C3115935   3.335   1.486  10.060  0.0422  0.3009  0.2425
  145SAPE   O3215936   3.424   1.555  10.105  0.0705 -0.6396 -0.4094
  145SAPE   C3215937   3.351   1.353   9.990 -1.5031  0.3463 -0.4921
  145SAPE   H2X15938   3.274   1.284  10.031 -0.8900  0.2882  0.5783
  145SAPE   H2Y15939   3.452   1.312  10.012 -1.6112  0.0955 -0.4529
  145SAPE   C2315940   3.246   2.149  10.281 -0.1429  0.6807 -0.3329
  145SAPE   H3R15941   3.353   2.129  10.261 -0.5466 -0.6995 -1.2077
  145SAPE   H3S15942   3.229   2.244  10.335  0.8787  1.4951 -1.4306
  145SAPE   C2415943   3.172   2.170  10.147  0.2318 -0.2683  0.0115
  145SAPE   H4R15944   3.066   2.182  10.181  0.5012  3.5701 -0.3303
  145SAPE   H4S15945   3.169   2.079  10.084 -1.0969  0.4902 -1.0545
  145SAPE   C2515946   3.229   2.293  10.081  0.3956  0.3470  0.0377
  145SAPE   H5R15947   3.304   2.347  10.140  0.9455  0.3198 -0.6338
  145SAPE   C2615948   3.208   2.330   9.949  0.2283 -0.3253  1.1294
  145SAPE   H6R15949   3.260   2.419   9.913  0.1277 -0.7657 -0.1196
  145SAPE   C2715950   3.116   2.264   9.846 -0.4194 -0.5166  0.3090
  145SAPE   H7R15951   3.041   2.340   9.813  1.0304  1.5707  1.7210
  145SAPE   H7S15952   3.055   2.192   9.905 -1.5047 -0.0842 -0.2506
  145SAPE   C2815953   3.191   2.201   9.729  0.1716  0.3608  0.0993
  145SAPE   H8R15954   3.285   2.152   9.757 -0.1246 -0.1421  0.2047
  145SAPE   C2915955   3.149   2.186   9.602 -0.3334 -0.6515 -0.6172
  145SAPE   H9R15956   3.219   2.161   9.520  0.3482  1.3799 -0.7010
  145SAPE  C21015957   3.016   2.228   9.552  0.4346 -0.4478 -0.3168
  145SAPE  H10R15958   3.035   2.327   9.505 -0.5397 -0.8353 -1.5716
  145SAPE  H10S15959   2.946   2.249   9.636  0.4424  0.2500 -0.4805
  145SAPE  C21115960   2.936   2.135   9.460 -0.4650  0.1830 -0.7062
  145SAPE  H11R15961   2.884   2.057   9.518  1.6292 -1.1301 -0.5102
  145SAPE  C21215962   2.915   2.132   9.329  0.0498  0.6494  0.2729
  145SAPE  H12R15963   2.847   2.057   9.287  2.8305 -2.3806  0.9496
  145SAPE  C21315964   2.974   2.230   9.235  0.0110  0.4642  0.0604
  145SAPE  H13R15965   3.003   2.167   9.148 -3.0885  0.0510 -0.7078
  145SAPE  H13S15966   3.067   2.278   9.274 -0.6723  1.4824  0.4700
  145SAPE  C21415967   2.878   2.328   9.181 -0.0024 -0.4229  0.3176
  145SAPE  H14R15968   2.888   2.424   9.233  1.1671 -2.4300  3.9244
  145SAPE  C21515969   2.794   2.302   9.083 -0.2784  0.7261 -0.0970
  145SAPE  H15R15970   2.732   2.385   9.045  0.1123  1.3875  0.6946
  145SAPE  C21615971   2.776   2.174   9.007 -0.0615 -0.3033 -0.3048
  145SAPE  H16R15972   2.693   2.112   9.047 -1.2235 -0.3685 -2.7415
  145SAPE  H16S15973   2.864   2.106   9.015 -0.5409 -0.7095  1.7817
  145SAPE  C21715974   2.742   2.202   8.857  0.1358 -0.9706 -0.0146
  145SAPE  H17R15975   2.759   2.103   8.810 -0.8287 -1.2869  0.2902
  145SAPE  H17S15976   2.800   2.279   8.803 -1.8964 -0.4734 -1.5706
  145SAPE  C21815977   2.591   2.226   8.846 -0.7045  0.1769 -0.0379
  145SAPE  H18R15978   2.568   2.323   8.895  0.5728 -0.2407  1.4199
  145SAPE  H18S15979   2.533   2.139   8.884  0.5525 -1.1464 -1.0859
  145SAPE  C21915980   2.546   2.233   8.696  0.1756 -0.0593  0.0588
  145SAPE  H19R15981   2.443   2.271   8.714  0.7448  1.4628  0.1348
  145SAPE  H19S15982   2.532   2.131   8.655 -1.1821 -0.3660  1.2398
  145SAPE  C22015983   2.625   2.332   8.610  0.0453  0.0739  0.3214
  145SAPE  H20R15984   2.560   2.370   8.528  3.0747  1.5795 -1.4468
  145SAPE  H20S15985   2.715   2.286   8.565 -1.1579 -3.6709  1.5747
  145SAPE  H20T15986   2.652   2.421   8.671  1.4238 -0.5120  0.5871
  145SAPE   C3315987   3.330   1.356   9.830 -0.7480 -0.1093  0.2673
  145SAPE   H3X15988   3.233   1.409   9.816 -1.2251 -1.5760 -2.1302
  145SAPE   H3Y15989   3.321   1.257   9.781  3.4777  0.0926 -1.0868
  145SAPE   C3415990   3.433   1.448   9.761 -0.1987 -0.2607  0.4622
  145SAPE   H4X15991   3.535   1.422   9.798  0.0440  1.2541  0.8920
  145SAPE   H4Y15992   3.424   1.554   9.790  0.4526  0.1275 -0.6987
  145SAPE   C3515993   3.441   1.421   9.608 -0.3656  0.2176 -0.1631
  145SAPE   H5X15994   3.345   1.441   9.556  0.4422 -1.3136 -2.2728
  145SAPE   H5Y15995   3.480   1.319   9.590  0.2099  0.2279  0.9631
  145SAPE   C3615996   3.533   1.518   9.527  0.6728 -0.2219 -0.2332
  145SAPE   H6X15997   3.629   1.528   9.583  0.0352 -0.0712  0.8463
  145SAPE   H6Y15998   3.483   1.617   9.528 -1.4194 -1.2624 -0.0520
  145SAPE   C3715999   3.567   1.478   9.384  0.0748  0.0941 -0.1470
  145SAPE   H7X16000   3.475   1.471   9.322  1.2730 -1.4428 -1.7914
  145SAPE   H7Y16001   3.600   1.372   9.377 -1.2859 -0.2504 -1.7602
  145SAPE   C3816002   3.670   1.577   9.317 -0.1194  0.0704 -0.8081
  145SAPE   H8X16003   3.707   1.533   9.222 -3.2842 -2.1014 -1.1219
  145SAPE   H8Y16004   3.751   1.592   9.392 -1.1996  2.4240 -0.0890
  145SAPE   C3916005   3.615   1.714   9.285 -0.2767  0.2494 -0.0662
  145SAPE   H9X16006   3.689   1.796   9.270  0.7316 -0.5939  0.2082
  145SAPE   H9Y16007   3.549   1.743   9.368  0.6650 -0.8646  1.0965
  145SAPE  C31016008   3.545   1.718   9.152  0.4327 -0.0412  0.2149
  145SAPE  H10X16009   3.470   1.800   9.151 -2.5922 -2.6480  0.8361
  145SAPE  H10Y16010   3.483   1.625   9.152  1.6812 -0.8866  1.2119
  145SAPE  C31116011   3.632   1.727   9.025 -0.1898 -0.1233 -0.4752
  145SAPE  H11X16012   3.727   1.669   9.023 -0.0656  0.1074 -2.2463
  145SAPE  H11Y16013   3.654   1.836   9.032  0.4676 -0.2680 -0.2570
  145SAPE  C31216014   3.557   1.679   8.897 -0.0789 -0.0789  0.3839
  145SAPE  H12X16015   3.640   1.674   8.824  1.7847  4.6237  2.0095
  145SAPE  H12Y16016   3.498   1.764   8.857  1.7336  1.3291  0.6250
  145SAPE  C31316017   3.487   1.546   8.904  0.4896  0.3842 -0.6166
  145SAPE  H13X16018   3.397   1.568   8.964  0.1344 -1.7494 -0.3258
  145SAPE  H13Y16019   3.540   1.462   8.953 -0.0032  0.2275 -0.3535
  145SAPE  C31416020   3.444   1.490   8.763 -0.4405  0.7718 -0.2382
  145SAPE  H14X16021   3.532   1.439   8.719 -2.2583 -2.2611 -0.5389
  145SAPE  H14Y16022   3.421   1.570   8.690 -0.8188  0.4449 -0.4809
  145SAPE  C31516023   3.325   1.384   8.774 -0.4275  0.0597 -0.6512
  145SAPE  H15X16024   3.230   1.419   8.820 -1.4203 -0.0513 -2.5824
  145SAPE  H15Y16025   3.357   1.309   8.849 -1.5996  2.1768  2.0413
  145SAPE  C31616026   3.302   1.323   8.642  0.2927 -0.0714 -0.0876
  145SAPE  H16X16027   3.396   1.329   8.584 -1.2485 -0.4783 -2.7065
  145SAPE  H16Y16028   3.232   1.389   8.588  0.1212 -0.3457 -0.2023
  145SAPE  C31716029   3.259   1.175   8.644 -0.2774  0.8550  0.0977
  145SAPE  H17X16030   3.159   1.185   8.690 -1.4797  2.4777 -2.7383
  145SAPE  H17Y16031   3.326   1.121   8.714 -0.8350  0.7125  0.5247
  145SAPE  C31816032   3.235   1.111   8.504  0.5235 -0.9085 -0.4847
  145SAPE  H18X16033   3.167   1.171   8.440 -0.6153  1.1174  2.5045
  145SAPE  H18Y16034   3.195   1.007   8.510  0.5164 -0.9860 -1.7799
  145SAPE  H18Z16035   3.328   1.102   8.445  0.1314 -0.4679 -1.1701
  146SAPE     N16036   2.754   2.688  10.790 -0.7588  0.3064 -0.4001
  146SAPE   HN116037   2.857   2.699  10.788 -0.6634  0.6924  3.8783
  146SAPE   HN216038   2.733   2.599  10.840  3.4339  0.7875  2.4142
  146SAPE   HN316039   2.726   2.671  10.691 -0.5920  0.6638 -0.5074
  146SAPE   C1216040   2.671   2.803  10.834  0.2667  0.6896 -0.3843
  146SAPE  H12A16041   2.678   2.884  10.758 -1.1684 -0.0308 -1.3121
  146SAPE  H12B16042   2.701   2.847  10.931 -3.5099  2.1500  0.2189
  146SAPE   C1116043   2.521   2.765  10.827  0.4192 -0.0982 -0.0930
  146SAPE  H11A16044   2.452   2.851  10.838 -0.1484 -0.4506 -0.8195
  146SAPE  H11B16045   2.499   2.695  10.911  0.0224 -0.0617 -0.1657
  146SAPE     P16046   2.333   2.646  10.690 -0.1419  0.2190  0.5455
  146SAPE   O1316047   2.336   2.504  10.651 -0.0266  0.2301  0.7234
  146SAPE   O1416048   2.260   2.688  10.812 -0.4036 -0.2930 -0.0518
  146SAPE   O1216049   2.483   2.692  10.708 -0.0050  0.1891 -0.2952
  146SAPE   O1116050   2.278   2.729  10.570  0.2050  0.3901  0.2084
  146SAPE    C116051   2.265   2.870  10.590 -0.3303 -0.4591 -0.5100
  146SAPE    HA16052   2.163   2.900  10.622  0.3243  1.7272 -0.3343
  146SAPE    HB16053   2.342   2.914  10.657 -1.3871 -2.2275  1.9549
  146SAPE    C216054   2.289   2.940  10.452  0.5249 -0.0916  0.3537
  146SAPE    HS16055   2.248   3.043  10.461 -0.8851 -0.3399 -2.5936
  146SAPE   O2116056   2.235   2.873  10.335 -0.0798  0.3692 -0.0082
  146SAPE   C2116057   2.105   2.850  10.331 -0.0879  0.1852  0.1264
  146SAPE   O2216058   2.020   2.893  10.408 -0.8978  0.4392 -0.0958
  146SAPE   C2216059   2.074   2.754  10.216  0.1278 -0.5803  0.5207
  146SAPE   H2R16060   2.104   2.658  10.264 -2.0058 -1.0176  1.0397
  146SAPE   H2S16061   1.964   2.744  10.203  0.2786 -0.0373 -1.3867
  146SAPE    C316062   2.447   2.943  10.438  0.3256 -0.1194  0.0288
  146SAPE    HX16063   2.465   2.833  10.442  0.8326 -0.0076  0.9812
  146SAPE    HY16064   2.487   2.992  10.530  0.0792  0.7295 -0.3103
  146SAPE   O3116065   2.490   3.004  10.312 -0.0278  0.4210 -0.2195
  146SAPE   C3116066   2.600   2.954  10.264  0.1600  0.3657 -0.8873
  146SAPE   O3216067   2.663   2.863  10.310 -0.0793  0.2750 -0.0462
  146SAPE   C3216068   2.628   3.029  10.127 -0.4003  0.1121 -0.0845
  146SAPE   H2X16069   2.681   3.122  10.156  3.1786 -2.1455  0.8739
  146SAPE   H2Y16070   2.530   3.041  10.076 -0.5171 -2.7552 -0.6564
  146SAPE   C2316071   2.163   2.803  10.098 -0.1029 -0.4849 -0.2944
  146SAPE   H3R16072   2.165   2.914  10.094 -0.2809 -0.5094 -1.2182
  146SAPE   H3S16073   2.103   2.778  10.008 -1.6780 -2.2945  1.2186
  146SAPE   C2416074   2.301   2.738  10.073 -0.6040  0.0628  0.3788
  146SAPE   H4R16075   2.285   2.632  10.045  0.6478  0.1485 -0.6667
  146SAPE   H4S16076   2.348   2.720  10.173  0.2306 -0.0128 -0.0273
  146SAPE   C2516077   2.380   2.818   9.970  0.4576 -0.3402  0.2238
  146SAPE   H5R16078   2.380   2.927   9.983  0.9791 -0.7572  4.5820
  146SAPE   C2616079   2.447   2.763   9.866 -0.2832  0.5230  0.6130
  146SAPE   H6R16080   2.496   2.829   9.794  0.0287 -0.3453  0.0328
  146SAPE   C2716081   2.455   2.619   9.830  0.0442 -0.0282  0.3691
  146SAPE   H7R16082   2.422   2.606   9.725 -1.5783  1.2936  0.6890
  146SAPE   H7S16083   2.371   2.571   9.885 -0.3606 -0.8649 -0.9520
  146SAPE   C2816084   2.584   2.550   9.874  0.2537  0.6588 -0.0488
  146SAPE   H8R16085   2.625   2.579   9.972 -0.5665 -0.3121  0.6026
  146SAPE   C2916086   2.668   2.471   9.804 -0.4025  0.2227  0.3780
  146SAPE   H9R16087   2.756   2.436   9.860  0.2032 -2.2049 -1.9898
  146SAPE  C21016088   2.665   2.422   9.656 -0.1975  0.1567 -0.1942
  146SAPE  H10R16089   2.571   2.445   9.601  0.1444 -0.8627 -1.2291
  146SAPE  H10S16090   2.670   2.311   9.664  0.0072  0.1900  0.1586
  146SAPE  C21116091   2.787   2.475   9.576 -0.5225 -0.5791  0.7249
  146SAPE  H11R16092   2.881   2.434   9.615 -1.2341 -1.8153  1.2063
  146SAPE  C21216093   2.792   2.555   9.468  0.1842  0.0840 -0.4266
  146SAPE  H12R16094   2.895   2.578   9.436  0.1887  0.8713  0.1330
  146SAPE  C21316095   2.667   2.614   9.403  0.7272 -0.9040 -0.4242
  146SAPE  H13R16096   2.584   2.616   9.476  0.7768  0.8146 -0.3815
  146SAPE  H13S16097   2.638   2.552   9.316 -1.0489  0.5321 -0.8891
  146SAPE  C21416098   2.676   2.760   9.348 -0.0682  0.3521  0.3349
  146SAPE  H14R16099   2.654   2.837   9.423 -1.2864  0.4285 -0.0877
  146SAPE  C21516100   2.693   2.791   9.218  0.0207 -0.2124  0.0883
  146SAPE  H15R16101   2.699   2.898   9.190 -0.2438 -0.5046 -1.1342
  146SAPE  C21616102   2.701   2.704   9.092 -0.1865 -0.0351 -0.4864
  146SAPE  H16R16103   2.698   2.596   9.117  1.6729 -0.0795 -0.3518
  146SAPE  H16S16104   2.794   2.722   9.034 -0.7383  2.7808 -0.5513
  146SAPE  C21716105   2.573   2.730   9.009  0.8738  0.6390 -0.4060
  146SAPE  H17R16106   2.564   2.840   9.006 -1.4782  0.5086  0.4817
  146SAPE  H17S16107   2.483   2.681   9.054  0.7798 -0.5192 -1.8109
  146SAPE  C21816108   2.576   2.673   8.867 -0.1274  0.7332  0.4684
  146SAPE  H18R16109   2.590   2.562   8.871  0.7682  0.8734  1.4562
  146SAPE  H18S16110   2.665   2.717   8.816 -1.0788  0.7023 -1.2788
  146SAPE  C21916111   2.454   2.710   8.781  0.4720  0.1947 -0.1748
  146SAPE  H19R16112   2.447   2.820   8.771 -1.1996  0.3731  2.3369
  146SAPE  H19S16113   2.358   2.690   8.834 -0.3047 -0.0824 -1.6766
  146SAPE  C22016114   2.448   2.649   8.638 -0.3660 -0.4678 -0.1238
  146SAPE  H20R16115   2.353   2.684   8.593 -0.0794 -1.3794 -1.4897
  146SAPE  H20S16116   2.441   2.539   8.651  2.0308 -1.0091 -2.8840
  146SAPE  H20T16117   2.539   2.666   8.576  0.4976 -0.9583  0.9949
  146SAPE   C3316118   2.720   2.949  10.030 -0.1539  0.1171  0.7636
  146SAPE   H3X16119   2.678   2.847  10.020  0.4115  0.1397 -2.1884
  146SAPE   H3Y16120   2.823   2.944  10.071 -0.5996  0.6579  1.9934
  146SAPE   C3416121   2.705   3.010   9.893 -0.4578  0.5299  0.3340
  146SAPE   H4X16122   2.733   3.117   9.895  1.0318  0.1083  2.6657
  146SAPE   H4Y16123   2.603   3.011   9.848 -0.9285  0.1395  1.3772
  146SAPE   C3516124   2.794   2.944   9.778 -0.0173 -0.4529  0.1249
  146SAPE   H5X16125   2.763   2.842   9.748 -0.8397 -0.3687  0.6718
  146SAPE   H5Y16126   2.897   2.933   9.816  0.4687 -1.3881 -1.4219
  146SAPE   C3616127   2.803   3.041   9.661  1.0218  0.1990  1.0104
  146SAPE   H6X16128   2.832   3.140   9.702 -0.8264  1.4204 -0.5199
  146SAPE   H6Y16129   2.707   3.048   9.606  1.6957 -1.2574 -0.4009
  146SAPE   C3716130   2.916   3.002   9.564  0.5031  0.2215  0.0942
  146SAPE   H7X16131   2.909   2.897   9.529 -0.4225  0.7620 -1.3581
  146SAPE   H7Y16132   3.009   3.012   9.624  0.9734 -1.0439 -0.4112
  146SAPE   C3816133   2.909   3.083   9.435 -0.3587  0.2143  0.1305
  146SAPE   H8X16134   2.903   3.193   9.450  1.2954  0.4820 -1.1122
  146SAPE   H8Y16135   2.809   3.057   9.396 -0.5663 -1.3221  1.6265
  146SAPE   C3916136   3.017   3.039   9.329  0.7990  0.2628  0.4796
  146SAPE   H9X16137   2.997   2.934   9.298 -2.3647  0.8628  0.3210
  146SAPE   H9Y16138   3.121   3.031   9.366  0.7097  0.1594  0.7069
  146SAPE  C31016139   3.008   3.116   9.195  0.5742  0.0853  0.1917
  146SAPE  H10X16140   3.027   3.225   9.196  0.7579  0.0447  2.8656
  146SAPE  H10Y16141   2.899   3.110   9.171  1.3818 -0.0206 -3.8784
  146SAPE  C31116142   3.091   3.054   9.086  0.4630  1.0488 -0.0903
  146SAPE  H11X16143   3.073   2.945   9.077 -3.2292  1.4394  1.6986
  146SAPE  H11Y16144   3.200   3.076   9.079  0.9673 -1.5837 -0.9124
  146SAPE  C31216145   3.042   3.086   8.944 -0.6311 -0.5041  0.1387
  146SAPE  H12X16146   3.123   3.044   8.881  0.8126 -0.6339  2.0523
  146SAPE  H12Y16147   3.034   3.196   8.940 -1.7662 -0.5806  0.1799
  146SAPE  C31316148   2.910   3.020   8.901  0.3296 -0.1194 -0.1521
  146SAPE  H13X16149   2.831   3.057   8.970  0.8007 -0.1644  0.4117
  146SAPE  H13Y16150   2.901   2.910   8.912 -0.9617  0.2430  3.0596
  146SAPE  C31416151   2.858   3.063   8.772  0.3610 -0.8533 -0.1383
  146SAPE  H14X16152   2.928   3.020   8.697  0.7571  2.0846 -1.5134
  146SAPE  H14Y16153   2.862   3.174   8.766  3.0076 -0.9762 -1.1278
  146SAPE  C31516154   2.708   3.017   8.744 -0.5264 -0.5906 -0.4314
  146SAPE  H15X16155   2.656   3.059   8.833 -0.6283 -2.7926  0.5882
  146SAPE  H15Y16156   2.718   2.907   8.756  0.2353 -0.3576  1.1775
  146SAPE  C31616157   2.632   3.056   8.618  0.2541 -0.4253  0.3260
  146SAPE  H16X16158   2.623   3.167   8.618 -0.2341 -0.4635  0.0895
  146SAPE  H16Y16159   2.526   3.024   8.630 -0.9160  2.4705 -1.6717
  146SAPE  C31716160   2.678   2.990   8.483 -0.1368  0.7629 -0.1932
  146SAPE  H17X16161   2.649   2.884   8.502  0.0575  1.0395  1.7121
  146SAPE  H17Y16162   2.785   3.013   8.464 -0.7112  4.0434  0.3404
  146SAPE  C31816163   2.599   3.044   8.369  0.4545  0.0039  0.7634
  146SAPE  H18X16164   2.628   3.149   8.350  2.6430 -0.5961  0.5846
  146SAPE  H18Y16165   2.491   3.049   8.394  1.3437  1.2290  4.6960
  146SAPE  H18Z16166   2.612   2.985   8.275 -3.2335  0.9706 -0.4302
  147SAPE     N16167   3.278   5.150  11.330 -0.8539  0.3686  0.0413
  147SAPE   HN116168   3.194   5.104  11.371  0.1412 -2.0784 -0.5663
  147SAPE   HN216169   3.324   5.176  11.419  0.6773 -1.0604 -0.3000
  147SAPE   HN316170   3.274   5.242  11.281 -0.7040  0.8994  1.0245
  147SAPE   C1216171   3.338   5.046  11.241 -0.1297 -0.5388  0.1432
  147SAPE  H12A16172   3.349   4.952  11.300 -1.3728 -0.2544  0.8320
  147SAPE  H12B16173   3.442   5.082  11.221  0.5841 -1.3728  2.2217
  147SAPE   C1116174   3.247   5.013  11.122 -0.4895  0.1943  0.1059
  147SAPE  H11A16175   3.147   4.985  11.162  0.4087 -0.5523  1.8786
  147SAPE  H11B16176   3.276   4.932  11.052 -1.7447 -1.4093  1.4070
  147SAPE     P16177   3.322   5.217  10.961  0.0901 -0.2878 -0.1343
  147SAPE   O1316178   3.284   5.206  10.817 -0.4865  0.1483 -0.8022
  147SAPE   O1416179   3.325   5.356  11.015 -0.0188 -0.2623  0.0870
  147SAPE   O1216180   3.213   5.133  11.041  0.2178  0.2243  0.0600
  147SAPE   O1116181   3.467   5.142  10.977  0.6657  0.0408  0.6835
  147SAPE    C116182   3.487   5.011  10.914 -0.0135  0.6794 -0.1258
  147SAPE    HA16183   3.517   4.946  10.999  2.5085  3.8160  1.4664
  147SAPE    HB16184   3.389   4.972  10.879 -0.6328 -0.7478  3.0150
  147SAPE    C216185   3.604   5.018  10.814  0.0966  0.6259  0.4577
  147SAPE    HS16186   3.694   5.037  10.876  0.2423  0.9812  0.1403
  147SAPE   O2116187   3.577   5.124  10.722  0.4344  0.1165  0.4476
  147SAPE   C2116188   3.678   5.210  10.695  0.0298  0.4560  0.0477
  147SAPE   O2216189   3.775   5.214  10.768 -0.0767 -0.2222 -0.2288
  147SAPE   C2216190   3.645   5.294  10.570 -0.0961  0.0174 -0.1137
  147SAPE   H2R16191   3.607   5.225  10.492 -1.6937  0.9331 -0.1616
  147SAPE   H2S16192   3.577   5.379  10.593 -1.6596 -0.9137 -1.2137
  147SAPE    C316193   3.625   4.879  10.742  0.0701  0.2759 -0.2129
  147SAPE    HX16194   3.583   4.801  10.810  0.8478 -0.0255 -0.0757
  147SAPE    HY16195   3.733   4.854  10.736 -0.0391 -0.1294 -0.4647
  147SAPE   O3116196   3.551   4.865  10.624  0.6683 -0.2719 -0.0852
  147SAPE   C3116197   3.615   4.877  10.513  0.0629  0.8736 -0.4245
  147SAPE   O3216198   3.734   4.903  10.505 -0.1686  0.7256 -0.1389
  147SAPE   C3216199   3.532   4.860  10.386 -0.7800 -0.3276 -0.1497
  147SAPE   H2X16200   3.429   4.824  10.407 -1.8585  0.7177 -3.3297
  147SAPE   H2Y16201   3.577   4.784  10.319  2.2101  0.5607  0.7754
  147SAPE   C2316202   3.776   5.347  10.502  0.0193 -0.6119 -0.2248
  147SAPE   H3R16203   3.829   5.255  10.469  0.7601 -0.3155  0.1426
  147SAPE   H3S16204   3.846   5.393  10.574  0.0544 -1.7760  0.4956
  147SAPE   C2416205   3.762   5.457  10.387  0.0848 -0.1476  0.6909
  147SAPE   H4R16206   3.868   5.482  10.368  0.0671 -0.2526  0.4602
  147SAPE   H4S16207   3.713   5.545  10.435 -0.5877  0.4742 -1.0930
  147SAPE   C2516208   3.704   5.386  10.271 -0.1974 -0.8315  0.2752
  147SAPE   H5R16209   3.604   5.350  10.295  0.7447 -1.8673  2.8266
  147SAPE   C2616210   3.771   5.348  10.155  0.3598  0.2174 -0.2041
  147SAPE   H6R16211   3.704   5.297  10.084  1.8051 -0.7660 -0.8913
  147SAPE   C2716212   3.916   5.375  10.123 -0.2652 -1.1250  0.4501
  147SAPE   H7R16213   3.971   5.292  10.075  2.6757  0.7090  0.5286
  147SAPE   H7S16214   3.975   5.385  10.216  2.3228 -0.7288 -1.2041
  147SAPE   C2816215   3.934   5.507  10.039  0.3719 -0.0082 -0.4725
  147SAPE   H8R16216   3.926   5.606  10.086  0.4692  0.7266 -2.0003
  147SAPE   C2916217   3.963   5.523   9.909  0.4924 -0.0089 -0.5120
  147SAPE   H9R16218   3.993   5.621   9.870  1.3588 -0.8220 -1.9482
  147SAPE  C21016219   3.980   5.410   9.810  0.3659 -0.6435  0.1585
  147SAPE  H10R16220   4.048   5.328   9.841  1.1437 -0.3017 -0.6205
  147SAPE  H10S16221   4.025   5.442   9.714 -1.4758 -0.2176 -0.5937
  147SAPE  C21116222   3.839   5.360   9.777 -0.0891  0.8201  0.2978
  147SAPE  H11R16223   3.770   5.364   9.862 -0.7158  3.9806 -0.2843
  147SAPE  C21216224   3.784   5.317   9.666 -0.2564  0.3568  0.9931
  147SAPE  H12R16225   3.674   5.312   9.658 -0.2445  0.2089  0.9189
  147SAPE  C21316226   3.843   5.301   9.530 -0.6145 -0.0772 -0.3213
  147SAPE  H13R16227   3.780   5.231   9.471  0.3940 -1.8590  0.6701
  147SAPE  H13S16228   3.939   5.246   9.542  0.0584  1.1607  0.0375
  147SAPE  C21416229   3.861   5.434   9.460  0.1150  0.4050  0.3966
  147SAPE  H14R16230   3.858   5.523   9.524  0.1955  1.5319 -1.1190
  147SAPE  C21516231   3.874   5.451   9.327  0.1947  0.5862  0.0233
  147SAPE  H15R16232   3.876   5.553   9.286  2.8097  0.2039 -0.8807
  147SAPE  C21616233   3.854   5.346   9.218  0.7785  0.2133 -0.0256
  147SAPE  H16R16234   3.831   5.408   9.130 -0.1532  1.7465  1.2749
  147SAPE  H16S16235   3.765   5.281   9.232 -0.8395  1.8839 -2.3259
  147SAPE  C21716236   3.964   5.254   9.176 -0.3310 -0.1880 -0.0823
  147SAPE  H17R16237   3.986   5.187   9.262 -0.8185  1.0867  1.0532
  147SAPE  H17S16238   4.048   5.323   9.151  0.9174 -0.2302  3.7307
  147SAPE  C21816239   3.928   5.173   9.049  0.0511 -0.5256  0.2752
  147SAPE  H18R16240   3.931   5.238   8.959  0.3696 -2.4795 -1.1586
  147SAPE  H18S16241   3.828   5.123   9.053 -0.5610  0.6662  0.0119
  147SAPE  C21916242   4.041   5.070   9.031  0.1861  0.1273  0.3896
  147SAPE  H19R16243   4.032   5.015   8.935  0.6194 -1.6755  1.3604
  147SAPE  H19S16244   4.030   4.992   9.110  2.1098 -2.1607 -1.5235
  147SAPE  C22016245   4.177   5.123   9.036  0.0573 -0.5771  0.4033
  147SAPE  H20R16246   4.192   5.220   8.985  1.1785 -0.7162  0.4510
  147SAPE  H20S16247   4.259   5.050   9.018 -0.6812 -1.1114 -0.8264
  147SAPE  H20T16248   4.202   5.155   9.140 -2.1527  0.5711  0.6063
  147SAPE   C3316249   3.515   4.992  10.298  0.5089  0.3010 -0.1054
  147SAPE   H3X16250   3.616   5.039  10.295  0.0865  1.2198 -0.2381
  147SAPE   H3Y16251   3.442   5.054  10.354  1.3544  1.4647 -0.2687
  147SAPE   C3416252   3.455   4.957  10.165  0.0273  0.1750 -0.2370
  147SAPE   H4X16253   3.347   4.948  10.187  0.2055 -2.0123 -0.2250
  147SAPE   H4Y16254   3.490   4.860  10.123 -0.8121 -0.5348  0.7160
  147SAPE   C3516255   3.475   5.055  10.048 -0.3277 -0.2402 -0.6162
  147SAPE   H5X16256   3.581   5.080  10.029 -0.2319  1.4553  1.9718
  147SAPE   H5Y16257   3.428   5.149  10.086  1.0013  0.3614 -0.4458
  147SAPE   C3616258   3.411   5.025   9.917  0.8348  0.3484  0.4808
  147SAPE   H6X16259   3.301   5.012   9.928  0.6994 -1.7063 -2.5270
  147SAPE   H6Y16260   3.446   4.922   9.893  2.2869  0.7268  0.9366
  147SAPE   C3716261   3.436   5.124   9.811  0.0114  0.4338 -0.2489
  147SAPE   H7X16262   3.546   5.132   9.816  0.2578 -3.0756  1.2689
  147SAPE   H7Y16263   3.393   5.222   9.839  0.7942  0.5949  0.3895
  147SAPE   C3816264   3.400   5.071   9.673  0.0331 -0.3855  0.4137
  147SAPE   H8X16265   3.297   5.079   9.632  0.1572 -0.1198  0.1545
  147SAPE   H8Y16266   3.406   4.960   9.668 -3.5705 -0.5762 -1.1766
  147SAPE   C3916267   3.490   5.120   9.559  0.0447  0.0900  0.0457
  147SAPE   H9X16268   3.594   5.109   9.597 -0.1356  0.3394  0.6248
  147SAPE   H9Y16269   3.468   5.229   9.553  1.3844  0.4801  1.8889
  147SAPE  C31016270   3.456   5.044   9.432  0.3046 -0.4164 -0.4570
  147SAPE  H10X16271   3.345   5.041   9.422  0.1564  0.0468  0.8632
  147SAPE  H10Y16272   3.486   4.938   9.444 -1.4326 -0.7233  1.5594
  147SAPE  C31116273   3.525   5.113   9.313  0.8792 -0.0823  0.0070
  147SAPE  H11X16274   3.629   5.076   9.301  0.1818 -2.5815  1.3443
  147SAPE  H11Y16275   3.534   5.222   9.333  1.9987 -0.5844  2.2884
  147SAPE  C31216276   3.448   5.095   9.182  0.6083  0.0469  0.3236
  147SAPE  H12X16277   3.349   5.145   9.183  0.7959  0.4260  0.0850
  147SAPE  H12Y16278   3.413   4.990   9.168 -0.9245  0.8910 -2.4862
  147SAPE  C31316279   3.523   5.120   9.049  0.0417 -0.1119  0.2633
  147SAPE  H13X16280   3.627   5.080   9.049  0.2989  0.5410 -1.1257
  147SAPE  H13Y16281   3.536   5.227   9.025  0.7449 -0.2162  0.1817
  147SAPE  C31416282   3.447   5.055   8.935  0.0588  0.3012  0.5609
  147SAPE  H14X16283   3.343   5.092   8.927 -0.1406 -0.4807 -0.4989
  147SAPE  H14Y16284   3.447   4.945   8.944  0.0197  0.4870  3.4141
  147SAPE  C31516285   3.514   5.075   8.795 -0.4650  0.6709 -0.0092
  147SAPE  H15X16286   3.499   4.987   8.728  0.4014  0.8511 -0.4404
  147SAPE  H15Y16287   3.624   5.086   8.803 -0.4825 -0.0489  1.5376
  147SAPE  C31616288   3.457   5.204   8.730 -0.5901  0.0472 -1.1554
  147SAPE  H16X16289   3.465   5.292   8.797 -0.2773 -0.2620 -0.7756
  147SAPE  H16Y16290   3.349   5.183   8.714 -0.0798 -1.7075 -2.5436
  147SAPE  C31716291   3.528   5.249   8.597  0.2871  0.0635  0.0156
  147SAPE  H17X16292   3.524   5.163   8.526 -0.5841  0.2197 -0.1236
  147SAPE  H17Y16293   3.636   5.268   8.614  0.6052 -0.6288 -1.1663
  147SAPE  C31816294   3.459   5.369   8.542  0.0008  0.0217 -0.3299
  147SAPE  H18X16295   3.351   5.356   8.516  0.2673 -0.5129 -1.1905
  147SAPE  H18Y16296   3.516   5.410   8.456  1.4634 -1.3924 -0.0475
  147SAPE  H18Z16297   3.458   5.457   8.609 -0.6575  0.3907 -0.8082
  148SAPE     N16298   5.523   1.540  10.799 -0.4305  0.4144 -0.4332
  148SAPE   HN116299   5.514   1.483  10.713 -2.2525  1.5709 -1.0347
  148SAPE   HN216300   5.570   1.485  10.874  0.7548  1.1183 -0.6518
  148SAPE   HN316301   5.429   1.577  10.825 -0.3785  0.1704  0.1225
  148SAPE   C1216302   5.618   1.661  10.794 -0.2129  0.9136 -1.2051
  148SAPE  H12A16303   5.721   1.618  10.798 -1.2062 -1.4162  0.5081
  148SAPE  H12B16304   5.608   1.712  10.892  2.3444  2.0201 -1.4847
  148SAPE   C1116305   5.574   1.753  10.683  0.7447  0.4079 -0.0951
  148SAPE  H11A16306   5.599   1.723  10.579 -0.0297 -1.3883  0.2150
  148SAPE  H11B16307   5.636   1.844  10.697  0.9803  0.3089 -0.4747
  148SAPE     P16308   5.356   1.869  10.599 -0.3584 -0.1845  0.2037
  148SAPE   O1316309   5.212   1.854  10.611  0.5342  0.0385  0.2162
  148SAPE   O1416310   5.412   2.005  10.610 -0.7604  0.0568 -0.2628
  148SAPE   O1216311   5.436   1.780  10.701  0.3977 -0.5627  0.7593
  148SAPE   O1116312   5.397   1.809  10.455  0.1902 -0.5439  0.2899
  148SAPE    C116313   5.362   1.673  10.415  0.2567 -0.2981 -0.5964
  148SAPE    HA16314   5.332   1.614  10.504 -0.5576  1.8542  0.5699
  148SAPE    HB16315   5.268   1.686  10.359 -0.0365 -0.7090 -0.2052
  148SAPE    C216316   5.471   1.595  10.342  0.4607 -0.5457  0.2905
  148SAPE    HS16317   5.552   1.572  10.414 -1.7941 -0.9859  2.7474
  148SAPE   O2116318   5.513   1.672  10.233  0.2278 -0.8708 -0.2945
  148SAPE   C2116319   5.649   1.659  10.203 -0.4777  0.1065 -1.2620
  148SAPE   O2216320   5.723   1.583  10.264  0.3072 -0.7026 -0.5395
  148SAPE   C2216321   5.691   1.728  10.081  0.4892 -0.1969 -0.1016
  148SAPE   H2R16322   5.750   1.818  10.107  1.9681 -0.9414 -0.7962
  148SAPE   H2S16323   5.760   1.664  10.022  1.3361 -0.1434  0.8170
  148SAPE    C316324   5.425   1.452  10.297 -0.3384  0.1797  0.1481
  148SAPE    HX16325   5.430   1.385  10.385 -0.4282 -1.1802 -0.8746
  148SAPE    HY16326   5.501   1.422  10.222  0.8314  0.5981  1.1492
  148SAPE   O3116327   5.290   1.459  10.242  0.1077  1.0761  0.2765
  148SAPE   C3116328   5.260   1.352  10.162  0.1378 -0.5577 -0.0831
  148SAPE   O3216329   5.327   1.251  10.148  0.0766 -0.1768 -0.1182
  148SAPE   C3216330   5.125   1.379  10.095 -0.0124  0.2853 -0.6423
  148SAPE   H2X16331   5.114   1.486  10.068  1.6712  0.7029  0.2909
  148SAPE   H2Y16332   5.045   1.348  10.165 -0.5556 -0.2638 -1.4924
  148SAPE   C2316333   5.571   1.764   9.994  0.2937 -0.1604 -0.0733
  148SAPE   H3R16334   5.613   1.826   9.911 -0.4686 -0.3878 -0.6395
  148SAPE   H3S16335   5.492   1.828  10.039 -0.0914 -0.6210 -0.0927
  148SAPE   C2416336   5.497   1.646   9.923  0.0949  0.0992 -0.6855
  148SAPE   H4R16337   5.413   1.684   9.861  0.9487  0.3193 -1.7263
  148SAPE   H4S16338   5.463   1.588  10.012  3.5515 -2.1947 -0.7633
  148SAPE   C2516339   5.578   1.554   9.838  0.0841 -0.0893  0.2461
  148SAPE   H5R16340   5.635   1.476   9.892  0.9880  0.6593  0.3852
  148SAPE   C2616341   5.594   1.559   9.706 -0.4207 -0.0523 -0.1026
  148SAPE   H6R16342   5.659   1.479   9.668  0.1810  0.0741  0.6391
  148SAPE   C2716343   5.531   1.645   9.601  0.8372  0.2494  0.0074
  148SAPE   H7R16344   5.443   1.698   9.642  1.2686  0.8444  0.1756
  148SAPE   H7S16345   5.484   1.585   9.520  0.7024 -0.0492  0.3064
  148SAPE   C2816346   5.625   1.745   9.541  0.1601 -0.0482 -0.6177
  148SAPE   H8R16347   5.695   1.793   9.610  1.0463 -1.2964 -0.6217
  148SAPE   C2916348   5.633   1.760   9.405 -0.5699 -0.3231  0.3044
  148SAPE   H9R16349   5.706   1.834   9.370  0.2102 -1.5684 -0.7893
  148SAPE  C21016350   5.554   1.694   9.293  0.6309 -0.4791 -0.4048
  148SAPE  H10R16351   5.554   1.753   9.200  1.1570  1.3819  0.7558
  148SAPE  H10S16352   5.447   1.690   9.323  0.8229 -2.2051  0.1378
  148SAPE  C21116353   5.598   1.548   9.268  0.6546 -0.1115  0.6464
  148SAPE  H11R16354   5.559   1.478   9.343  0.5133 -0.4690  0.2424
  148SAPE  C21216355   5.649   1.504   9.151 -0.0883 -0.0912 -0.3251
  148SAPE  H12R16356   5.690   1.403   9.137 -0.8392 -0.2471 -1.5247
  148SAPE  C21316357   5.680   1.598   9.040  0.7588 -0.2377  0.0527
  148SAPE  H13R16358   5.699   1.701   9.078 -0.5733 -0.0067  0.1410
  148SAPE  H13S16359   5.591   1.614   8.975 -0.5115  0.8696  1.9973
  148SAPE  C21416360   5.798   1.548   8.968  0.3607 -0.0269  0.3872
  148SAPE  H14R16361   5.884   1.563   9.035  0.2863  1.2433  0.2159
  148SAPE  C21516362   5.812   1.484   8.850 -0.2448  0.4455 -0.1649
  148SAPE  H15R16363   5.917   1.477   8.817  0.0595  0.0685  0.8583
  148SAPE  C21616364   5.701   1.459   8.749 -0.0679 -0.6750  0.3832
  148SAPE  H16R16365   5.601   1.465   8.796  0.3514  0.5116  1.1602
  148SAPE  H16S16366   5.702   1.361   8.696 -0.4936 -0.2852 -0.3569
  148SAPE  C21716367   5.690   1.578   8.652 -0.3242  0.1325 -0.3519
  148SAPE  H17R16368   5.711   1.674   8.703 -2.1514 -0.0304  0.7823
  148SAPE  H17S16369   5.599   1.573   8.588  0.2847 -0.5541 -1.1796
  148SAPE  C21816370   5.810   1.574   8.554 -0.4461  0.1055 -0.4182
  148SAPE  H18R16371   5.912   1.555   8.594 -1.1749  1.0891  1.9807
  148SAPE  H18S16372   5.814   1.675   8.509  0.8916 -0.4395 -1.5581
  148SAPE  C21916373   5.810   1.479   8.430 -0.4509 -0.3406  0.4165
  148SAPE  H19R16374   5.712   1.493   8.380 -1.1737 -0.4149  1.7813
  148SAPE  H19S16375   5.808   1.374   8.466 -0.3107 -0.6081 -0.3516
  148SAPE  C22016376   5.931   1.494   8.331  0.1484 -0.6261 -0.0101
  148SAPE  H20R16377   5.916   1.422   8.248 -1.6418 -1.0337  0.6383
  148SAPE  H20S16378   6.022   1.459   8.384  0.4657 -1.6633 -1.2123
  148SAPE  H20T16379   5.942   1.599   8.295  0.1513 -0.7814 -0.4623
  148SAPE   C3316380   5.105   1.298   9.964 -0.6309  0.4528 -0.7120
  148SAPE   H3X16381   5.001   1.308   9.927 -2.1363 -1.8175  2.7215
  148SAPE   H3Y16382   5.103   1.189   9.980 -1.2933  0.9007  2.5611
  148SAPE   C3416383   5.200   1.350   9.853  0.0391  0.4964  0.2620
  148SAPE   H4X16384   5.297   1.297   9.851  0.4277  1.2299 -1.4258
  148SAPE   H4Y16385   5.215   1.459   9.869  0.8991  0.2409  1.2371
  148SAPE   C3516386   5.135   1.333   9.712 -0.7918 -0.6160 -0.1791
  148SAPE   H5X16387   5.049   1.404   9.702  0.0563  0.2385 -1.5036
  148SAPE   H5Y16388   5.072   1.241   9.712 -0.8532 -0.5889  1.1084
  148SAPE   C3616389   5.236   1.340   9.595  0.0634  0.4168 -0.5681
  148SAPE   H6X16390   5.300   1.249   9.582 -2.6132 -1.5883 -0.1290
  148SAPE   H6Y16391   5.294   1.434   9.610  0.5761  0.2040 -1.2026
  148SAPE   C3716392   5.157   1.345   9.463 -0.6108  0.3474 -0.7995
  148SAPE   H7X16393   5.088   1.432   9.466  0.7681  1.4209  0.1885
  148SAPE   H7Y16394   5.096   1.253   9.455 -0.9023  0.3364  1.4265
  148SAPE   C3816395   5.249   1.379   9.347  0.1100 -0.7214  0.3174
  148SAPE   H8X16396   5.327   1.300   9.339  4.1903  3.0534  0.9496
  148SAPE   H8Y16397   5.297   1.478   9.353 -0.7362 -0.1291 -1.9060
  148SAPE   C3916398   5.173   1.390   9.215 -0.1927  0.1040 -0.4453
  148SAPE   H9X16399   5.099   1.472   9.212  0.4653  0.7177  0.0459
  148SAPE   H9Y16400   5.124   1.291   9.200 -1.3311  0.4484  0.8329
  148SAPE  C31016401   5.261   1.414   9.093  0.2580  1.0331  0.0509
  148SAPE  H10X16402   5.303   1.316   9.064 -1.6626  0.2684 -0.1923
  148SAPE  H10Y16403   5.350   1.481   9.087  0.7682  0.2908 -0.7758
  148SAPE  C31116404   5.164   1.441   8.968 -0.1475 -0.3456 -0.2306
  148SAPE  H11X16405   5.133   1.547   8.972  2.2024  0.4629 -1.9919
  148SAPE  H11Y16406   5.073   1.377   8.975 -1.2393  1.1543 -0.6063
  148SAPE  C31216407   5.234   1.419   8.832 -0.0672  0.1176  0.0510
  148SAPE  H12X16408   5.272   1.315   8.827 -1.6389 -0.4583 -0.1747
  148SAPE  H12Y16409   5.319   1.490   8.827 -0.0949  0.0885 -0.8675
  148SAPE  C31316410   5.142   1.451   8.707 -0.0138  0.6477 -0.1305
  148SAPE  H13X16411   5.108   1.556   8.721  0.9559  1.2002 -1.7534
  148SAPE  H13Y16412   5.045   1.398   8.700 -0.2924  1.4456 -2.4747
  148SAPE  C31416413   5.222   1.446   8.572 -0.2273 -0.2630 -0.0679
  148SAPE  H14X16414   5.329   1.462   8.594  0.0531 -2.1709  0.0278
  148SAPE  H14Y16415   5.185   1.522   8.500 -0.0650 -0.1876 -0.0708
  148SAPE  C31516416   5.217   1.310   8.503  0.7946  0.1033  0.5084
  148SAPE  H15X16417   5.121   1.255   8.491  0.4735  0.9415 -0.9146
  148SAPE  H15Y16418   5.277   1.242   8.568  0.0705 -1.8322 -0.7929
  148SAPE  C31616419   5.278   1.313   8.361 -0.6218 -0.3670  0.0786
  148SAPE  H16X16420   5.236   1.389   8.292  2.0489  0.1937 -1.0201
  148SAPE  H16Y16421   5.246   1.215   8.318  0.1324 -1.0365  1.0065
  148SAPE  C31716422   5.429   1.310   8.377 -0.1585  0.3044 -0.7255
  148SAPE  H17X16423   5.454   1.227   8.447 -1.9323  0.2868 -0.0868
  148SAPE  H17Y16424   5.462   1.405   8.423 -2.2865 -0.3451  2.2914
  148SAPE  C31816425   5.490   1.293   8.233 -0.2715  0.1635  0.0643
  148SAPE  H18X16426   5.481   1.387   8.175  0.0061  1.1221  1.5636
  148SAPE  H18Y16427   5.441   1.209   8.178  0.7800  0.4347 -1.3286
  148SAPE  H18Z16428   5.598   1.266   8.234  0.1890  1.9219 -0.7203
  149SAPE     N16429   0.671   2.516  11.375  0.0569 -0.8303  0.7365
  149SAPE   HN116430   0.638   2.459  11.456 -1.5651 -0.4905  0.3440
  149SAPE   HN216431   0.603   2.588  11.342 -0.7378 -1.1749  1.6003
  149SAPE   HN316432   0.692   2.459  11.290  2.8845  2.3246 -0.7539
  149SAPE   C1216433   0.791   2.592  11.416 -0.7074  0.4548 -0.2428
  149SAPE  H12A16434   0.867   2.521  11.454  0.4632  0.9370 -1.6156
  149SAPE  H12B16435   0.766   2.658  11.502  1.3265  0.9756 -0.0118
  149SAPE   C1116436   0.858   2.651  11.287 -0.0568  0.4136 -0.4475
  149SAPE  H11A16437   0.915   2.742  11.318  1.3027 -0.8432  0.8591
  149SAPE  H11B16438   0.789   2.700  11.215 -0.1357 -0.5015 -1.0004
  149SAPE     P16439   0.885   2.479  11.097 -0.2847  0.1972  0.4850
  149SAPE   O1316440   0.985   2.381  11.058 -0.0100 -0.2598 -0.7011
  149SAPE   O1416441   0.754   2.425  11.136  0.1107 -0.2618  0.0261
  149SAPE   O1216442   0.939   2.551  11.234 -0.1188  0.3830  0.5460
  149SAPE   O1116443   0.875   2.597  10.995 -0.6292 -0.0621  0.1770
  149SAPE    C116444   0.995   2.640  10.929 -0.0992  0.0494  0.1340
  149SAPE    HA16445   1.055   2.695  11.005 -0.7046  1.1665 -0.1816
  149SAPE    HB16446   1.059   2.556  10.896 -0.5753 -0.5727  0.7905
  149SAPE    C216447   0.953   2.739  10.811 -0.3016  0.0781 -0.2604
  149SAPE    HS16448   0.899   2.823  10.860 -1.4935 -0.0864 -1.2545
  149SAPE   O2116449   0.870   2.678  10.707  0.0001  0.1321  0.3918
  149SAPE   C2116450   0.811   2.760  10.625  0.3286 -0.3822 -0.1843
  149SAPE   O2216451   0.797   2.884  10.637 -0.6261  0.2863 -0.1235
  149SAPE   C2216452   0.755   2.677  10.510 -1.0902 -0.6647  0.4198
  149SAPE   H2R16453   0.845   2.643  10.455 -2.5737 -1.2627 -1.6783
  149SAPE   H2S16454   0.695   2.591  10.548 -1.4794  0.0633  1.4738
  149SAPE    C316455   1.086   2.790  10.745 -0.3710 -0.3323 -0.2238
  149SAPE    HX16456   1.136   2.852  10.822 -0.2585  0.1106 -0.6538
  149SAPE    HY16457   1.059   2.858  10.661  0.7341 -1.3290 -1.4020
  149SAPE   O3116458   1.168   2.676  10.689 -0.0752 -0.0443 -0.6210
  149SAPE   C3116459   1.165   2.664  10.560  0.8225 -0.3953  0.2474
  149SAPE   O3216460   1.105   2.735  10.482  0.1176  0.5428  0.2464
  149SAPE   C3216461   1.256   2.542  10.511 -0.2059 -0.0516 -0.0096
  149SAPE   H2X16462   1.252   2.467  10.592  0.7850 -0.6266 -0.4767
  149SAPE   H2Y16463   1.364   2.564  10.496 -0.1542 -1.9789 -2.7818
  149SAPE   C2316464   0.669   2.758  10.405 -0.3369  0.0039  0.0487
  149SAPE   H3R16465   0.594   2.815  10.464 -0.8034 -1.9826  1.4186
  149SAPE   H3S16466   0.615   2.686  10.340 -0.2584  1.3097 -1.4757
  149SAPE   C2416467   0.756   2.846  10.307 -0.0891  0.2671 -0.0426
  149SAPE   H4R16468   0.793   2.933  10.366 -0.7337  0.4132  0.1541
  149SAPE   H4S16469   0.696   2.885  10.223  0.6647 -0.2116 -0.8028
  149SAPE   C2516470   0.881   2.788  10.248  0.2675 -0.3100  0.0877
  149SAPE   H5R16471   0.978   2.803  10.298  0.8525 -0.2341 -1.0637
  149SAPE   C2616472   0.887   2.739  10.122 -0.2029  0.0318 -0.9262
  149SAPE   H6R16473   0.979   2.691  10.085  0.6136  0.8543  0.0335
  149SAPE   C2716474   0.770   2.723  10.034 -0.3792 -0.2787  0.3006
  149SAPE   H7R16475   0.733   2.826  10.017 -1.4717 -0.8401 -0.8277
  149SAPE   H7S16476   0.692   2.667  10.090 -0.7796  1.7418  1.8239
  149SAPE   C2816477   0.793   2.641   9.905 -0.0909  0.0183 -0.0736
  149SAPE   H8R16478   0.776   2.535   9.928 -3.3852  0.5503  0.2200
  149SAPE   C2916479   0.814   2.690   9.781 -0.5887  0.0880  0.2903
  149SAPE   H9R16480   0.841   2.623   9.698 -1.0592  1.1634 -0.7504
  149SAPE  C21016481   0.815   2.837   9.743  0.4582 -0.2320  0.5184
  149SAPE  H10R16482   0.905   2.851   9.680  0.8760  0.8077  1.3483
  149SAPE  H10S16483   0.828   2.916   9.820  4.8859 -0.7431  0.3907
  149SAPE  C21116484   0.691   2.858   9.658  0.9660 -0.4298 -0.3656
  149SAPE  H11R16485   0.610   2.912   9.710 -0.3424 -3.4009  0.8812
  149SAPE  C21216486   0.678   2.832   9.526  0.5210 -0.3467  0.5992
  149SAPE  H12R16487   0.580   2.840   9.477  0.0727  0.7113  1.6295
  149SAPE  C21316488   0.792   2.775   9.440 -0.9085 -0.0345  0.4124
  149SAPE  H13R16489   0.784   2.664   9.446  1.0813 -0.2787 -1.0740
  149SAPE  H13S16490   0.898   2.790   9.470 -0.9713 -0.6575  0.9690
  149SAPE  C21416491   0.792   2.815   9.299  0.0649 -0.2938  0.0994
  149SAPE  H14R16492   0.823   2.919   9.278 -0.2177  0.6961  4.2143
  149SAPE  C21516493   0.749   2.736   9.197  0.6104  0.2082  0.3600
  149SAPE  H15R16494   0.776   2.774   9.097  1.4885  1.6512  1.1220
  149SAPE  C21616495   0.700   2.594   9.220  0.0852  0.3861 -0.5160
  149SAPE  H16R16496   0.621   2.580   9.142  0.9712 -0.2577 -1.3139
  149SAPE  H16S16497   0.647   2.603   9.317 -0.1319 -2.3410 -0.3333
  149SAPE  C21716498   0.806   2.483   9.209  0.3558 -0.1974  0.8512
  149SAPE  H17R16499   0.778   2.386   9.255 -0.3852 -1.2909 -1.8168
  149SAPE  H17S16500   0.894   2.514   9.270  0.8556 -0.4324  0.2535
  149SAPE  C21816501   0.831   2.458   9.059 -0.5930  0.1087  0.0471
  149SAPE  H18R16502   0.908   2.378   9.047  0.9847  1.5422  0.4598
  149SAPE  H18S16503   0.885   2.544   9.014 -1.7381  1.0992  0.5686
  149SAPE  C21916504   0.709   2.423   8.972  0.2244  0.3781  0.0778
  149SAPE  H19R16505   0.653   2.519   8.971 -2.8451 -1.3606 -1.3436
  149SAPE  H19S16506   0.642   2.348   9.019 -0.0324  0.3778 -0.2880
  149SAPE  C22016507   0.748   2.372   8.835 -0.0710 -0.5520  0.2480
  149SAPE  H20R16508   0.661   2.360   8.767  1.9595  0.4415 -2.6061
  149SAPE  H20S16509   0.786   2.267   8.832 -1.0163 -0.9538  1.6695
  149SAPE  H20T16510   0.815   2.449   8.792 -1.3636  0.3016 -0.2783
  149SAPE   C3316511   1.189   2.479  10.387  0.9781  0.0659 -1.0293
  149SAPE   H3X16512   1.078   2.473  10.400  0.8620  2.0807 -0.9143
  149SAPE   H3Y16513   1.218   2.372  10.383  1.6009  0.1161  1.7760
  149SAPE   C3416514   1.231   2.550  10.257 -0.2629  0.1143  0.8829
  149SAPE   H4X16515   1.340   2.542  10.240 -0.6177 -0.8559 -1.0430
  149SAPE   H4Y16516   1.191   2.652  10.276  0.7165  0.4693  1.0306
  149SAPE   C3516517   1.166   2.476  10.137 -0.1036 -0.0151 -0.6793
  149SAPE   H5X16518   1.056   2.474  10.152  0.1201  0.0746  1.1222
  149SAPE   H5Y16519   1.203   2.371  10.137 -0.2568 -0.0954  1.7036
  149SAPE   C3616520   1.207   2.542  10.004  0.3980 -0.0296  0.1466
  149SAPE   H6X16521   1.315   2.522   9.992  0.7673  0.3406  2.5311
  149SAPE   H6Y16522   1.194   2.652  10.013 -0.1400 -0.1518  1.0134
  149SAPE   C3716523   1.147   2.466   9.883 -0.0436 -0.5580  0.2929
  149SAPE   H7X16524   1.038   2.485   9.887  0.2084  0.8678  0.5801
  149SAPE   H7Y16525   1.179   2.359   9.887  1.8274 -0.0492 -0.3574
  149SAPE   C3816526   1.212   2.534   9.762  0.8771  0.6605 -0.4263
  149SAPE   H8X16527   1.323   2.540   9.762  1.0920 -2.6012  0.3141
  149SAPE   H8Y16528   1.180   2.640   9.768  0.3472  0.4440  0.8822
  149SAPE   C3916529   1.182   2.461   9.628 -0.2622  0.5724  0.0275
  149SAPE   H9X16530   1.084   2.413   9.647  2.0634 -3.9634  1.5678
  149SAPE   H9Y16531   1.268   2.392   9.613  1.1782  2.3618 -0.0829
  149SAPE  C31016532   1.164   2.552   9.504 -0.4711  0.4134 -0.5639
  149SAPE  H10X16533   1.244   2.629   9.499  2.5094 -2.6125 -1.2411
  149SAPE  H10Y16534   1.066   2.603   9.510  0.0697  1.4387 -0.3980
  149SAPE  C31116535   1.175   2.477   9.376  0.3231  0.5501 -0.0352
  149SAPE  H11X16536   1.095   2.401   9.365 -1.4254  2.0854  1.7746
  149SAPE  H11Y16537   1.263   2.410   9.384 -2.3319 -3.1141 -0.2095
  149SAPE  C31216538   1.182   2.564   9.252  0.3852 -0.0696  0.4916
  149SAPE  H12X16539   1.267   2.632   9.274  0.4010  0.2286 -0.4558
  149SAPE  H12Y16540   1.089   2.622   9.235  0.1158 -1.5576 -3.8225
  149SAPE  C31316541   1.211   2.480   9.123  0.1345  0.3150 -0.6401
  149SAPE  H13X16542   1.121   2.427   9.085 -1.2020  1.3150  1.0683
  149SAPE  H13Y16543   1.283   2.403   9.159  1.7191  2.1011  0.0590
  149SAPE  C31416544   1.287   2.565   9.018  0.1167 -0.5245 -0.2733
  149SAPE  H14X16545   1.347   2.490   8.962  1.1722 -1.6249  2.2766
  149SAPE  H14Y16546   1.370   2.626   9.061 -1.9652  2.8457 -0.8312
  149SAPE  C31516547   1.185   2.641   8.933  0.4732  0.8437  0.4257
  149SAPE  H15X16548   1.120   2.704   8.997 -0.0414 -1.6471  2.4432
  149SAPE  H15Y16549   1.120   2.562   8.888 -0.3731  1.5250  0.4409
  149SAPE  C31616550   1.261   2.722   8.830 -0.3071  0.4440 -0.0599
  149SAPE  H16X16551   1.279   2.665   8.736  0.0764  2.8085 -1.4550
  149SAPE  H16Y16552   1.358   2.748   8.877  0.0607 -1.4653  0.2863
  149SAPE  C31716553   1.183   2.846   8.788  0.7196  0.0131  0.0677
  149SAPE  H17X16554   1.250   2.913   8.729 -1.2568  1.3048 -0.7869
  149SAPE  H17Y16555   1.162   2.898   8.884 -0.9146  1.2179 -0.9118
  149SAPE  C31816556   1.049   2.805   8.722  1.1782 -0.0855 -0.0922
  149SAPE  H18X16557   0.982   2.776   8.806  1.8505  2.4198  1.3675
  149SAPE  H18Y16558   1.063   2.724   8.647 -1.0981 -0.3832 -0.2193
  149SAPE  H18Z16559   1.007   2.884   8.656  0.8991 -0.7756 -0.7467
  150SAPE     N16560   2.361   2.246  10.711 -0.1919 -1.2032  0.0558
  150SAPE   HN116561   2.347   2.339  10.667  0.9963 -0.5860  0.9581
  150SAPE   HN216562   2.457   2.239  10.751  0.1549  1.8608 -0.1433
  150SAPE   HN316563   2.352   2.173  10.637 -1.4662 -1.8864  0.8434
  150SAPE   C1216564   2.252   2.226  10.809  0.0010  0.0191  0.6042
  150SAPE  H12A16565   2.159   2.269  10.766  1.4804  1.8628 -0.8708
  150SAPE  H12B16566   2.276   2.288  10.899  1.3330  1.8552 -0.9600
  150SAPE   C1116567   2.251   2.083  10.861  0.8863  0.1751 -0.4941
  150SAPE  H11A16568   2.241   2.009  10.778  0.0672 -0.1736 -0.0981
  150SAPE  H11B16569   2.154   2.073  10.915 -0.9551  5.1777 -2.4958
  150SAPE     P16570   2.461   1.928  10.910  0.0028  0.9867  0.7564
  150SAPE   O1316571   2.593   1.939  10.979  0.0815  0.2623  0.3660
  150SAPE   O1416572   2.382   1.811  10.942  0.0138  0.2616  0.5375
  150SAPE   O1216573   2.369   2.054  10.938  0.0972  1.0286 -0.1884
  150SAPE   O1116574   2.487   1.937  10.756 -0.2529 -0.0100 -0.0216
  150SAPE    C116575   2.536   1.823  10.682  0.2245 -0.6467 -0.4197
  150SAPE    HA16576   2.629   1.781  10.724 -0.4421 -0.8877  0.8108
  150SAPE    HB16577   2.474   1.733  10.701 -0.1794  0.1913  2.3468
  150SAPE    C216578   2.557   1.843  10.539  0.1496  0.4874  1.2845
  150SAPE    HS16579   2.610   1.939  10.519  0.1895 -0.3483 -3.1264
  150SAPE   O2116580   2.436   1.820  10.471  0.3230 -0.1025  0.1501
  150SAPE   C2116581   2.347   1.920  10.472 -0.0868 -0.9635  0.1707
  150SAPE   O2216582   2.369   2.034  10.515 -0.0164 -0.2089 -0.6861
  150SAPE   C2216583   2.224   1.881  10.390  0.5433  0.2466  0.1267
  150SAPE   H2R16584   2.189   1.790  10.442 -2.9628  0.5780 -1.5119
  150SAPE   H2S16585   2.139   1.953  10.397  0.2323 -0.0046 -0.9599
  150SAPE    C316586   2.656   1.734  10.491  0.4382 -0.0797  0.3447
  150SAPE    HX16587   2.600   1.642  10.518  0.5103  0.2559  1.7194
  150SAPE    HY16588   2.747   1.750  10.553  1.9557  2.9853 -2.5070
  150SAPE   O3116589   2.675   1.728  10.348 -0.0569  0.3858 -0.5048
  150SAPE   C3116590   2.753   1.828  10.304 -0.4286 -0.4701  0.2240
  150SAPE   O3216591   2.812   1.908  10.373 -0.0814  0.2056 -0.0198
  150SAPE   C3216592   2.762   1.820  10.151 -0.2783  0.6356  0.1208
  150SAPE   H2X16593   2.660   1.794  10.116  0.1386 -1.2070  0.2726
  150SAPE   H2Y16594   2.829   1.736  10.124 -1.8717 -0.5369 -0.2238
  150SAPE   C2316595   2.276   1.857  10.240 -0.3998  0.3556  0.0418
  150SAPE   H3R16596   2.371   1.799  10.236 -1.6600 -1.8941  1.5378
  150SAPE   H3S16597   2.277   1.956  10.190  2.6427  1.7520  2.6514
  150SAPE   C2416598   2.183   1.767  10.154  0.1750  0.1841  0.1049
  150SAPE   H4R16599   2.248   1.746  10.066  2.6663  1.9145  1.4734
  150SAPE   H4S16600   2.094   1.822  10.117  0.0840  0.2450  0.4183
  150SAPE   C2516601   2.130   1.641  10.203  0.2594  0.1241  0.3789
  150SAPE   H5R16602   2.045   1.652  10.273  0.2546 -1.2621  0.6075
  150SAPE   C2616603   2.137   1.510  10.160 -0.7910 -0.1805 -0.2430
  150SAPE   H6R16604   2.067   1.438  10.205 -1.5048  1.0549  0.6452
  150SAPE   C2716605   2.214   1.464  10.035 -0.1307 -0.3309  0.0215
  150SAPE   H7R16606   2.263   1.367  10.055  0.2712 -0.0474  0.4059
  150SAPE   H7S16607   2.305   1.528  10.030 -0.7225  0.4986 -0.4384
  150SAPE   C2816608   2.150   1.447   9.901 -0.3354  0.0927 -0.3449
  150SAPE   H8R16609   2.057   1.392   9.925 -0.2022  0.2261  0.4990
  150SAPE   C2916610   2.188   1.482   9.779  0.2153  0.2697 -0.8143
  150SAPE   H9R16611   2.121   1.441   9.701  0.3120  0.5933 -1.0698
  150SAPE  C21016612   2.315   1.554   9.742 -0.7122  0.3531 -0.3445
  150SAPE  H10R16613   2.384   1.490   9.684  2.9879 -0.1982  4.3450
  150SAPE  H10S16614   2.369   1.590   9.832 -1.4208  0.5136  0.0244
  150SAPE  C21116615   2.278   1.677   9.652  0.8336  0.7862  0.0787
  150SAPE  H11R16616   2.199   1.745   9.688  0.1060  2.1883 -3.8766
  150SAPE  C21216617   2.337   1.713   9.529  0.3091  0.4565 -0.5783
  150SAPE  H12R16618   2.309   1.812   9.487 -0.8910  1.3324  2.1459
  150SAPE  C21316619   2.440   1.632   9.452 -0.0433  0.0982 -0.4238
  150SAPE  H13R16620   2.403   1.606   9.351  0.2299 -1.3899 -0.1661
  150SAPE  H13S16621   2.461   1.541   9.513 -1.4472 -0.3888 -0.6418
  150SAPE  C21416622   2.577   1.704   9.447  0.5974 -0.3181  0.3610
  150SAPE  H14R16623   2.637   1.694   9.538  1.4040 -2.0486 -0.3500
  150SAPE  C21516624   2.614   1.791   9.352  0.0445 -0.6220 -0.1794
  150SAPE  H15R16625   2.708   1.846   9.365 -1.6889  1.9348  1.8188
  150SAPE  C21616626   2.536   1.831   9.226  1.1187  0.8918 -0.3561
  150SAPE  H16R16627   2.541   1.942   9.229  3.6944  0.7650  1.3923
  150SAPE  H16S16628   2.427   1.808   9.232  1.0983  1.0460 -0.1344
  150SAPE  C21716629   2.587   1.771   9.094  0.0569 -0.7248 -0.8285
  150SAPE  H17R16630   2.578   1.660   9.082  0.2053 -0.3880 -4.9063
  150SAPE  H17S16631   2.688   1.817   9.085 -0.6226  0.7700 -0.8874
  150SAPE  C21816632   2.494   1.819   8.973  0.1659  0.7057  0.2684
  150SAPE  H18R16633   2.489   1.930   8.970  0.1863  0.6565 -3.1628
  150SAPE  H18S16634   2.389   1.783   8.969  0.0748  1.1009 -0.8884
  150SAPE  C21916635   2.569   1.792   8.843  0.4829 -0.1984 -0.2127
  150SAPE  H19R16636   2.581   1.682   8.848 -1.8861 -0.3918  1.6224
  150SAPE  H19S16637   2.674   1.827   8.837  0.2882  0.5491  0.6839
  150SAPE  C22016638   2.479   1.836   8.721 -0.8306 -0.4402 -0.1592
  150SAPE  H20R16639   2.398   1.762   8.705 -1.5211  0.2857 -0.0746
  150SAPE  H20S16640   2.550   1.837   8.635  0.0735  0.4892  0.5848
  150SAPE  H20T16641   2.447   1.943   8.721 -0.8274 -0.4108 -2.4151
  150SAPE   C3316642   2.801   1.952  10.078  0.0927 -0.2839 -0.3405
  150SAPE   H3X16643   2.898   1.995  10.112 -0.4165 -0.8855  1.9313
  150SAPE   H3Y16644   2.735   2.037  10.106 -1.2730 -1.4827  0.1584
  150SAPE   C3416645   2.803   1.937   9.925  0.3198  0.4701  0.2188
  150SAPE   H4X16646   2.838   2.039   9.897  0.7338  1.1048  2.9245
  150SAPE   H4Y16647   2.699   1.921   9.890  0.4255 -1.1068  0.5912
  150SAPE   C3516648   2.895   1.839   9.839 -0.0541  0.2565  0.6644
  150SAPE   H5X16649   2.862   1.835   9.733  1.0750  1.4304  0.2560
  150SAPE   H5Y16650   2.882   1.737   9.882 -0.9176  0.8745  1.8969
  150SAPE   C3616651   3.037   1.883   9.838 -0.1227 -0.2504  0.2430
  150SAPE   H6X16652   3.080   1.897   9.940  2.5119  0.6499 -0.9525
  150SAPE   H6Y16653   3.048   1.985   9.797 -3.2092  0.7449  1.7984
  150SAPE   C3716654   3.127   1.780   9.770 -0.6427 -0.8639  0.5521
  150SAPE   H7X16655   3.098   1.683   9.817 -0.3678 -0.8483  0.7559
  150SAPE   H7Y16656   3.233   1.779   9.801 -1.1209 -0.1193  2.3063
  150SAPE   C3816657   3.119   1.768   9.613  0.1024 -0.3189 -0.5770
  150SAPE   H8X16658   3.159   1.866   9.578  0.4110 -0.0189  0.5977
  150SAPE   H8Y16659   3.012   1.761   9.584  0.1545 -0.9609 -0.6132
  150SAPE   C3916660   3.199   1.649   9.554  0.0574 -0.0541 -0.0003
  150SAPE   H9X16661   3.205   1.561   9.622  1.0689 -0.0712 -0.1061
  150SAPE   H9Y16662   3.301   1.690   9.562  0.2615 -0.3514 -1.0169
  150SAPE  C31016663   3.172   1.612   9.408 -0.2262  0.2753  0.3238
  150SAPE  H10X16664   3.103   1.526   9.398  0.2743 -0.1786  0.7999
  150SAPE  H10Y16665   3.263   1.562   9.369 -0.6544  0.6270 -1.1781
  150SAPE  C31116666   3.131   1.727   9.322  0.2323 -0.4555 -0.0039
  150SAPE  H11X16667   3.203   1.810   9.338  0.2507 -0.8539  2.1390
  150SAPE  H11Y16668   3.029   1.763   9.348  0.6083 -0.0219  0.9065
  150SAPE  C31216669   3.133   1.698   9.172  0.6633 -0.0352  0.5438
  150SAPE  H12X16670   3.057   1.621   9.145  2.8423 -1.5385 -1.4327
  150SAPE  H12Y16671   3.231   1.660   9.137 -0.8528 -1.4256 -2.4365
  150SAPE  C31316672   3.083   1.818   9.092 -0.0180  0.1951 -0.4032
  150SAPE  H13X16673   3.136   1.903   9.140 -4.1736  2.7441  0.0066
  150SAPE  H13Y16674   2.974   1.829   9.112 -0.3688  0.6330 -2.3748
  150SAPE  C31416675   3.103   1.804   8.946  0.0260 -0.2409  0.8294
  150SAPE  H14X16676   3.053   1.716   8.900 -1.0178  1.4541 -1.3621
  150SAPE  H14Y16677   3.208   1.796   8.914  0.5049  2.7149  1.5077
  150SAPE  C31516678   3.053   1.920   8.860  0.0069 -0.0632 -0.0997
  150SAPE  H15X16679   3.110   2.013   8.881  1.3185 -0.7683 -0.4560
  150SAPE  H15Y16680   2.946   1.935   8.886 -0.1271 -0.6857 -0.2914
  150SAPE  C31616681   3.073   1.891   8.716  0.1671  0.2467  0.2752
  150SAPE  H16X16682   3.027   1.792   8.696  0.6475  0.2267 -0.7480
  150SAPE  H16Y16683   3.181   1.867   8.705  0.4552  0.0516  3.1116
  150SAPE  C31716684   3.036   1.989   8.610  0.2370  0.4691 -0.2646
  150SAPE  H17X16685   3.087   2.081   8.645  1.0518 -0.4995  1.1273
  150SAPE  H17Y16686   2.928   2.015   8.620  0.6872  1.8978  1.0441
  150SAPE  C31816687   3.073   1.948   8.462  0.2315 -0.1225  0.1506
  150SAPE  H18X16688   2.985   1.894   8.420  0.2572  0.6170 -0.8555
  150SAPE  H18Y16689   3.160   1.879   8.471 -1.0038 -1.5300  1.9265
  150SAPE  H18Z16690   3.093   2.034   8.396  0.2517  0.7970  1.3417
  151SAPE     N16691   5.447   5.930  10.668 -0.6945  0.6085 -0.1340
  151SAPE   HN116692   5.354   5.896  10.636 -1.1126  2.0653 -0.4984
  151SAPE   HN216693   5.526   5.878  10.625  0.3067  1.9131  0.1208
  151SAPE   HN316694   5.445   5.936  10.772 -0.1835 -2.5042  0.1207
  151SAPE   C1216695   5.463   6.067  10.618 -0.3205 -0.0828 -0.3120
  151SAPE  H12A16696   5.551   6.114  10.667 -1.3090  0.3313  1.1228
  151SAPE  H12B16697   5.368   6.115  10.649 -1.4549 -1.1297 -2.0758
  151SAPE   C1116698   5.468   6.070  10.467  0.2161  0.0292  0.4259
  151SAPE  H11A16699   5.454   6.176  10.435 -0.1241 -0.5363 -1.3042
  151SAPE  H11B16700   5.382   6.017  10.421  0.9534 -0.6251 -0.2084
  151SAPE     P16701   5.707   6.105  10.377 -0.1912 -0.1698  0.4717
  151SAPE   O1316702   5.687   6.252  10.406  0.2762  0.0394  0.1659
  151SAPE   O1416703   5.815   6.051  10.459 -0.6110 -0.3703  0.2253
  151SAPE   O1216704   5.580   6.020  10.408  0.5877  0.1406  0.3946
  151SAPE   O1116705   5.731   6.079  10.231 -0.1103  0.2979 -0.4067
  151SAPE    C116706   5.828   5.978  10.186  0.2896 -0.2892 -0.3912
  151SAPE    HA16707   5.881   5.917  10.263  1.4030  1.3732  0.1808
  151SAPE    HB16708   5.775   5.903  10.124 -0.1319  1.6988 -2.5184
  151SAPE    C216709   5.933   6.049  10.086  0.2402  1.0738  0.4390
  151SAPE    HS16710   5.967   6.140  10.138  2.2955  0.5123  0.1063
  151SAPE   O2116711   5.871   6.065   9.954  0.5527  0.4183  0.3809
  151SAPE   C2116712   5.927   6.170   9.890  0.1831 -0.5941  0.4606
  151SAPE   O2216713   6.014   6.243   9.932 -0.1898  0.3193  0.2295
  151SAPE   C2216714   5.878   6.169   9.745  0.5226  0.1141 -0.2462
  151SAPE   H2R16715   5.788   6.104   9.751 -0.3594  1.2502 -1.0863
  151SAPE   H2S16716   5.848   6.268   9.707  1.2478  1.0948  1.6529
  151SAPE    C316717   6.054   5.957  10.067 -0.5728  0.4604 -0.3070
  151SAPE    HX16718   6.117   5.962  10.158 -2.5057  0.3585  1.0674
  151SAPE    HY16719   6.117   5.994   9.983 -0.4648  0.8851 -0.0421
  151SAPE   O3116720   6.016   5.822  10.045  0.1007 -0.1607 -0.0898
  151SAPE   C3116721   6.119   5.746  10.008  0.0877 -0.2743 -0.6058
  151SAPE   O3216722   6.237   5.771  10.004  0.7826 -0.0515 -0.5032
  151SAPE   C3216723   6.059   5.612   9.953  0.2646 -0.4472  0.0700
  151SAPE   H2X16724   5.950   5.625   9.934  0.4934  0.0539 -0.9331
  151SAPE   H2Y16725   6.067   5.544  10.041 -1.4840 -0.1523  0.4780
  151SAPE   C2316726   5.973   6.103   9.640 -0.2364 -0.5782 -0.5691
  151SAPE   H3R16727   5.907   6.079   9.553  0.1515 -3.1706 -0.1780
  151SAPE   H3S16728   6.016   6.007   9.677 -0.0695  0.0813  0.9858
  151SAPE   C2416729   6.085   6.196   9.604 -0.7225 -0.5205  0.0159
  151SAPE   H4R16730   6.132   6.254   9.686  1.0763  0.2891 -1.5597
  151SAPE   H4S16731   6.030   6.275   9.548 -0.8591 -0.1967  0.6020
  151SAPE   C2516732   6.196   6.125   9.530  1.0098 -0.1100 -0.4862
  151SAPE   H5R16733   6.269   6.080   9.598 -0.0383  0.5140  1.0752
  151SAPE   C2616734   6.208   6.093   9.402  0.7798 -0.1892  0.6051
  151SAPE   H6R16735   6.299   6.043   9.366  1.9014  2.0146  0.3188
  151SAPE   C2716736   6.112   6.132   9.291  0.0322  0.1563  0.0703
  151SAPE   H7R16737   6.005   6.112   9.311 -0.0422  0.2755 -0.1989
  151SAPE   H7S16738   6.139   6.067   9.205  0.7729 -0.6251  0.8750
  151SAPE   C2816739   6.117   6.273   9.239 -0.3410  0.3945 -0.9175
  151SAPE   H8R16740   6.124   6.347   9.321  1.5114  0.8447 -1.4478
  151SAPE   C2916741   6.137   6.304   9.108 -0.1838  0.5149 -0.0857
  151SAPE   H9R16742   6.130   6.411   9.086 -0.0623  0.6419  0.4693
  151SAPE  C21016743   6.142   6.207   8.991  0.3372 -0.5682 -0.2241
  151SAPE  H10R16744   6.065   6.129   9.004  0.3713 -0.2552  1.9802
  151SAPE  H10S16745   6.233   6.143   8.995  0.5762 -0.2262 -0.1547
  151SAPE  C21116746   6.140   6.287   8.861 -0.5583 -0.1085  0.7996
  151SAPE  H11R16747   6.219   6.360   8.839 -0.1891 -0.8153 -0.2744
  151SAPE  C21216748   6.040   6.271   8.772 -0.0208  0.6765  0.4139
  151SAPE  H12R16749   6.050   6.317   8.673 -0.8011  0.3873  0.1980
  151SAPE  C21316750   5.941   6.166   8.778 -0.1106  0.5264  0.1056
  151SAPE  H13R16751   5.866   6.197   8.854  0.5821 -0.3494  1.1687
  151SAPE  H13S16752   5.982   6.071   8.819 -1.8146 -0.1659  0.2410
  151SAPE  C21416753   5.872   6.135   8.652  0.1370 -0.8324 -0.2711
  151SAPE  H14R16754   5.937   6.102   8.570  0.6733 -1.4692  0.4044
  151SAPE  C21516755   5.741   6.164   8.622 -0.6450 -0.4856  0.7674
  151SAPE  H15R16756   5.723   6.150   8.514 -1.8726 -1.6975  1.1196
  151SAPE  C21616757   5.635   6.224   8.709  0.7607 -0.5233 -0.3244
  151SAPE  H16R16758   5.598   6.321   8.670 -2.7926 -2.2054 -1.3354
  151SAPE  H16S16759   5.667   6.251   8.812 -1.3212 -1.5160  0.5998
  151SAPE  C21716760   5.514   6.125   8.729 -0.4121 -1.0727 -0.5401
  151SAPE  H17R16761   5.462   6.156   8.822  1.6311 -1.4147  0.7342
  151SAPE  H17S16762   5.559   6.025   8.742  2.3367  0.1220 -0.5503
  151SAPE  C21816763   5.418   6.116   8.612  0.3776  0.0367 -0.0371
  151SAPE  H18R16764   5.469   6.077   8.521 -2.6490 -2.5672 -0.7000
  151SAPE  H18S16765   5.383   6.216   8.580  2.6276  0.4891 -1.1576
  151SAPE  C21916766   5.300   6.021   8.629 -0.0388 -0.2339 -0.3589
  151SAPE  H19R16767   5.244   6.045   8.721 -0.2376 -2.7232  0.2008
  151SAPE  H19S16768   5.343   5.920   8.649 -2.2289 -1.1268 -0.0238
  151SAPE  C22016769   5.208   6.012   8.505  0.8010  0.0299  0.0263
  151SAPE  H20R16770   5.160   6.112   8.503  0.6645 -0.0636 -1.4960
  151SAPE  H20S16771   5.131   5.934   8.522 -0.3695  1.1789  0.0830
  151SAPE  H20T16772   5.259   6.001   8.407  0.5619 -1.4215  0.0473
  151SAPE   C3316773   6.131   5.564   9.828  0.3502  0.1171 -0.5311
  151SAPE   H3X16774   6.095   5.461   9.804  1.0916  0.0020 -1.1722
  151SAPE   H3Y16775   6.239   5.555   9.853  0.6515  0.6879 -1.6051
  151SAPE   C3416776   6.109   5.641   9.702 -1.2170  0.4781 -0.0822
  151SAPE   H4X16777   6.125   5.750   9.701 -1.3472  0.5008 -1.2873
  151SAPE   H4Y16778   6.003   5.640   9.669 -1.2495  0.5106  0.0251
  151SAPE   C3516779   6.188   5.582   9.577  0.2796 -0.4283  0.4810
  151SAPE   H5X16780   6.198   5.472   9.592  0.9420 -0.2340  1.5435
  151SAPE   H5Y16781   6.289   5.628   9.576  0.0336  0.1035  0.1408
  151SAPE   C3616782   6.132   5.602   9.438  0.6259  0.8114  0.2557
  151SAPE   H6X16783   6.022   5.586   9.441  0.5292  1.2804 -0.6704
  151SAPE   H6Y16784   6.175   5.522   9.374  1.2255  1.7798 -0.5701
  151SAPE   C3716785   6.174   5.734   9.379 -0.0330 -0.1998 -0.0983
  151SAPE   H7X16786   6.285   5.732   9.378 -0.0323 -0.2939  0.2729
  151SAPE   H7Y16787   6.134   5.821   9.435  0.0003 -0.7978  0.8590
  151SAPE   C3816788   6.133   5.739   9.228 -0.0682 -0.4692 -0.3604
  151SAPE   H8X16789   6.143   5.844   9.192 -0.5816 -0.4604 -0.4821
  151SAPE   H8Y16790   6.026   5.722   9.203 -0.3528  0.3791  0.2430
  151SAPE   C3916791   6.212   5.651   9.141 -0.1241  0.4069  0.3826
  151SAPE   H9X16792   6.177   5.547   9.153 -0.1344  0.3753  0.0778
  151SAPE   H9Y16793   6.317   5.648   9.178 -0.6492  1.5247  2.0117
  151SAPE  C31016794   6.202   5.674   8.990 -0.0148 -0.2971  1.0707
  151SAPE  H10X16795   6.240   5.585   8.936  0.0005  0.5016 -0.2450
  151SAPE  H10Y16796   6.266   5.763   8.976  0.7684 -0.8300  1.2153
  151SAPE  C31116797   6.063   5.712   8.931  0.0646 -0.5844  0.6897
  151SAPE  H11X16798   6.041   5.817   8.959 -0.9557 -0.7846  0.6615
  151SAPE  H11Y16799   5.992   5.646   8.986 -0.7285 -1.0546 -0.8756
  151SAPE  C31216800   6.070   5.703   8.778 -0.8181  0.2221  0.3308
  151SAPE  H12X16801   6.113   5.605   8.747  0.4121  1.1053 -0.8187
  151SAPE  H12Y16802   6.150   5.772   8.742 -1.1248  0.9786  1.1022
  151SAPE  C31316803   5.934   5.745   8.717 -0.0675  0.0419 -0.5650
  151SAPE  H13X16804   5.940   5.750   8.606  1.6627  1.4380 -0.4145
  151SAPE  H13Y16805   5.923   5.850   8.751 -1.2857 -0.0949 -0.4931
  151SAPE  C31416806   5.807   5.678   8.766  0.3712  0.4872  0.1523
  151SAPE  H14X16807   5.791   5.688   8.876  0.8080  0.2944  0.2337
  151SAPE  H14Y16808   5.808   5.569   8.750 -0.5683  0.4814  0.1324
  151SAPE  C31516809   5.676   5.730   8.697  0.0999  0.3209 -0.5907
  151SAPE  H15X16810   5.690   5.839   8.681  1.3264 -0.0613 -2.2134
  151SAPE  H15Y16811   5.599   5.706   8.774  0.8095  1.5911  0.5457
  151SAPE  C31616812   5.631   5.661   8.565 -0.0734 -1.0058  0.3330
  151SAPE  H16X16813   5.566   5.573   8.589  0.2871 -0.9498  1.5398
  151SAPE  H16Y16814   5.724   5.622   8.517 -1.5086 -2.1523 -1.6287
  151SAPE  C31716815   5.570   5.752   8.464  0.4004  0.0809  0.7038
  151SAPE  H17X16816   5.653   5.817   8.430  1.5420 -0.7470  1.8850
  151SAPE  H17Y16817   5.489   5.815   8.508 -0.3983  0.2379 -0.9220
  151SAPE  C31816818   5.501   5.672   8.351  0.0241 -0.5930  0.0155
  151SAPE  H18X16819   5.460   5.744   8.277  1.7183  2.2277  1.7256
  151SAPE  H18Y16820   5.422   5.606   8.395  2.0625 -3.7842 -0.9274
  151SAPE  H18Z16821   5.579   5.616   8.294  0.9794  2.5051 -1.8156
  152SAPE     N16822   0.768   5.823  10.906  0.3815  0.1590  0.3516
  152SAPE   HN116823   0.801   5.866  10.995  1.3429  1.2837 -0.5179
  152SAPE   HN216824   0.680   5.874  10.888 -0.3416 -1.2877 -0.3045
  152SAPE   HN316825   0.761   5.720  10.916  1.0392  0.2887  2.5417
  152SAPE   C1216826   0.871   5.870  10.804  0.9905  0.2047 -1.1537
  152SAPE  H12A16827   0.969   5.852  10.853 -0.0328  0.2929  0.9771
  152SAPE  H12B16828   0.848   5.978  10.790 -1.5411 -0.3618 -1.7308
  152SAPE   C1116829   0.856   5.792  10.675  0.4819 -0.1587 -0.2704
  152SAPE  H11A16830   0.903   5.836  10.584 -1.9505 -0.1652 -1.5772
  152SAPE  H11B16831   0.747   5.788  10.652  0.7008  1.0346 -1.5588
  152SAPE     P16832   0.894   5.565  10.571 -0.1014 -0.0700 -0.6347
  152SAPE   O1316833   1.014   5.480  10.589  0.1229  0.6400  0.3309
  152SAPE   O1416834   0.761   5.499  10.590  0.2312  0.3123 -0.5108
  152SAPE   O1216835   0.916   5.665  10.685 -0.1688 -0.4904  0.1327
  152SAPE   O1116836   0.906   5.645  10.441 -0.2938  0.2813  0.4351
  152SAPE    C116837   1.023   5.712  10.399 -0.0718  0.3278  0.1648
  152SAPE    HA16838   0.999   5.814  10.364  4.5351  2.2252  2.1083
  152SAPE    HB16839   1.108   5.719  10.471 -1.3618 -1.2174  1.8889
  152SAPE    C216840   1.095   5.642  10.278 -0.3107  0.3839  0.5558
  152SAPE    HS16841   1.135   5.545  10.313 -1.6286 -0.2434  0.3660
  152SAPE   O2116842   1.195   5.735  10.214  0.1726 -0.0711 -0.8480
  152SAPE   C2116843   1.302   5.676  10.166 -1.0270 -0.1348 -1.3188
  152SAPE   O2216844   1.337   5.562  10.182  0.7512 -0.2800  0.9141
  152SAPE   C2216845   1.387   5.784  10.109 -0.2915  0.5242  0.4059
  152SAPE   H2R16846   1.408   5.863  10.184 -2.2845 -1.0436  2.7007
  152SAPE   H2S16847   1.483   5.742  10.074  0.5092  1.3802  1.5460
  152SAPE    C316848   0.984   5.607  10.170  0.1351  0.1265 -0.6985
  152SAPE    HX16849   0.940   5.696  10.121  0.4442  1.7260  1.8454
  152SAPE    HY16850   0.894   5.566  10.220  1.8319 -1.2248  1.3543
  152SAPE   O3116851   1.035   5.519  10.070  0.1315  0.3571 -0.4609
  152SAPE   C3116852   1.016   5.395  10.090 -0.0317 -0.4989 -0.0165
  152SAPE   O3216853   0.962   5.338  10.182 -0.4574  0.6642  0.1932
  152SAPE   C3216854   1.052   5.323   9.961  0.3362  0.9654  0.7525
  152SAPE   H2X16855   1.161   5.345   9.958  0.4820  0.0781 -0.8359
  152SAPE   H2Y16856   1.010   5.377   9.873 -0.9117  0.3843  0.9856
  152SAPE   C2316857   1.329   5.855   9.986  0.9938  0.1873 -0.5707
  152SAPE   H3R16858   1.393   5.944   9.967  0.4024  0.5553 -0.8250
  152SAPE   H3S16859   1.229   5.889  10.019  0.5987  0.0073 -1.5677
  152SAPE   C2416860   1.321   5.765   9.868 -0.2743  0.4532 -0.9269
  152SAPE   H4R16861   1.267   5.672   9.897 -3.7538  2.5083 -0.4736
  152SAPE   H4S16862   1.421   5.740   9.827 -0.2711 -2.6722  0.8131
  152SAPE   C2516863   1.239   5.825   9.755 -0.1420  0.1374  0.4407
  152SAPE   H5R16864   1.243   5.935   9.755  0.5396  0.1283 -0.7599
  152SAPE   C2616865   1.184   5.766   9.648 -0.2080 -0.3904 -0.9275
  152SAPE   H6R16866   1.138   5.829   9.571 -0.1976 -0.5822 -1.0950
  152SAPE   C2716867   1.188   5.617   9.612 -0.2899  0.0684 -0.3593
  152SAPE   H7R16868   1.202   5.556   9.703  1.0847 -1.9974 -1.9129
  152SAPE   H7S16869   1.278   5.603   9.549 -0.2325 -0.2919 -0.1987
  152SAPE   C2816870   1.056   5.571   9.558 -0.0376  0.1146  0.0213
  152SAPE   H8R16871   0.983   5.548   9.637 -0.6751  1.9317 -0.0027
  152SAPE   C2916872   1.033   5.529   9.430  0.6641  0.1082 -0.1975
  152SAPE   H9R16873   0.930   5.512   9.393  0.0545  1.9156  0.6117
  152SAPE  C21016874   1.136   5.530   9.326  0.1297 -0.2012  0.6967
  152SAPE  H10R16875   1.096   5.471   9.241  2.2218 -0.7632  0.0785
  152SAPE  H10S16876   1.229   5.481   9.359  1.8476  3.5525  1.6782
  152SAPE  C21116877   1.182   5.671   9.277  0.4978  0.1093 -0.2641
  152SAPE  H11R16878   1.260   5.723   9.335 -0.0489  0.9570 -0.2919
  152SAPE  C21216879   1.147   5.732   9.165 -0.7311 -0.6801 -0.0715
  152SAPE  H12R16880   1.200   5.824   9.138  0.2311 -1.2383 -0.1031
  152SAPE  C21316881   1.054   5.678   9.063 -0.4690 -0.6561  0.6104
  152SAPE  H13R16882   0.990   5.751   9.008  0.3974  0.1688  0.6839
  152SAPE  H13S16883   0.987   5.597   9.098  0.3755 -2.5558 -2.0176
  152SAPE  C21416884   1.132   5.600   8.956  0.5513  0.4772 -0.0869
  152SAPE  H14R16885   1.238   5.575   8.970  0.7371  0.1228 -2.0197
  152SAPE  C21516886   1.079   5.558   8.839  0.2340  0.3970  0.1809
  152SAPE  H15R16887   1.139   5.508   8.762  1.3431  0.5619  0.9282
  152SAPE  C21616888   0.940   5.589   8.793 -0.6520  0.0499 -0.4614
  152SAPE  H16R16889   0.880   5.654   8.861  2.3529  1.3298  1.0905
  152SAPE  H16S16890   0.889   5.490   8.797  0.9765 -0.7324  2.6808
  152SAPE  C21716891   0.929   5.638   8.647  0.2946 -0.3120 -0.5106
  152SAPE  H17R16892   0.822   5.654   8.621  0.0323  1.4854  1.5630
  152SAPE  H17S16893   0.966   5.558   8.579 -1.4334 -4.1677  2.8648
  152SAPE  C21816894   1.001   5.767   8.614  0.1517  0.2897 -0.2007
  152SAPE  H18R16895   1.111   5.761   8.627  0.0104  0.0765  0.9771
  152SAPE  H18S16896   0.965   5.845   8.684 -1.4811 -0.6931  0.0965
  152SAPE  C21916897   0.974   5.824   8.471  0.1330  0.2262  0.2329
  152SAPE  H19R16898   0.865   5.845   8.468 -0.3413 -1.9073  1.4704
  152SAPE  H19S16899   0.993   5.743   8.398  0.8215  0.9978 -0.4586
  152SAPE  C22016900   1.050   5.947   8.443  0.2071 -0.4046  0.1985
  152SAPE  H20R16901   1.159   5.935   8.454  0.2717 -1.2794 -1.1965
  152SAPE  H20S16902   1.019   6.026   8.514 -0.3286 -0.4603  0.0290
  152SAPE  H20T16903   1.049   5.988   8.340 -0.3721 -0.9003  0.0016
  152SAPE   C3316904   1.013   5.177   9.960 -0.3245  0.9684  0.1264
  152SAPE   H3X16905   0.905   5.156   9.980  0.1637 -1.1920  0.6432
  152SAPE   H3Y16906   1.065   5.124  10.043 -0.8665  0.0318 -0.1199
  152SAPE   C3416907   1.041   5.101   9.832  0.7767  0.9590  0.2267
  152SAPE   H4X16908   1.007   4.998   9.856  0.0768  1.3302  0.8550
  152SAPE   H4Y16909   1.148   5.089   9.806  0.6761  0.5454  0.0074
  152SAPE   C3516910   0.973   5.166   9.709  0.0173 -0.1748  0.5017
  152SAPE   H5X16911   1.019   5.265   9.687 -0.5288 -0.3797 -1.7735
  152SAPE   H5Y16912   0.866   5.190   9.728 -0.3080  0.2468 -1.6694
  152SAPE   C3616913   0.971   5.082   9.591 -0.5819 -0.3845 -0.2074
  152SAPE   H6X16914   0.931   4.982   9.619 -2.3700  1.2293  3.2745
  152SAPE   H6Y16915   1.076   5.071   9.557 -0.3811  0.6907  0.0436
  152SAPE   C3716916   0.884   5.130   9.480  0.3939 -0.2855 -0.0488
  152SAPE   H7X16917   0.893   5.240   9.484 -0.3687 -0.3079  3.9751
  152SAPE   H7Y16918   0.776   5.104   9.484  0.5965 -1.4120 -1.3333
  152SAPE   C3816919   0.935   5.073   9.345  0.8302 -0.0638  0.0727
  152SAPE   H8X16920   0.941   4.962   9.351  0.3147 -0.0118  1.8862
  152SAPE   H8Y16921   1.038   5.109   9.326  0.2202  0.2843 -2.7186
  152SAPE   C3916922   0.851   5.112   9.223 -0.8590  0.4001 -0.6776
  152SAPE   H9X16923   0.876   5.211   9.180  1.1312  0.2225  0.0066
  152SAPE   H9Y16924   0.745   5.123   9.254 -0.3755  0.7415  0.9181
  152SAPE  C31016925   0.852   5.006   9.113 -0.2823 -0.0138 -0.1055
  152SAPE  H10X16926   0.770   5.044   9.048 -0.1850  1.5509  0.6467
  152SAPE  H10Y16927   0.832   4.906   9.156  0.0593  0.5109  1.3107
  152SAPE  C31116928   0.982   5.006   9.021 -0.0482 -0.6404 -0.0485
  152SAPE  H11X16929   1.063   4.977   9.090 -1.4534 -0.8282  1.5495
  152SAPE  H11Y16930   1.009   5.111   8.996 -2.0052 -0.3503 -1.0490
  152SAPE  C31216931   0.979   4.912   8.899  0.2031 -0.4679 -0.4622
  152SAPE  H12X16932   0.957   4.809   8.936  0.6384 -0.4251 -0.0684
  152SAPE  H12Y16933   1.086   4.916   8.868  0.5946  2.0381  0.9992
  152SAPE  C31316934   0.886   4.951   8.785 -0.4043  0.1940  0.0823
  152SAPE  H13X16935   0.942   5.023   8.722 -0.1362  1.0689  1.3073
  152SAPE  H13Y16936   0.796   4.999   8.830 -0.4740  1.1942 -1.0899
  152SAPE  C31416937   0.851   4.825   8.699  0.5050 -0.2770  0.1384
  152SAPE  H14X16938   0.777   4.766   8.758  1.2108  1.1559  2.5457
  152SAPE  H14Y16939   0.947   4.772   8.687 -0.2169 -1.4284 -0.6778
  152SAPE  C31516940   0.790   4.866   8.562  0.5563  0.0189 -0.6604
  152SAPE  H15X16941   0.852   4.940   8.507 -0.7422  1.5602 -0.0776
  152SAPE  H15Y16942   0.693   4.917   8.580  0.1134 -0.1344 -2.5802
  152SAPE  C31616943   0.754   4.754   8.465  0.4878  0.4947  0.0708
  152SAPE  H16X16944   0.701   4.804   8.382  1.2491  1.1350 -0.0341
  152SAPE  H16Y16945   0.676   4.687   8.506  1.5622 -0.6881  0.2260
  152SAPE  C31716946   0.882   4.679   8.412 -0.6682 -0.2135 -0.1780
  152SAPE  H17X16947   0.932   4.631   8.499 -1.4462 -2.7601 -1.0833
  152SAPE  H17Y16948   0.955   4.760   8.393  0.2168 -0.9896 -0.1063
  152SAPE  C31816949   0.874   4.579   8.303  0.2798  0.2516 -0.2421
  152SAPE  H18X16950   0.841   4.633   8.211 -2.6070  0.0118  0.6195
  152SAPE  H18Y16951   0.790   4.508   8.320  0.0047  0.7528  0.5002
  152SAPE  H18Z16952   0.966   4.519   8.285 -0.8902 -1.1562 -1.7008
  153SAPE     N16953   0.409   0.362  10.847  0.4349  0.0260 -0.2398
  153SAPE   HN116954   0.492   0.401  10.895 -0.3628  0.0850  1.1162
  153SAPE   HN216955   0.414   0.381  10.745 -2.0091  3.5124  0.2254
  153SAPE   HN316956   0.321   0.411  10.875  0.6511 -0.4806  1.3911
  153SAPE   C1216957   0.413   0.215  10.862  0.0257  0.3397 -0.0773
  153SAPE  H12A16958   0.321   0.170  10.818  0.1827 -2.1409  2.0055
  153SAPE  H12B16959   0.412   0.189  10.970  0.3888 -1.5607 -0.5158
  153SAPE   C1116960   0.547   0.156  10.801  0.9450  0.2530 -0.3931
  153SAPE  H11A16961   0.538   0.046  10.783 -0.4018 -0.0126  1.7076
  153SAPE  H11B16962   0.621   0.168  10.883  0.5693  2.6501 -0.3915
  153SAPE     P16963   0.738   0.238  10.645  0.5810  0.2137  0.0252
  153SAPE   O1316964   0.768   0.380  10.635 -0.7569 -0.0272  0.1291
  153SAPE   O1416965   0.824   0.152  10.736 -0.2591  0.3299 -0.3811
  153SAPE   O1216966   0.584   0.221  10.686  0.0035 -0.1953 -0.2370
  153SAPE   O1116967   0.738   0.164  10.507 -0.4608  0.3250 -0.2380
  153SAPE    C116968   0.627   0.130  10.425 -0.9962 -0.7802  0.4065
  153SAPE    HA16969   0.549   0.076  10.483 -0.1536 -2.5283 -0.0781
  153SAPE    HB16970   0.583   0.221  10.378  0.4891  0.4285  1.3362
  153SAPE    C216971   0.670   0.032  10.313 -0.2439 -0.2191  0.1081
  153SAPE    HS16972   0.730  -0.044  10.367 -1.5902 -1.3435  0.0558
  153SAPE   O2116973   0.743   0.104  10.213  0.2109  0.6729 -0.6196
  153SAPE   C2116974   0.829   0.039  10.141 -0.1344  0.2729  0.0929
  153SAPE   O2216975   0.864  -0.079  10.159  0.8334 -1.0078 -0.4751
  153SAPE   C2216976   0.876   0.120  10.021  0.2921  0.1648  0.5079
  153SAPE   H2R16977   0.797   0.114   9.943  0.7891 -0.4681  0.0476
  153SAPE   H2S16978   0.899   0.223  10.054 -0.9919 -0.0154  2.0466
  153SAPE    C316979   0.537  -0.038  10.267 -0.2806  0.4453 -0.4036
  153SAPE    HX16980   0.459   0.038  10.246 -1.3515 -0.7883 -0.9231
  153SAPE    HY16981   0.487  -0.102  10.343 -1.7311 -2.4025 -3.6166
  153SAPE   O3116982   0.558  -0.109  10.140  0.3702 -0.6417  0.6121
  153SAPE   C3116983   0.607  -0.231  10.150  0.1793 -0.4229 -0.2538
  153SAPE   O3216984   0.638  -0.288  10.251 -0.5559  0.2552  0.3625
  153SAPE   C3216985   0.604  -0.307  10.021  0.5978 -0.2783  0.3824
  153SAPE   H2X16986   0.547  -0.243   9.950 -0.1033  0.4972  1.6095
  153SAPE   H2Y16987   0.557  -0.404  10.048  2.8196 -1.8592 -1.2664
  153SAPE   C2316988   1.009   0.056   9.956 -0.7279 -0.1064 -0.2233
  153SAPE   H3R16989   0.977  -0.040   9.911 -3.0430 -0.4785  2.0764
  153SAPE   H3S16990   1.072   0.039  10.046 -2.3842  1.1187  1.1923
  153SAPE   C2416991   1.087   0.165   9.872  0.4451 -0.2106  0.0711
  153SAPE   H4R16992   1.175   0.108   9.835  0.4099  0.7269 -1.4811
  153SAPE   H4S16993   1.130   0.234   9.947  0.1814  0.6337 -0.5473
  153SAPE   C2516994   1.013   0.214   9.754 -0.1293 -0.1932  0.1418
  153SAPE   H5R16995   0.973   0.316   9.756  2.0941  0.6753  1.7843
  153SAPE   C2616996   0.992   0.131   9.646  0.4417 -1.1911 -0.1565
  153SAPE   H6R16997   0.930   0.175   9.567  0.9875  1.4379  0.8046
  153SAPE   C2716998   1.031  -0.008   9.623  0.0737 -0.6978 -0.4504
  153SAPE   H7R16999   1.104  -0.039   9.701 -1.2650  0.1413  1.1643
  153SAPE   H7S17000   1.087  -0.001   9.527  0.9794 -1.0582  0.0440
  153SAPE   C2817001   0.911  -0.102   9.618  0.3184 -0.1668 -0.5085
  153SAPE   H8R17002   0.845  -0.102   9.705 -0.9686 -1.1111 -1.4622
  153SAPE   C2917003   0.876  -0.166   9.506  0.4962  0.3183 -0.0889
  153SAPE   H9R17004   0.793  -0.238   9.513  0.1989  0.7055  0.3676
  153SAPE  C21017005   0.954  -0.154   9.381  1.0584  0.4023 -0.7940
  153SAPE  H10R17006   0.927  -0.239   9.314 -1.0292  0.9820 -0.7402
  153SAPE  H10S17007   1.060  -0.175   9.403  1.1283 -1.4902 -2.7278
  153SAPE  C21117008   0.937  -0.030   9.301  0.2020  0.3120 -0.3359
  153SAPE  H11R17009   0.886   0.050   9.357  0.1423  3.4112 -4.5889
  153SAPE  C21217010   0.970  -0.011   9.170 -0.2558  0.0871 -0.2647
  153SAPE  H12R17011   0.939   0.083   9.123 -0.1224  1.5458  2.4516
  153SAPE  C21317012   1.027  -0.108   9.068 -0.4045 -0.2715  0.5293
  153SAPE  H13R17013   0.957  -0.101   8.982 -1.2809  2.4539  1.4104
  153SAPE  H13S17014   1.031  -0.211   9.108 -1.2663 -0.8937 -0.9612
  153SAPE  C21417015   1.166  -0.067   9.034  0.2985  0.0841  0.9887
  153SAPE  H14R17016   1.243  -0.104   9.103 -0.5487  0.9751  2.4405
  153SAPE  C21517017   1.215   0.007   8.933 -0.7102  0.6338  0.4007
  153SAPE  H15R17018   1.320   0.040   8.935  0.3453 -2.0535 -3.2217
  153SAPE  C21617019   1.128   0.067   8.828  0.1153  0.9164  0.0691
  153SAPE  H16R17020   1.090   0.170   8.845  1.2845  1.4683 -0.5511
  153SAPE  H16S17021   1.041   0.002   8.804  1.7975 -1.0936 -0.7204
  153SAPE  C21717022   1.203   0.073   8.694  0.1121 -0.1553 -0.2211
  153SAPE  H17R17023   1.236  -0.029   8.666 -0.2514 -0.1810 -0.5628
  153SAPE  H17S17024   1.295   0.135   8.705 -0.0507 -0.0776  0.8234
  153SAPE  C21817025   1.105   0.130   8.594 -0.4637 -0.4865  0.5308
  153SAPE  H18R17026   1.067   0.230   8.624  0.9982 -0.1963  1.4679
  153SAPE  H18S17027   1.017   0.063   8.591  0.7437 -2.0713  0.0688
  153SAPE  C21917028   1.168   0.139   8.453  0.1986 -0.4582 -0.2772
  153SAPE  H19R17029   1.222   0.045   8.430  0.9235 -0.8102  2.6315
  153SAPE  H19S17030   1.245   0.218   8.441 -0.8372  0.4083 -1.4228
  153SAPE  C22017031   1.052   0.173   8.354  0.3993 -0.2485  0.0782
  153SAPE  H20R17032   1.003   0.265   8.392 -0.2448 -0.3823 -0.4075
  153SAPE  H20S17033   0.977   0.091   8.348 -0.2483  0.5252 -3.5310
  153SAPE  H20T17034   1.094   0.203   8.256  0.0303  0.1202  0.0314
  153SAPE   C3317035   0.748  -0.334   9.967  0.2467  0.2457 -0.6320
  153SAPE   H3X17036   0.812  -0.350  10.057 -1.1180 -0.0475  0.3034
  153SAPE   H3Y17037   0.787  -0.248   9.908 -1.6632  1.9051  0.4669
  153SAPE   C3417038   0.744  -0.462   9.875 -0.7098 -0.3028 -0.4620
  153SAPE   H4X17039   0.704  -0.543   9.940  0.1350  0.1396  0.6274
  153SAPE   H4Y17040   0.851  -0.479   9.852 -0.7617  0.0438 -0.9614
  153SAPE   C3517041   0.656  -0.452   9.749 -0.0670  0.0642 -0.1107
  153SAPE   H5X17042   0.701  -0.378   9.679  0.8960  1.0731  1.5265
  153SAPE   H5Y17043   0.552  -0.422   9.773  0.1782  0.1116  0.9330
  153SAPE   C3617044   0.657  -0.590   9.678  0.0687 -0.6311  0.1229
  153SAPE   H6X17045   0.608  -0.669   9.739  0.0176 -1.7570 -1.3189
  153SAPE   H6Y17046   0.762  -0.615   9.653  0.1338 -0.5663  0.3375
  153SAPE   C3717047   0.587  -0.590   9.545 -0.1043 -0.4170 -0.2373
  153SAPE   H7X17048   0.476  -0.591   9.557  0.0111  0.4341  1.0786
  153SAPE   H7Y17049   0.621  -0.684   9.497 -2.1384 -1.6109  0.5527
  153SAPE   C3817050   0.624  -0.471   9.449  0.1244  0.5290 -0.2852
  153SAPE   H8X17051   0.734  -0.467   9.436  0.1529 -1.6395 -0.9226
  153SAPE   H8Y17052   0.574  -0.381   9.491 -0.6177  0.4395 -0.9676
  153SAPE   C3917053   0.582  -0.493   9.302 -0.0640 -0.4045  0.3972
  153SAPE   H9X17054   0.475  -0.514   9.284 -0.3278 -1.2553  2.7891
  153SAPE   H9Y17055   0.646  -0.578   9.270 -0.3430 -0.5140  0.1367
  153SAPE  C31017056   0.618  -0.369   9.221  0.4819  0.2673 -1.0113
  153SAPE  H10X17057   0.708  -0.324   9.267  1.2684 -0.8873 -1.3912
  153SAPE  H10Y17058   0.540  -0.290   9.216  1.7033  1.5182 -0.5735
  153SAPE  C31117059   0.649  -0.418   9.075 -1.5040 -0.4523  0.6176
  153SAPE  H11X17060   0.563  -0.473   9.031 -3.3035  1.6390  1.4331
  153SAPE  H11Y17061   0.733  -0.490   9.088 -0.7888  0.4104  0.8073
  153SAPE  C31217062   0.689  -0.304   8.983 -0.7852 -0.0757  0.0809
  153SAPE  H12X17063   0.769  -0.241   9.029 -0.3519  0.1491 -0.9596
  153SAPE  H12Y17064   0.600  -0.241   8.961  0.8257  2.4027  0.5331
  153SAPE  C31317065   0.736  -0.361   8.845 -0.7086 -0.0664 -0.8100
  153SAPE  H13X17066   0.649  -0.413   8.799 -0.9727  0.1413 -0.5498
  153SAPE  H13Y17067   0.813  -0.436   8.876  1.7883  2.5871 -0.4250
  153SAPE  C31417068   0.799  -0.261   8.749 -0.1234 -0.1518 -0.0183
  153SAPE  H14X17069   0.905  -0.236   8.776 -0.6066  0.5836  1.2780
  153SAPE  H14Y17070   0.744  -0.165   8.756 -0.2556 -0.2699  0.6197
  153SAPE  C31517071   0.792  -0.289   8.599  0.0529 -0.6757  0.5682
  153SAPE  H15X17072   0.697  -0.263   8.549  0.8686 -0.0498 -0.6891
  153SAPE  H15Y17073   0.813  -0.396   8.577 -0.1003 -0.9261  1.6190
  153SAPE  C31617074   0.901  -0.204   8.521  0.2668  0.0952  0.7505
  153SAPE  H16X17075   0.997  -0.246   8.557  3.2409  2.2917 -4.1916
  153SAPE  H16Y17076   0.876  -0.097   8.537 -1.1788  0.1491 -1.6363
  153SAPE  C31717077   0.908  -0.218   8.364  0.1834 -0.0578 -0.6253
  153SAPE  H17X17078   0.981  -0.141   8.329 -1.2574  2.3008  1.4029
  153SAPE  H17Y17079   0.815  -0.197   8.307  0.3571  0.0490 -0.8685
  153SAPE  C31817080   0.965  -0.360   8.324 -0.1509  0.4730  0.1998
  153SAPE  H18X17081   1.056  -0.383   8.383 -0.7606  0.9361  1.3325
  153SAPE  H18Y17082   0.987  -0.365   8.215 -0.7353 -1.9385  0.1670
  153SAPE  H18Z17083   0.900  -0.445   8.354 -0.0137  0.4501  0.4296
  154SAPE     N17084   1.809   0.077  10.840 -0.5326 -0.5345  0.1218
  154SAPE   HN117085   1.905   0.049  10.869 -0.2384  0.0076 -0.2944
  154SAPE   HN217086   1.756  -0.012  10.837 -2.1181  0.3692  0.5455
  154SAPE   HN317087   1.819   0.113  10.743 -2.1718 -0.4499 -0.0363
  154SAPE   C1217088   1.749   0.161  10.945  0.2691 -0.0374 -0.4110
  154SAPE  H12A17089   1.805   0.255  10.967  0.9066 -1.1328  3.0877
  154SAPE  H12B17090   1.749   0.102  11.040  0.8822 -1.1621 -1.0992
  154SAPE   C1117091   1.604   0.204  10.909  0.1120  0.0825  0.3985
  154SAPE  H11A17092   1.600   0.262  10.815  1.4782 -0.8041 -0.2217
  154SAPE  H11B17093   1.583   0.276  10.991  2.5662 -0.0961  1.2164
  154SAPE     P17094   1.378   0.104  10.829  0.1834 -0.7948 -0.2324
  154SAPE   O1317095   1.319  -0.030  10.810  0.5388 -0.2232 -0.2765
  154SAPE   O1417096   1.293   0.204  10.893 -0.6606 -0.0889 -0.0652
  154SAPE   O1217097   1.513   0.090  10.912  0.0751  0.0989 -0.3120
  154SAPE   O1117098   1.426   0.159  10.690 -0.0261  0.5913  0.6063
  154SAPE    C117099   1.455   0.069  10.586  0.0082  0.0812  0.4476
  154SAPE    HA17100   1.554   0.026  10.612 -0.4326  0.0734  2.1122
  154SAPE    HB17101   1.386  -0.018  10.581  0.2799 -0.0879 -0.5279
  154SAPE    C217102   1.463   0.142  10.452 -0.1012 -0.1783  0.7021
  154SAPE    HS17103   1.355   0.165  10.441 -0.2980 -0.8002  1.3464
  154SAPE   O2117104   1.519   0.056  10.346  0.0455  0.3828  0.1438
  154SAPE   C2117105   1.431   0.017  10.253 -0.1305  0.1224 -0.2675
  154SAPE   O2217106   1.319   0.057  10.233 -0.7602 -0.5332 -0.5174
  154SAPE   C2217107   1.512  -0.078  10.168  0.3333 -0.0434 -0.0649
  154SAPE   H2R17108   1.587  -0.021  10.109  1.4671 -0.6303  0.7704
  154SAPE   H2S17109   1.574  -0.143  10.234  0.6971 -2.8617 -3.0513
  154SAPE    C317110   1.545   0.276  10.453 -0.3807 -0.1441  0.1526
  154SAPE    HX17111   1.641   0.256  10.504  0.4020  0.7437 -0.9437
  154SAPE    HY17112   1.488   0.339  10.524  2.9422  1.9178  1.1138
  154SAPE   O3117113   1.562   0.342  10.327 -0.5475 -0.3297  0.5569
  154SAPE   C3117114   1.458   0.407  10.295  0.2865  0.2272  0.2845
  154SAPE   O3217115   1.346   0.411  10.348  0.4377 -0.0063 -0.0866
  154SAPE   C3217116   1.482   0.482  10.160 -0.1706 -0.0623  0.1160
  154SAPE   H2X17117   1.592   0.487  10.144  0.0666 -1.5287  1.1848
  154SAPE   H2Y17118   1.430   0.579  10.172  0.8824  0.6251 -0.7541
  154SAPE   C2317119   1.420  -0.173  10.085  0.3523  0.0425 -0.7050
  154SAPE   H3R17120   1.341  -0.114  10.033 -1.3189 -2.5401 -1.1733
  154SAPE   H3S17121   1.377  -0.243  10.160 -0.4952  0.7952 -0.4766
  154SAPE   C2417122   1.493  -0.241   9.968  0.3881 -0.2858  0.0964
  154SAPE   H4R17123   1.417  -0.307   9.920 -1.0262  1.5880 -0.3128
  154SAPE   H4S17124   1.563  -0.318  10.006 -1.9161 -2.4295  0.1138
  154SAPE   C2517125   1.562  -0.159   9.858 -0.8426 -0.0247 -0.0427
  154SAPE   H5R17126   1.639  -0.094   9.901  2.6121 -1.6449 -3.4614
  154SAPE   C2617127   1.549  -0.173   9.728  0.2444  0.7638 -0.0798
  154SAPE   H6R17128   1.601  -0.105   9.659 -1.5037  1.5888 -0.5977
  154SAPE   C2717129   1.456  -0.281   9.668 -0.3123 -0.2116 -0.3440
  154SAPE   H7R17130   1.396  -0.340   9.740  0.3285 -0.4903 -0.0406
  154SAPE   H7S17131   1.525  -0.349   9.613  1.2409  0.1298  1.1481
  154SAPE   C2817132   1.348  -0.214   9.586 -0.7184 -0.5371  0.2458
  154SAPE   H8R17133   1.263  -0.179   9.647  0.3712  0.3515  1.2889
  154SAPE   C2917134   1.351  -0.176   9.461 -0.6066  0.6658 -0.2169
  154SAPE   H9R17135   1.255  -0.126   9.438 -1.0298  0.8246  1.7763
  154SAPE  C21017136   1.458  -0.200   9.358 -0.6199 -0.6559  0.5341
  154SAPE  H10R17137   1.543  -0.257   9.403 -0.2847 -0.2405  0.4272
  154SAPE  H10S17138   1.501  -0.100   9.340 -1.3433 -0.3680  0.3781
  154SAPE  C21117139   1.408  -0.286   9.242  0.0427 -0.3371  0.2195
  154SAPE  H11R17140   1.330  -0.360   9.265 -1.9649  2.0560  1.2203
  154SAPE  C21217141   1.458  -0.280   9.118  0.3190 -0.1230 -0.8516
  154SAPE  H12R17142   1.431  -0.364   9.052 -0.0139  1.3244 -2.5848
  154SAPE  C21317143   1.573  -0.198   9.073 -1.0248  0.0538  0.3975
  154SAPE  H13R17144   1.620  -0.140   9.155  2.3437  0.3517 -1.6409
  154SAPE  H13S17145   1.545  -0.119   9.000 -0.9397 -0.4092 -0.1412
  154SAPE  C21417146   1.690  -0.279   9.020  0.5414 -0.1236  0.4035
  154SAPE  H14R17147   1.762  -0.313   9.096  1.1823  0.0827 -0.1168
  154SAPE  C21517148   1.716  -0.321   8.897 -0.1645  0.3057 -1.0787
  154SAPE  H15R17149   1.807  -0.377   8.872  0.2440  0.9818 -1.1026
  154SAPE  C21617150   1.629  -0.294   8.776  0.4284 -0.0237 -0.2130
  154SAPE  H16R17151   1.543  -0.229   8.802  1.2766  0.5801  1.1659
  154SAPE  H16S17152   1.592  -0.389   8.732  0.4742  0.7614 -1.9912
  154SAPE  C21717153   1.698  -0.214   8.663 -0.8588 -0.5848 -0.2202
  154SAPE  H17R17154   1.783  -0.276   8.625 -1.0853 -0.2826 -1.2323
  154SAPE  H17S17155   1.746  -0.125   8.707  0.5979 -1.1218 -0.6808
  154SAPE  C21817156   1.610  -0.191   8.540  0.0284 -0.5402 -0.2670
  154SAPE  H18R17157   1.508  -0.159   8.569 -0.6482 -1.4220 -1.6399
  154SAPE  H18S17158   1.588  -0.287   8.488  1.4977  0.2999 -2.5554
  154SAPE  C21917159   1.661  -0.087   8.450  1.3183  0.4723 -0.4699
  154SAPE  H19R17160   1.746  -0.113   8.384 -0.9628  1.1007 -3.7958
  154SAPE  H19S17161   1.699  -0.017   8.528  0.0677  1.2831 -0.5772
  154SAPE  C22017162   1.560  -0.019   8.357 -0.5524 -0.0224  0.5379
  154SAPE  H20R17163   1.477   0.026   8.415 -1.6817  0.1027 -1.1230
  154SAPE  H20S17164   1.513  -0.084   8.280 -2.6997  0.2801  1.5392
  154SAPE  H20T17165   1.608   0.071   8.312 -1.7120  0.1889 -0.3240
  154SAPE   C3317166   1.424   0.404  10.041 -0.1260  0.8263  0.7026
  154SAPE   H3X17167   1.415   0.478   9.959  0.5452 -0.7327 -0.7981
  154SAPE   H3Y17168   1.328   0.354  10.066 -0.8824  1.1879 -1.4148
  154SAPE   C3417169   1.520   0.286   9.990  0.1333 -0.2004  0.1313
  154SAPE   H4X17170   1.529   0.223  10.081 -0.9468  1.0158  1.0938
  154SAPE   H4Y17171   1.625   0.320   9.972 -0.6696  1.5976 -1.2407
  154SAPE   C3517172   1.474   0.222   9.856 -0.1690  0.1259  0.3648
  154SAPE   H5X17173   1.364   0.213   9.868 -0.2457  1.3389  0.6512
  154SAPE   H5Y17174   1.523   0.123   9.842 -1.8678 -1.1779  3.1105
  154SAPE   C3617175   1.499   0.311   9.732  0.1537 -0.4816  0.2810
  154SAPE   H6X17176   1.608   0.324   9.712 -0.0519 -1.5114 -1.6151
  154SAPE   H6Y17177   1.459   0.412   9.752  2.5686  1.0538 -2.2400
  154SAPE   C3717178   1.447   0.252   9.602  0.1655  0.0505  0.7454
  154SAPE   H7X17179   1.338   0.236   9.612  0.4465 -3.3639 -1.0710
  154SAPE   H7Y17180   1.493   0.152   9.591 -0.4483 -0.4158  2.3443
  154SAPE   C3817181   1.469   0.332   9.476 -0.0595  0.0480 -0.3380
  154SAPE   H8X17182   1.577   0.351   9.463 -0.2134  0.4866 -1.0053
  154SAPE   H8Y17183   1.419   0.432   9.475 -1.6006 -0.6890  0.6103
  154SAPE   C3917184   1.423   0.254   9.354 -0.3861  0.0116 -0.4026
  154SAPE   H9X17185   1.315   0.266   9.331 -0.6689 -1.0733  0.3196
  154SAPE   H9Y17186   1.462   0.150   9.348  1.3151  0.6880 -1.3925
  154SAPE  C31017187   1.504   0.303   9.230 -0.1349 -0.0394  0.1969
  154SAPE  H10X17188   1.611   0.275   9.233 -0.4758 -1.6863 -2.1440
  154SAPE  H10Y17189   1.488   0.413   9.230 -3.1248 -0.4335 -1.0724
  154SAPE  C31117190   1.435   0.264   9.094  0.6684  0.2328  0.4678
  154SAPE  H11X17191   1.326   0.285   9.096  0.3296 -1.3875 -0.2997
  154SAPE  H11Y17192   1.451   0.156   9.075 -2.2175 -0.1222 -0.0847
  154SAPE  C31217193   1.495   0.348   8.978 -0.2469 -0.1319 -0.3479
  154SAPE  H12X17194   1.470   0.455   8.992  0.6583  0.1906 -1.0971
  154SAPE  H12Y17195   1.441   0.312   8.888  0.5963 -0.6789 -0.6423
  154SAPE  C31317196   1.648   0.338   8.949  0.3602  0.4147  0.5161
  154SAPE  H13X17197   1.711   0.335   9.041 -0.7316  0.1499  1.2671
  154SAPE  H13Y17198   1.665   0.420   8.876  1.0767 -0.1963 -0.0166
  154SAPE  C31417199   1.690   0.202   8.888  0.7227  0.4954  0.2639
  154SAPE  H14X17200   1.636   0.124   8.945 -0.6655  1.2062 -0.0541
  154SAPE  H14Y17201   1.799   0.186   8.901  0.8528  1.3815  0.2555
  154SAPE  C31517202   1.650   0.177   8.743  0.2917  1.0838  0.3976
  154SAPE  H15X17203   1.550   0.226   8.740  0.1247  0.6768 -1.0485
  154SAPE  H15Y17204   1.629   0.071   8.717  2.6166  1.1406 -1.9766
  154SAPE  C31617205   1.746   0.241   8.642 -0.0637  0.4508 -0.2687
  154SAPE  H16X17206   1.759   0.350   8.656  0.6742  0.2981  0.2726
  154SAPE  H16Y17207   1.685   0.251   8.550 -0.5791  2.9716  0.3261
  154SAPE  C31717208   1.888   0.178   8.634 -0.1093 -0.5904  0.4473
  154SAPE  H17X17209   1.894   0.068   8.618  1.5300 -0.3147 -1.0203
  154SAPE  H17Y17210   1.946   0.203   8.726 -1.2555 -1.1842  1.3366
  154SAPE  C31817211   1.980   0.240   8.521 -0.0843  0.0389  0.4451
  154SAPE  H18X17212   1.939   0.222   8.420 -2.5995 -0.0146  1.4485
  154SAPE  H18Y17213   2.080   0.191   8.524 -0.1233 -0.0790 -0.2222
  154SAPE  H18Z17214   1.987   0.350   8.528 -0.9768  0.0634  0.9624
  155SAPE     N17215   3.455   1.410  10.661  0.6111  0.0144  0.7360
  155SAPE   HN117216   3.518   1.336  10.624  0.8445  0.5924 -0.0245
  155SAPE   HN217217   3.357   1.405  10.626  0.8463  1.6811 -0.1747
  155SAPE   HN317218   3.500   1.492  10.617 -2.3153  1.0480 -0.4634
  155SAPE   C1217219   3.464   1.414  10.809 -0.4680 -0.1564  0.1661
  155SAPE  H12A17220   3.436   1.518  10.838  3.6724  1.4577 -1.2162
  155SAPE  H12B17221   3.567   1.401  10.849 -0.2057  0.1129 -0.4104
  155SAPE   C1117222   3.376   1.311  10.878 -0.0047  0.5739 -0.3960
  155SAPE  H11A17223   3.267   1.318  10.857 -0.4860 -1.4103  1.2968
  155SAPE  H11B17224   3.380   1.333  10.986 -0.6464 -1.4526  0.0623
  155SAPE     P17225   3.341   1.045  10.866  0.5847 -0.0444  0.5380
  155SAPE   O1317226   3.425   0.931  10.891 -0.4912  0.2781 -0.4341
  155SAPE   O1417227   3.226   1.068  10.963 -0.1552  0.1052  0.5901
  155SAPE   O1217228   3.428   1.176  10.853 -0.7750 -0.0707  0.3911
  155SAPE   O1117229   3.289   1.021  10.716  0.2309 -0.1510  0.5411
  155SAPE    C117230   3.383   1.016  10.604 -0.6001  0.4120 -0.5473
  155SAPE    HA17231   3.387   1.116  10.555  0.1259  0.3438 -0.6396
  155SAPE    HB17232   3.485   0.986  10.637 -1.0940 -1.7179 -0.8721
  155SAPE    C217233   3.328   0.918  10.498  1.3561 -0.1694  0.4044
  155SAPE    HS17234   3.400   0.921  10.413  0.2854 -1.4182 -0.5574
  155SAPE   O2117235   3.192   0.953  10.456 -0.1032 -0.4316  0.0787
  155SAPE   C2117236   3.180   1.038  10.358 -0.2919  0.2213  0.1777
  155SAPE   O2217237   3.264   1.106  10.302 -0.1231  0.1210  0.0938
  155SAPE   C2217238   3.034   1.050  10.324  0.0771  0.3899 -0.1194
  155SAPE   H2R17239   2.977   0.957  10.345 -0.3221  0.9556  1.3754
  155SAPE   H2S17240   2.998   1.120  10.404  1.1788  0.8750 -0.0322
  155SAPE    C317241   3.331   0.768  10.543  0.4286  0.1168 -0.4145
  155SAPE    HX17242   3.275   0.756  10.639 -0.4478 -2.4366 -1.1935
  155SAPE    HY17243   3.435   0.752  10.578  0.4879  0.6742 -0.3315
  155SAPE   O3117244   3.291   0.674  10.440  0.0504  0.5116 -0.2506
  155SAPE   C3117245   3.163   0.652  10.413  0.4970  0.6636 -0.7208
  155SAPE   O3217246   3.070   0.699  10.470 -0.2475  0.1562  0.0454
  155SAPE   C3217247   3.156   0.547  10.301 -0.1502 -0.2120  0.5384
  155SAPE   H2X17248   3.111   0.462  10.358 -4.0531  1.6479  0.3745
  155SAPE   H2Y17249   3.260   0.519  10.274  0.4661  1.1843  1.4424
  155SAPE   C2317250   3.014   1.102  10.182  0.5186 -0.3330  0.0577
  155SAPE   H3R17251   3.084   1.187  10.166 -0.5377  0.0549 -2.7747
  155SAPE   H3S17252   2.909   1.134  10.166  0.9691  1.9260  1.3990
  155SAPE   C2417253   3.037   0.996  10.076  0.1202 -0.3797  0.3779
  155SAPE   H4R17254   2.952   0.924  10.070  0.3873 -0.5667 -1.3171
  155SAPE   H4S17255   3.129   0.937  10.096  0.4124 -0.2288 -0.5077
  155SAPE   C2517256   3.063   1.053   9.938 -0.2374  0.1240 -0.5295
  155SAPE   H5R17257   3.019   1.149   9.907  0.3189  0.5434 -0.0237
  155SAPE   C2617258   3.134   0.985   9.843 -0.0092  0.3110 -0.1324
  155SAPE   H6R17259   3.135   1.026   9.740 -1.5172 -6.1512 -2.9785
  155SAPE   C2717260   3.189   0.847   9.865 -0.3690  0.6105  0.7635
  155SAPE   H7R17261   3.164   0.779   9.780  0.1331  0.8946  0.3893
  155SAPE   H7S17262   3.135   0.794   9.947  0.8686  0.5471  1.5492
  155SAPE   C2817263   3.336   0.821   9.901 -0.0693  0.3719 -0.3298
  155SAPE   H8R17264   3.362   0.851  10.004 -1.5964 -1.7570  0.7111
  155SAPE   C2917265   3.434   0.783   9.815 -0.2184  0.5565  0.5054
  155SAPE   H9R17266   3.534   0.769   9.858 -0.2554 -0.7105  0.1689
  155SAPE  C21017267   3.421   0.757   9.661  0.6174  0.3465  0.3910
  155SAPE  H10R17268   3.520   0.749   9.612  0.0870  0.2636 -0.6731
  155SAPE  H10S17269   3.376   0.848   9.616 -0.2808 -0.8897 -1.2850
  155SAPE  C21117270   3.360   0.631   9.614 -1.0208  0.0446  0.2982
  155SAPE  H11R17271   3.364   0.552   9.690  1.5299  1.9214  2.1866
  155SAPE  C21217272   3.304   0.599   9.495  0.1139  0.1881  0.2362
  155SAPE  H12R17273   3.290   0.493   9.468  3.7039 -0.1213 -0.6360
  155SAPE  C21317274   3.285   0.695   9.381 -0.6566 -0.2068  0.6666
  155SAPE  H13R17275   3.266   0.800   9.411 -1.0080  0.0373 -0.4152
  155SAPE  H13S17276   3.189   0.663   9.334 -0.1410  0.3207 -0.7578
  155SAPE  C21417277   3.395   0.700   9.279  0.3497  0.2827  0.0141
  155SAPE  H14R17278   3.496   0.708   9.322 -0.2235 -0.1054  1.4665
  155SAPE  C21517279   3.390   0.696   9.146 -0.5819  0.6760 -0.1435
  155SAPE  H15R17280   3.488   0.685   9.098  1.0794  1.0780  3.0292
  155SAPE  C21617281   3.266   0.705   9.062 -0.0570 -0.8056 -0.2788
  155SAPE  H16R17282   3.176   0.744   9.115 -1.0282 -2.1102 -0.9301
  155SAPE  H16S17283   3.226   0.607   9.031 -1.3789 -0.3951  0.1030
  155SAPE  C21717284   3.282   0.792   8.938  0.1253  0.1261  0.0156
  155SAPE  H17R17285   3.346   0.741   8.863 -1.6648 -2.5490  0.2248
  155SAPE  H17S17286   3.344   0.879   8.968  1.3696 -0.8665  0.3493
  155SAPE  C21817287   3.150   0.834   8.871 -0.9331 -0.0359 -0.1884
  155SAPE  H18R17288   3.097   0.748   8.824 -1.0714  0.5957 -1.2054
  155SAPE  H18S17289   3.168   0.909   8.791 -0.8712 -0.2380 -0.3633
  155SAPE  C21917290   3.057   0.920   8.959  0.0468  0.3769 -0.1271
  155SAPE  H19R17291   3.106   1.013   8.996  1.7984  0.0089 -1.4421
  155SAPE  H19S17292   3.027   0.872   9.055  1.2841 -0.8659 -0.3566
  155SAPE  C22017293   2.919   0.945   8.895 -0.1584 -0.4622 -0.9353
  155SAPE  H20R17294   2.851   0.857   8.900 -1.2883  0.4658  0.0860
  155SAPE  H20S17295   2.934   0.960   8.786 -0.8931  0.4033 -0.9185
  155SAPE  H20T17296   2.873   1.036   8.938 -0.3415  0.2843 -2.6581
  155SAPE   C3317297   3.064   0.581  10.180 -0.0122  0.2911  0.1770
  155SAPE   H3X17298   3.085   0.683  10.140 -0.3662  0.0177 -0.7191
  155SAPE   H3Y17299   2.963   0.574  10.225  0.0591  0.3812  0.3482
  155SAPE   C3417300   3.088   0.469  10.082 -0.1380  0.8300 -0.3672
  155SAPE   H4X17301   3.069   0.371  10.130  0.4966  1.1473  0.5501
  155SAPE   H4Y17302   3.193   0.478  10.047  0.4508 -0.7339  0.9559
  155SAPE   C3517303   2.999   0.468   9.955  0.3841  0.0439  0.7933
  155SAPE   H5X17304   2.991   0.568   9.907 -0.0153 -1.0201 -1.4271
  155SAPE   H5Y17305   2.898   0.438   9.988  0.6950 -0.3390  1.4104
  155SAPE   C3617306   3.063   0.373   9.852  1.3758 -0.4163  0.1457
  155SAPE   H6X17307   3.085   0.266   9.875  1.6615 -0.3111  0.3639
  155SAPE   H6Y17308   3.160   0.418   9.822  0.9763 -0.5473 -1.4135
  155SAPE   C3717309   2.984   0.371   9.725  0.0074 -0.0764  0.6395
  155SAPE   H7X17310   2.945   0.475   9.720  0.1063 -0.1145 -1.9994
  155SAPE   H7Y17311   2.896   0.303   9.726  0.3856 -0.5647  0.8416
  155SAPE   C3817312   3.074   0.333   9.601  0.5494 -0.4526  0.6670
  155SAPE   H8X17313   3.104   0.226   9.591  2.3774  0.3231 -3.0090
  155SAPE   H8Y17314   3.161   0.401   9.598 -1.5082  2.2618  1.2364
  155SAPE   C3917315   2.996   0.358   9.472 -0.5366  0.1460 -0.1937
  155SAPE   H9X17316   2.957   0.462   9.481  0.7506  0.6712 -0.4791
  155SAPE   H9Y17317   2.902   0.299   9.468 -0.0103 -0.7844  1.0023
  155SAPE  C31017318   3.080   0.349   9.339  0.3161  0.3237  0.1190
  155SAPE  H10X17319   3.147   0.261   9.355  0.5144  0.5690  0.6541
  155SAPE  H10Y17320   3.146   0.436   9.318  0.5755  0.5773  1.9022
  155SAPE  C31117321   3.004   0.320   9.212  0.7602 -0.7494 -0.2375
  155SAPE  H11X17322   2.921   0.249   9.232 -0.1238 -0.2217 -1.9322
  155SAPE  H11Y17323   3.074   0.270   9.142  0.5020 -0.0248 -1.0221
  155SAPE  C31217324   2.950   0.451   9.148  0.2544 -0.2252 -0.3500
  155SAPE  H12X17325   3.037   0.518   9.135  0.4137 -0.2091  0.7135
  155SAPE  H12Y17326   2.876   0.490   9.221 -0.4462 -2.2474  0.0646
  155SAPE  C31317327   2.890   0.430   9.011  0.2489 -0.1274  0.2281
  155SAPE  H13X17328   2.792   0.383   9.033 -0.6290  1.7417  0.4496
  155SAPE  H13Y17329   2.955   0.363   8.950 -0.5381  1.2970 -2.2766
  155SAPE  C31417330   2.877   0.560   8.930  0.1160 -0.8032  1.2063
  155SAPE  H14X17331   2.979   0.602   8.913 -0.6132  1.1856  1.6486
  155SAPE  H14Y17332   2.805   0.630   8.976 -0.5563 -1.9059  1.8513
  155SAPE  C31517333   2.815   0.531   8.796 -0.0978  0.8683  0.0973
  155SAPE  H15X17334   2.714   0.493   8.823  0.1190 -0.0762 -0.4177
  155SAPE  H15Y17335   2.871   0.448   8.749  0.0378  1.4287 -0.7294
  155SAPE  C31617336   2.810   0.649   8.697 -0.2428 -0.1204  0.5132
  155SAPE  H16X17337   2.912   0.659   8.654 -0.0935 -3.5900 -0.1114
  155SAPE  H16Y17338   2.777   0.743   8.745  1.0587  1.4971 -1.6579
  155SAPE  C31717339   2.725   0.600   8.582 -0.1863  0.1961  0.4049
  155SAPE  H17X17340   2.619   0.576   8.607 -0.3563  1.1810  0.6718
  155SAPE  H17Y17341   2.770   0.507   8.542  2.6358  1.6422  0.1134
  155SAPE  C31817342   2.723   0.696   8.465 -0.5933  0.0434  0.1943
  155SAPE  H18X17343   2.656   0.779   8.494 -1.5259 -1.2540  1.9355
  155SAPE  H18Y17344   2.695   0.646   8.370 -0.1793 -0.0867  0.1409
  155SAPE  H18Z17345   2.825   0.732   8.442 -1.0375  1.5648  0.5635
  156SAPE     N17346   0.366   5.271  10.289  0.0127  0.4732 -0.5788
  156SAPE   HN117347   0.466   5.246  10.278  0.3101  1.2947  0.1953
  156SAPE   HN217348   0.310   5.243  10.206  3.7214 -3.0603 -2.0011
  156SAPE   HN317349   0.356   5.375  10.281  1.0428  0.5264 -1.1754
  156SAPE   C1217350   0.305   5.216  10.423  0.2137  0.6073 -0.0110
  156SAPE  H12A17351   0.385   5.185  10.494 -1.6688  0.1925  1.9975
  156SAPE  H12B17352   0.257   5.124  10.386 -0.6978  1.6398 -1.4478
  156SAPE   C1117353   0.204   5.323  10.489 -0.1134  0.3451 -0.2220
  156SAPE  H11A17354   0.264   5.399  10.543 -0.3662  1.7051 -1.7902
  156SAPE  H11B17355   0.147   5.267  10.566  0.2184  0.1823 -0.0945
  156SAPE     P17356   0.112   5.525  10.364 -0.1307 -0.1571 -0.0769
  156SAPE   O1317357  -0.003   5.546  10.278  0.4102  0.0822 -0.0549
  156SAPE   O1417358   0.123   5.613  10.479  0.0789  0.2635  0.0697
  156SAPE   O1217359   0.116   5.377  10.401 -0.1520 -0.8762 -0.0962
  156SAPE   O1117360   0.250   5.536  10.289  0.5519  0.2746 -0.3677
  156SAPE    C117361   0.306   5.659  10.254  0.1038 -0.1694 -0.4972
  156SAPE    HA17362   0.233   5.738  10.224 -1.2126 -0.8830  0.7971
  156SAPE    HB17363   0.358   5.706  10.340 -0.9162 -0.9597  0.5631
  156SAPE    C217364   0.410   5.649  10.133 -0.9684 -0.2630 -0.1361
  156SAPE    HS17365   0.449   5.750  10.108 -1.0958 -0.6485 -1.9429
  156SAPE   O2117366   0.354   5.596  10.016  0.0183 -0.3073 -0.2824
  156SAPE   C2117367   0.235   5.644   9.966  0.1989  0.4028 -0.0105
  156SAPE   O2217368   0.178   5.744  10.003  0.1369 -0.4023 -0.1402
  156SAPE   C2217369   0.196   5.564   9.846 -0.2460 -0.7539  0.1852
  156SAPE   H2R17370   0.286   5.522   9.795 -0.3051 -1.5968  0.7696
  156SAPE   H2S17371   0.122   5.493   9.890 -0.3155 -0.4886  0.4961
  156SAPE    C317372   0.542   5.575  10.179 -0.8272  0.9983  0.4632
  156SAPE    HX17373   0.502   5.482  10.223 -2.1078  0.9105 -0.8211
  156SAPE    HY17374   0.595   5.637  10.255 -0.4905  0.0419  1.0029
  156SAPE   O3117375   0.633   5.541  10.070 -0.6077  0.0126 -0.1880
  156SAPE   C3117376   0.598   5.421  10.011  1.1604  0.1698 -0.0354
  156SAPE   O3217377   0.508   5.342  10.049  0.2850 -0.6139  0.0428
  156SAPE   C3217378   0.684   5.405   9.880  0.5863 -0.4057 -0.4420
  156SAPE   H2X17379   0.702   5.296   9.866  0.4447 -0.5362  0.3407
  156SAPE   H2Y17380   0.778   5.461   9.896 -0.4678  0.7922  1.7997
  156SAPE   C2317381   0.116   5.649   9.744 -0.4381 -0.2234  0.7420
  156SAPE   H3R17382   0.177   5.732   9.703  2.1245 -2.3152  0.1206
  156SAPE   H3S17383   0.025   5.687   9.795 -0.0349  1.6137  0.1261
  156SAPE   C2417384   0.068   5.558   9.627  0.0716 -0.7408 -0.4045
  156SAPE   H4R17385   0.002   5.475   9.658 -1.9340  1.1405  0.4953
  156SAPE   H4S17386   0.167   5.513   9.605  1.6745  2.4314  0.0310
  156SAPE   C2517387  -0.002   5.625   9.514  0.2963 -0.5177  0.1538
  156SAPE   H5R17388  -0.110   5.646   9.520  0.1493 -0.0445 -3.1296
  156SAPE   C2617389   0.043   5.662   9.390  0.0176 -0.4901  0.3341
  156SAPE   H6R17390  -0.020   5.729   9.330  1.2410  0.3077 -0.0910
  156SAPE   C2717391   0.186   5.637   9.331  0.2822  0.3036  0.2266
  156SAPE   H7R17392   0.248   5.625   9.422 -1.2932  1.8504  1.5161
  156SAPE   H7S17393   0.214   5.730   9.276 -1.3737 -0.4325 -1.9739
  156SAPE   C2817394   0.202   5.518   9.241  0.6232 -0.3171  0.8852
  156SAPE   H8R17395   0.240   5.433   9.299  2.4440 -1.1890 -1.4986
  156SAPE   C2917396   0.161   5.497   9.114  0.1512 -0.5006  0.2550
  156SAPE   H9R17397   0.181   5.397   9.071  1.6905 -0.1170  0.0290
  156SAPE  C21017398   0.091   5.585   9.018  0.0826 -0.0108  0.3782
  156SAPE  H10R17399   0.105   5.693   9.035  1.9103 -0.2965  0.8162
  156SAPE  H10S17400  -0.017   5.572   9.040  0.7598 -0.6131  3.6552
  156SAPE  C21117401   0.121   5.547   8.868  0.4325 -0.5119  0.3384
  156SAPE  H11R17402   0.191   5.463   8.856  0.6351 -0.2816 -0.0908
  156SAPE  C21217403   0.065   5.591   8.748  1.1081  0.1712 -0.2210
  156SAPE  H12R17404   0.104   5.545   8.656  0.8799 -0.5756  0.0507
  156SAPE  C21317405  -0.034   5.701   8.735  0.3640 -0.3564  0.1524
  156SAPE  H13R17406  -0.071   5.705   8.630  0.0570  1.5297  0.3314
  156SAPE  H13S17407   0.020   5.797   8.748 -1.3159  0.6055  0.1069
  156SAPE  C21417408  -0.153   5.707   8.829  0.0119 -0.2757 -0.2678
  156SAPE  H14R17409  -0.166   5.616   8.888  3.8291 -0.8475 -0.1657
  156SAPE  C21517410  -0.242   5.810   8.857 -1.0158 -0.1046  0.6727
  156SAPE  H15R17411  -0.315   5.799   8.938 -1.2012  1.0419  0.6658
  156SAPE  C21617412  -0.242   5.946   8.806 -0.5524  0.6573  0.1505
  156SAPE  H16R17413  -0.146   5.975   8.757 -0.2453  1.3440  1.1487
  156SAPE  H16S17414  -0.260   6.012   8.893  1.3111  0.7089  0.5336
  156SAPE  C21717415  -0.351   5.966   8.699  0.3023  0.6712  0.0266
  156SAPE  H17R17416  -0.455   5.950   8.735  0.2225 -0.3728 -0.6518
  156SAPE  H17S17417  -0.328   5.892   8.619 -0.3773 -0.8942  1.2693
  156SAPE  C21817418  -0.349   6.106   8.633 -0.2649 -0.3780  0.0559
  156SAPE  H18R17419  -0.242   6.136   8.622 -0.1034 -1.8316 -3.0870
  156SAPE  H18S17420  -0.397   6.177   8.703 -2.3916  0.4431 -2.1644
  156SAPE  C21917421  -0.420   6.111   8.500  0.4307 -0.2221 -0.5653
  156SAPE  H19R17422  -0.530   6.109   8.517  0.0860  2.4456 -2.1650
  156SAPE  H19S17423  -0.391   6.026   8.435 -1.0481 -2.0875  1.1729
  156SAPE  C22017424  -0.381   6.226   8.405 -0.0149 -0.1771 -0.2405
  156SAPE  H20R17425  -0.277   6.206   8.369 -0.1289  1.0542 -1.3087
  156SAPE  H20S17426  -0.387   6.327   8.450  0.2232  0.2172 -1.0778
  156SAPE  H20T17427  -0.449   6.212   8.318  0.1941  0.0126 -0.4387
  156SAPE   C3317428   0.606   5.462   9.755 -0.5790 -0.7542 -1.0338
  156SAPE   H3X17429   0.596   5.571   9.742 -1.0155 -0.5598  0.8342
  156SAPE   H3Y17430   0.502   5.426   9.767 -0.2394 -0.5646  3.4841
  156SAPE   C3417431   0.659   5.399   9.623  0.0436 -0.4359  0.0823
  156SAPE   H4X17432   0.673   5.291   9.646  2.3971 -0.3110 -0.5713
  156SAPE   H4Y17433   0.758   5.439   9.593  0.8981 -2.7406 -0.3163
  156SAPE   C3517434   0.554   5.430   9.518  0.0664  0.4999 -0.2110
  156SAPE   H5X17435   0.545   5.540   9.509 -1.1258  0.2979 -1.6489
  156SAPE   H5Y17436   0.458   5.382   9.548  0.1266 -0.8765 -2.1322
  156SAPE   C3617437   0.619   5.379   9.387  0.5543 -0.3725  0.1014
  156SAPE   H6X17438   0.646   5.271   9.380  0.4228 -0.4041  0.0919
  156SAPE   H6Y17439   0.716   5.433   9.378 -0.2497  1.1411  0.4487
  156SAPE   C3717440   0.539   5.409   9.264 -0.6314 -0.0722  0.2403
  156SAPE   H7X17441   0.532   5.520   9.256  0.9629 -0.0795 -1.6250
  156SAPE   H7Y17442   0.437   5.366   9.277 -0.7558 -0.8298 -2.8300
  156SAPE   C3817443   0.609   5.363   9.136  0.6930 -0.2728 -0.0842
  156SAPE   H8X17444   0.610   5.253   9.151  0.7956  0.0748  2.8317
  156SAPE   H8Y17445   0.718   5.381   9.128  0.3623  1.6729 -0.4364
  156SAPE   C3917446   0.529   5.403   9.013  0.0313 -0.0207 -0.0667
  156SAPE   H9X17447   0.515   5.513   9.010 -0.0780 -0.0509 -0.8332
  156SAPE   H9Y17448   0.425   5.365   9.021  0.1127 -0.0217  0.9448
  156SAPE  C31017449   0.592   5.353   8.880  0.7469  0.6133 -0.5168
  156SAPE  H10X17450   0.603   5.245   8.899 -3.4344 -0.0085 -1.1357
  156SAPE  H10Y17451   0.690   5.400   8.857  0.3578  0.8185 -1.7995
  156SAPE  C31117452   0.500   5.368   8.754 -0.3467  0.2625  0.4697
  156SAPE  H11X17453   0.493   5.476   8.732 -1.1402 -0.4270 -2.9358
  156SAPE  H11Y17454   0.401   5.320   8.774 -0.1071  0.6024  2.6226
  156SAPE  C31217455   0.551   5.279   8.641  0.1474  0.6333  0.6045
  156SAPE  H12X17456   0.477   5.278   8.558  0.9112  1.1528 -0.0896
  156SAPE  H12Y17457   0.556   5.175   8.681 -1.7596 -0.0797 -0.8892
  156SAPE  C31317458   0.675   5.322   8.558 -0.6120 -0.8248 -0.2292
  156SAPE  H13X17459   0.758   5.338   8.631  1.2007  0.5247 -2.5054
  156SAPE  H13Y17460   0.648   5.419   8.510  0.8200 -0.4076 -0.2263
  156SAPE  C31417461   0.721   5.215   8.453  0.3258  0.8947 -0.3568
  156SAPE  H14X17462   0.747   5.123   8.508  2.3577  0.2503 -2.3141
  156SAPE  H14Y17463   0.817   5.248   8.406  0.0942  0.4398 -1.1540
  156SAPE  C31517464   0.615   5.195   8.339 -0.5797 -0.2022 -0.8618
  156SAPE  H15X17465   0.598   5.299   8.303  4.9123  0.5542 -1.7156
  156SAPE  H15Y17466   0.518   5.159   8.378 -0.7123 -0.0932 -1.0919
  156SAPE  C31617467   0.682   5.113   8.229 -0.1601 -0.0242 -0.3583
  156SAPE  H16X17468   0.706   5.017   8.279 -1.6161 -0.3450 -0.2670
  156SAPE  H16Y17469   0.776   5.162   8.195  0.0456  1.3807  2.1084
  156SAPE  C31717470   0.585   5.072   8.122  0.2463 -0.1599  0.0108
  156SAPE  H17X17471   0.543   5.166   8.082  0.0284 -0.4826 -0.5185
  156SAPE  H17Y17472   0.499   5.016   8.166  0.8363  0.3568  1.8807
  156SAPE  C31817473   0.644   5.006   7.993  0.5365 -0.0440 -0.0055
  156SAPE  H18X17474   0.639   4.896   7.991  0.1191 -0.0761  1.6906
  156SAPE  H18Y17475   0.752   5.028   7.976  0.8261 -2.5973 -1.5811
  156SAPE  H18Z17476   0.580   5.046   7.912  0.4808 -0.4989 -0.1822
  157SAPE     N17477   4.946   5.388  10.684 -0.9165  0.3953 -0.1272
  157SAPE   HN117478   5.022   5.426  10.623 -0.6304 -2.2301 -1.4486
  157SAPE   HN217479   4.992   5.307  10.729 -0.2149  1.3874  0.9750
  157SAPE   HN317480   4.864   5.362  10.626  1.3383  0.7614 -3.6298
  157SAPE   C1217481   4.918   5.494  10.788  0.0711 -0.0274 -0.0530
  157SAPE  H12A17482   4.995   5.474  10.866 -0.2209 -0.0839  0.2251
  157SAPE  H12B17483   4.821   5.461  10.832 -0.5255  1.0471 -0.5541
  157SAPE   C1117484   4.914   5.633  10.734  0.1093 -0.1851  0.3492
  157SAPE  H11A17485   4.889   5.703  10.817 -2.4503 -1.7029  0.9220
  157SAPE  H11B17486   4.824   5.632  10.669  0.2436 -0.2710  0.1689
  157SAPE     P17487   5.076   5.815  10.633 -0.1268 -0.0960  0.2447
  157SAPE   O1317488   5.038   5.908  10.743  0.2505  0.1183 -0.3708
  157SAPE   O1417489   5.221   5.815  10.594  0.3302 -0.2788  0.4458
  157SAPE   O1217490   5.039   5.669  10.666 -0.0539  0.1033 -0.3620
  157SAPE   O1117491   4.993   5.859  10.512  0.3278  0.3494  0.2068
  157SAPE    C117492   4.969   5.772  10.401  0.8782  0.1516 -0.4111
  157SAPE    HA17493   4.946   5.668  10.429 -0.2756  0.7871  1.0772
  157SAPE    HB17494   4.878   5.807  10.348 -0.0650 -1.9701 -0.2391
  157SAPE    C217495   5.084   5.785  10.294  0.0587 -0.0585  0.8717
  157SAPE    HS17496   5.172   5.745  10.349 -0.3559 -0.0038  1.5777
  157SAPE   O2117497   5.099   5.921  10.256 -0.7430 -0.2271 -0.1989
  157SAPE   C2117498   5.220   5.950  10.204 -0.6854  0.7386 -0.0013
  157SAPE   O2217499   5.322   5.881  10.216  0.0314 -0.5411  0.1524
  157SAPE   C2217500   5.221   6.084  10.129 -0.2080  0.0791 -0.2687
  157SAPE   H2R17501   5.167   6.073  10.033 -0.0832 -1.6020 -0.1785
  157SAPE   H2S17502   5.161   6.151  10.195 -1.5619 -0.2544 -1.1262
  157SAPE    C317503   5.059   5.689  10.175 -0.2348  0.2347  0.0754
  157SAPE    HX17504   4.977   5.735  10.116  1.0111  1.3796 -0.7903
  157SAPE    HY17505   5.024   5.593  10.219  0.4952 -0.1632 -0.2099
  157SAPE   O3117506   5.170   5.685  10.085  0.5831 -0.7287 -0.0054
  157SAPE   C3117507   5.229   5.564  10.072  0.2981  0.3041 -0.3897
  157SAPE   O3217508   5.189   5.456  10.110  0.0208 -0.4557  0.7710
  157SAPE   C3217509   5.353   5.585   9.982  0.2859  0.5036  0.4061
  157SAPE   H2X17510   5.337   5.662   9.904 -0.2870 -0.7972 -0.7815
  157SAPE   H2Y17511   5.357   5.486   9.931 -0.5027 -0.6655  2.5651
  157SAPE   C2317512   5.360   6.143  10.101 -0.5276 -0.2429 -0.7936
  157SAPE   H3R17513   5.422   6.067  10.047  1.6865 -0.0450  1.3747
  157SAPE   H3S17514   5.408   6.151  10.201  0.4647 -2.7594 -1.0086
  157SAPE   C2417515   5.371   6.273  10.018 -0.7694 -0.3729  0.0314
  157SAPE   H4R17516   5.299   6.349  10.054 -2.7381 -1.7343 -0.9491
  157SAPE   H4S17517   5.329   6.245   9.920 -3.2591 -0.9274  1.2182
  157SAPE   C2517518   5.519   6.313  10.011  0.4101 -0.7755 -0.6928
  157SAPE   H5R17519   5.576   6.304  10.104 -0.7296  2.3510  0.3693
  157SAPE   C2617520   5.597   6.351   9.909  0.2915  0.1040 -0.2385
  157SAPE   H6R17521   5.703   6.368   9.932 -0.0028  0.8585  0.6396
  157SAPE   C2717522   5.543   6.379   9.772 -0.7189  0.1427 -0.2001
  157SAPE   H7R17523   5.439   6.413   9.793 -0.3583  0.9927  0.2174
  157SAPE   H7S17524   5.536   6.288   9.708  0.6779  0.2103 -0.4542
  157SAPE   C2817525   5.624   6.480   9.687  0.1241  0.4228 -0.2218
  157SAPE   H8R17526   5.667   6.564   9.743 -0.8375  0.5570  0.3238
  157SAPE   C2917527   5.650   6.493   9.559 -0.4986  0.4143 -0.5400
  157SAPE   H9R17528   5.711   6.580   9.531  1.6352 -1.3034 -1.3660
  157SAPE  C21017529   5.612   6.409   9.443  0.1779  0.5654 -0.3977
  157SAPE  H10R17530   5.548   6.465   9.371  0.4731 -0.0827 -1.1725
  157SAPE  H10S17531   5.551   6.323   9.477 -1.0172  0.9725 -1.4751
  157SAPE  C21117532   5.739   6.354   9.375 -0.2339 -0.1555  0.3252
  157SAPE  H11R17533   5.798   6.286   9.438  1.8849  2.3699  1.1241
  157SAPE  C21217534   5.765   6.357   9.245  0.4288 -0.1467 -0.0383
  157SAPE  H12R17535   5.853   6.316   9.194 -0.6212 -1.8338 -0.5179
  157SAPE  C21317536   5.673   6.411   9.137  0.3178  0.0253  0.3965
  157SAPE  H13R17537   5.565   6.391   9.153  0.7832 -1.6050  1.6515
  157SAPE  H13S17538   5.698   6.366   9.038  2.4666  0.5374  0.6714
  157SAPE  C21417539   5.710   6.557   9.129 -0.0584 -0.7098 -0.1494
  157SAPE  H14R17540   5.705   6.605   9.228 -0.4522  0.4672 -0.7291
  157SAPE  C21517541   5.751   6.627   9.020 -0.0154 -0.3488  0.4308
  157SAPE  H15R17542   5.780   6.732   9.033 -0.5574 -0.0196 -0.9067
  157SAPE  C21617543   5.761   6.582   8.875 -0.3694  0.1574  0.4594
  157SAPE  H16R17544   5.693   6.497   8.854 -0.0719  0.4014 -1.6327
  157SAPE  H16S17545   5.867   6.556   8.852 -0.0892  1.2202  0.5633
  157SAPE  C21717546   5.721   6.690   8.766 -0.1818 -0.7469 -1.0980
  157SAPE  H17R17547   5.797   6.770   8.776 -0.8657 -0.0387 -1.5255
  157SAPE  H17S17548   5.624   6.735   8.795  0.8289  1.6439 -1.3160
  157SAPE  C21817549   5.718   6.631   8.621  0.5067  0.0247 -0.3327
  157SAPE  H18R17550   5.719   6.717   8.551  0.2876  2.6082  2.7376
  157SAPE  H18S17551   5.631   6.563   8.609  0.4026  0.1256 -0.1527
  157SAPE  C21917552   5.841   6.557   8.583 -0.3193 -0.4909  0.1565
  157SAPE  H19R17553   5.817   6.506   8.487  1.9698 -0.2909 -0.5437
  157SAPE  H19S17554   5.872   6.479   8.655  0.5496 -1.4177 -1.1956
  157SAPE  C22017555   5.956   6.655   8.552  0.9354 -0.0014 -0.1665
  157SAPE  H20R17556   5.926   6.743   8.491 -0.9416  1.1921  2.3776
  157SAPE  H20S17557   6.031   6.600   8.492  3.0670  1.6455  0.9413
  157SAPE  H20T17558   6.008   6.689   8.644 -0.5541  0.2866  0.5925
  157SAPE   C3317559   5.483   5.619  10.057  0.2864 -0.1640  0.5430
  157SAPE   H3X17560   5.522   5.550  10.134  0.3757  2.2031  2.6637
  157SAPE   H3Y17561   5.453   5.712  10.110  1.8525  1.2142 -0.9273
  157SAPE   C3417562   5.608   5.648   9.976 -0.2304 -0.0185 -0.7366
  157SAPE   H4X17563   5.669   5.556   9.967 -1.6200 -0.8886 -1.3469
  157SAPE   H4Y17564   5.664   5.722  10.038  1.0193 -0.1725 -1.6775
  157SAPE   C3517565   5.587   5.711   9.840 -0.1642  0.2402  0.4428
  157SAPE   H5X17566   5.527   5.805   9.838  0.9664  0.9338 -2.6536
  157SAPE   H5Y17567   5.536   5.636   9.777 -0.4006 -0.8632  1.9192
  157SAPE   C3617568   5.724   5.732   9.774  0.6582  0.9343  0.5837
  157SAPE   H6X17569   5.779   5.638   9.752 -0.3989  0.3797  0.3143
  157SAPE   H6Y17570   5.775   5.798   9.848 -1.6982  1.4245  1.8153
  157SAPE   C3717571   5.707   5.807   9.640 -0.0928 -0.0103  0.0940
  157SAPE   H7X17572   5.805   5.826   9.592  0.0260 -0.1934  0.2649
  157SAPE   H7Y17573   5.659   5.903   9.668  1.2743  1.2979 -1.8957
  157SAPE   C3817574   5.616   5.735   9.538  0.4063 -0.4672 -0.3964
  157SAPE   H8X17575   5.568   5.809   9.471 -0.0355 -0.9061 -0.5720
  157SAPE   H8Y17576   5.537   5.681   9.594  0.8089  0.6375  1.3034
  157SAPE   C3917577   5.691   5.638   9.446 -0.4930 -0.5055 -0.1908
  157SAPE   H9X17578   5.726   5.555   9.511 -1.7024 -0.9534 -0.0965
  157SAPE   H9Y17579   5.775   5.683   9.389  0.2378 -0.3786  0.9599
  157SAPE  C31017580   5.601   5.564   9.340  0.4073 -0.4040 -0.1144
  157SAPE  H10X17581   5.570   5.644   9.269 -0.5210 -0.4888  0.1840
  157SAPE  H10Y17582   5.516   5.520   9.397  0.7738 -0.4231  0.4190
  157SAPE  C31117583   5.669   5.442   9.276  0.1591 -0.5038 -0.8901
  157SAPE  H11X17584   5.590   5.371   9.245 -1.3468  0.7093  0.0889
  157SAPE  H11Y17585   5.721   5.381   9.353 -0.9153 -0.5367 -0.1787
  157SAPE  C31217586   5.763   5.479   9.163 -0.2690  0.2116  0.6888
  157SAPE  H12X17587   5.845   5.538   9.208  2.3664 -0.9466 -2.4441
  157SAPE  H12Y17588   5.714   5.546   9.089 -0.6943 -1.8113 -0.9154
  157SAPE  C31317589   5.816   5.365   9.073  0.6413  0.6548 -0.2224
  157SAPE  H13X17590   5.841   5.421   8.981 -0.3065  2.6777  0.7262
  157SAPE  H13Y17591   5.744   5.284   9.047  2.5394 -1.0817 -0.2539
  157SAPE  C31417592   5.940   5.294   9.127  0.5362  0.4719 -0.1945
  157SAPE  H14X17593   5.928   5.245   9.227 -0.3036 -0.0461 -0.5487
  157SAPE  H14Y17594   6.021   5.367   9.148  2.4173 -1.9602  1.3354
  157SAPE  C31517595   5.982   5.186   9.030 -0.2413  0.1527 -0.0205
  157SAPE  H15X17596   5.891   5.129   9.003 -0.8421  0.4353  1.3596
  157SAPE  H15Y17597   6.056   5.111   9.065 -0.5062  0.9932  2.4163
  157SAPE  C31617598   6.038   5.253   8.904  0.5905 -0.1474 -0.5448
  157SAPE  H16X17599   6.110   5.334   8.931  1.3928 -0.7202 -0.9529
  157SAPE  H16Y17600   5.954   5.303   8.850  1.6009  1.7482 -0.4120
  157SAPE  C31717601   6.107   5.161   8.801 -0.0713 -0.6204 -0.8215
  157SAPE  H17X17602   6.176   5.097   8.860 -0.0865 -0.6841 -0.8736
  157SAPE  H17Y17603   6.167   5.229   8.736  0.1857  1.3690  1.4429
  157SAPE  C31817604   6.016   5.073   8.720 -0.2747  0.2204 -0.0802
  157SAPE  H18X17605   6.084   5.028   8.644  2.2298  0.3455  2.0394
  157SAPE  H18Y17606   5.935   5.132   8.672  0.2912 -0.2843 -1.6994
  157SAPE  H18Z17607   5.973   4.996   8.787  1.6869 -0.7193  0.1311
  158SAPE     N17608   0.145   6.042  10.807  0.7092  0.1851 -0.1684
  158SAPE   HN117609   0.091   6.013  10.723  0.0635 -0.8561  0.5866
  158SAPE   HN217610   0.214   5.973  10.844 -0.1488 -0.6403 -0.0943
  158SAPE   HN317611   0.077   6.046  10.886 -0.5639 -0.8656 -1.1891
  158SAPE   C1217612   0.192   6.184  10.791 -0.4896 -0.6847  0.6883
  158SAPE  H12A17613   0.239   6.207  10.889  0.5104 -1.2299  0.3436
  158SAPE  H12B17614   0.100   6.242  10.771  0.3337  0.2526 -0.4242
  158SAPE   C1117615   0.307   6.193  10.682  0.2475 -0.0383  0.4833
  158SAPE  H11A17616   0.321   6.301  10.662 -0.4781  0.0404  0.3697
  158SAPE  H11B17617   0.273   6.140  10.590  0.3034  0.7747 -0.0058
  158SAPE     P17618   0.481   5.995  10.714  0.3429  0.0292  0.2036
  158SAPE   O1317619   0.570   5.974  10.827 -0.2364  0.6339 -0.0362
  158SAPE   O1417620   0.362   5.905  10.706 -0.8119 -0.8555 -0.2613
  158SAPE   O1217621   0.433   6.141  10.731 -0.0959 -0.1723  0.4826
  158SAPE   O1117622   0.555   5.995  10.579 -0.2284  0.0998  0.4860
  158SAPE    C117623   0.593   6.120  10.515  0.5426  0.6126  0.2767
  158SAPE    HA17624   0.515   6.198  10.524 -2.0444 -1.8975  0.3190
  158SAPE    HB17625   0.680   6.169  10.564 -0.6429  3.5833 -0.5069
  158SAPE    C217626   0.623   6.101  10.369 -0.1285 -0.4460  0.4654
  158SAPE    HS17627   0.670   6.196  10.336 -1.1493 -0.5221 -1.2767
  158SAPE   O2117628   0.512   6.056  10.288 -0.1814 -0.4755  0.7208
  158SAPE   C2117629   0.404   6.130  10.291 -0.0709 -0.3430  0.3808
  158SAPE   O2217630   0.381   6.229  10.355  0.5644  0.1401 -0.2533
  158SAPE   C2217631   0.307   6.067  10.193 -0.1286 -0.3721  0.9229
  158SAPE   H2R17632   0.334   5.962  10.169  1.4730  0.0101  0.9995
  158SAPE   H2S17633   0.208   6.063  10.243 -0.0032  0.7773  1.2749
  158SAPE    C317634   0.734   5.994  10.348 -0.0714 -0.5586  0.5506
  158SAPE    HX17635   0.701   5.894  10.384 -0.0410 -0.5218  0.6793
  158SAPE    HY17636   0.820   6.035  10.404  1.0934 -0.4078 -1.2961
  158SAPE   O3117637   0.766   5.964  10.213  0.8125 -0.2821 -0.4484
  158SAPE   C3117638   0.833   6.057  10.151 -0.2974  0.7146 -0.7892
  158SAPE   O3217639   0.853   6.169  10.189 -0.0616  0.1957 -0.2420
  158SAPE   C3217640   0.886   6.000  10.016 -0.1069 -0.6207  0.8618
  158SAPE   H2X17641   0.968   5.927  10.033 -0.2673 -0.6276  1.6307
  158SAPE   H2Y17642   0.925   6.087   9.959 -1.7155 -0.3635  0.1227
  158SAPE   C2317643   0.281   6.154  10.068 -0.6453 -0.1086  0.1947
  158SAPE   H3R17644   0.262   6.259  10.099 -2.3925  0.1416 -1.6663
  158SAPE   H3S17645   0.194   6.126  10.006 -0.3949 -0.9748  0.2349
  158SAPE   C2417646   0.400   6.149   9.975  0.1223 -0.2041  0.4662
  158SAPE   H4R17647   0.499   6.158  10.025  0.3322  0.8924 -0.1418
  158SAPE   H4S17648   0.395   6.231   9.900  1.1592 -1.5366 -1.0997
  158SAPE   C2517649   0.403   6.020   9.894 -0.1099 -0.6822 -0.4036
  158SAPE   H5R17650   0.475   5.947   9.934  1.0115  1.6162  1.9906
  158SAPE   C2617651   0.328   5.991   9.789  0.3967 -0.1272 -0.1219
  158SAPE   H6R17652   0.349   5.904   9.725  2.2998 -0.2320  0.6122
  158SAPE   C2717653   0.221   6.083   9.723 -0.2666  0.7065 -0.0749
  158SAPE   H7R17654   0.261   6.110   9.623 -0.9233  0.4090 -0.4182
  158SAPE   H7S17655   0.208   6.178   9.780 -1.4946  0.6616 -0.2637
  158SAPE   C2817656   0.092   6.008   9.717  0.0794  0.0147  0.5595
  158SAPE   H8R17657   0.054   5.967   9.812 -0.0483 -1.1256  0.0129
  158SAPE   C2917658   0.010   5.996   9.607  0.2179 -0.1613  0.0094
  158SAPE   H9R17659  -0.082   5.935   9.616 -0.1943  0.0988 -2.0802
  158SAPE  C21017660   0.039   6.043   9.465 -0.3888 -0.7839 -0.2924
  158SAPE  H10R17661   0.046   6.154   9.459  1.3581 -0.8584  0.1705
  158SAPE  H10S17662  -0.045   6.026   9.395 -0.0627  2.1002 -1.4397
  158SAPE  C21117663   0.169   5.987   9.405  0.9972 -0.0724 -0.4749
  158SAPE  H11R17664   0.213   5.906   9.464 -1.4301 -1.1284 -0.0590
  158SAPE  C21217665   0.213   6.009   9.276 -0.0369  0.6048 -0.0513
  158SAPE  H12R17666   0.301   5.953   9.240  1.2900  3.4366 -1.3696
  158SAPE  C21317667   0.150   6.099   9.169  0.5134 -0.5300 -0.0713
  158SAPE  H13R17668   0.227   6.174   9.142 -1.4120  1.9773  1.1607
  158SAPE  H13S17669   0.066   6.162   9.207 -0.8615 -1.7151 -1.1076
  158SAPE  C21417670   0.114   6.021   9.044 -0.2301 -0.3921  0.0816
  158SAPE  H14R17671   0.068   5.923   9.064  0.4480 -0.8896 -0.7510
  158SAPE  C21517672   0.143   6.042   8.916  0.6460  0.1776 -0.0005
  158SAPE  H15R17673   0.115   5.960   8.848 -0.2664 -0.4013  1.0403
  158SAPE  C21617674   0.214   6.163   8.851  0.2938  0.2492  0.1614
  158SAPE  H16R17675   0.316   6.133   8.821 -1.5037 -3.3416 -2.8804
  158SAPE  H16S17676   0.218   6.249   8.921  1.1002  0.8469 -0.6248
  158SAPE  C21717677   0.152   6.224   8.722 -0.4743 -0.2718  0.3219
  158SAPE  H17R17678   0.209   6.318   8.706 -0.0205 -0.6804 -0.5345
  158SAPE  H17S17679   0.043   6.241   8.736 -0.4167 -0.6017  1.2057
  158SAPE  C21817680   0.163   6.124   8.596 -0.2922 -0.6979 -0.5790
  158SAPE  H18R17681   0.190   6.022   8.630 -2.5358 -1.6205 -1.5072
  158SAPE  H18S17682   0.247   6.164   8.535  0.7095  2.7561  2.8456
  158SAPE  C21917683   0.031   6.121   8.520 -0.3583  0.1564  0.5378
  158SAPE  H19R17684  -0.011   6.222   8.498  0.8766  0.4479 -0.5725
  158SAPE  H19S17685  -0.042   6.064   8.581 -0.2259 -1.5759 -0.8884
  158SAPE  C22017686   0.042   6.070   8.378  0.1899 -0.2637  1.0880
  158SAPE  H20R17687   0.072   5.964   8.397  0.1555 -0.1977  1.5028
  158SAPE  H20S17688   0.126   6.117   8.322  0.7613 -1.0851  1.2347
  158SAPE  H20T17689  -0.052   6.073   8.319 -0.3564 -2.4928  1.8011
  158SAPE   C3317690   0.783   5.924   9.930  0.1651 -0.4906  0.4241
  158SAPE   H3X17691   0.695   5.987   9.905  0.4501  0.4687  1.8163
  158SAPE   H3Y17692   0.735   5.840   9.983 -2.7333  1.4400  0.9368
  158SAPE   C3417693   0.837   5.894   9.788  0.3270  0.7074 -0.4249
  158SAPE   H4X17694   0.912   5.816   9.812 -0.4606  0.0299 -0.1557
  158SAPE   H4Y17695   0.878   5.984   9.738  1.9740  0.4096  0.3568
  158SAPE   C3517696   0.736   5.837   9.688  0.2738  0.1954 -0.4124
  158SAPE   H5X17697   0.643   5.899   9.687 -0.2295 -0.5680 -1.5710
  158SAPE   H5Y17698   0.716   5.734   9.724  1.7415  0.3020  0.7653
  158SAPE   C3617699   0.788   5.840   9.544 -0.1210  0.2252  0.5262
  158SAPE   H6X17700   0.876   5.774   9.531 -0.4105 -0.2584  1.0491
  158SAPE   H6Y17701   0.828   5.940   9.514  0.8502 -0.4810 -0.5769
  158SAPE   C3717702   0.686   5.806   9.433 -0.0089  0.0179  0.1792
  158SAPE   H7X17703   0.613   5.890   9.434  0.6559  0.5971  0.4400
  158SAPE   H7Y17704   0.625   5.717   9.461  0.2394 -0.7053 -1.4727
  158SAPE   C3817705   0.761   5.784   9.294 -0.4447 -0.3556  0.0076
  158SAPE   H8X17706   0.814   5.686   9.299 -1.9104 -1.1272  0.4885
  158SAPE   H8Y17707   0.845   5.856   9.276 -1.3357  0.4691 -0.9112
  158SAPE   C3917708   0.680   5.798   9.162 -0.5363  0.0787  0.9572
  158SAPE   H9X17709   0.576   5.761   9.180 -0.2076 -0.4294  1.8790
  158SAPE   H9Y17710   0.731   5.746   9.079  0.5597  1.6576  0.6233
  158SAPE  C31017711   0.655   5.946   9.129  0.3229 -0.0278 -0.3497
  158SAPE  H10X17712   0.754   5.997   9.131  0.6667 -0.7309  1.4792
  158SAPE  H10Y17713   0.584   5.997   9.198 -1.3104 -1.9773 -0.5482
  158SAPE  C31117714   0.589   5.964   8.985  0.4613  0.2941  0.0490
  158SAPE  H11X17715   0.523   6.053   8.982  0.7665  0.5736  1.5211
  158SAPE  H11Y17716   0.518   5.880   8.967 -1.0439  1.4510  0.4582
  158SAPE  C31217717   0.695   5.975   8.882  0.0123  0.5867 -0.5693
  158SAPE  H12X17718   0.758   5.884   8.889  1.0386  1.4192  1.3595
  158SAPE  H12Y17719   0.760   6.064   8.900 -0.8693  0.6987  2.4197
  158SAPE  C31317720   0.647   5.983   8.733  0.7085 -0.5085  0.2260
  158SAPE  H13X17721   0.741   5.983   8.674 -0.8569 -0.9692 -2.3267
  158SAPE  H13Y17722   0.621   6.091   8.734  2.1946 -0.1427  0.4880
  158SAPE  C31417723   0.545   5.873   8.686 -0.3217  0.2422  0.2276
  158SAPE  H14X17724   0.459   5.868   8.756  0.6138 -1.8522  1.2768
  158SAPE  H14Y17725   0.602   5.778   8.682 -0.4717  0.1052  1.1359
  158SAPE  C31517726   0.483   5.918   8.551 -0.5540 -0.7673  0.2879
  158SAPE  H15X17727   0.565   5.922   8.477 -0.7342 -0.9985  0.0759
  158SAPE  H15Y17728   0.442   6.021   8.564  1.8489  0.1297  0.9573
  158SAPE  C31617729   0.374   5.818   8.501  0.5744 -0.0347  0.5811
  158SAPE  H16X17730   0.282   5.868   8.465  0.0552 -0.1074  1.7722
  158SAPE  H16Y17731   0.355   5.746   8.583  1.9017 -1.8512 -0.6928
  158SAPE  C31717732   0.411   5.745   8.373  0.5321  0.0525 -0.0884
  158SAPE  H17X17733   0.505   5.694   8.403 -1.0562 -3.2623 -0.5256
  158SAPE  H17Y17734   0.427   5.821   8.294  1.3357  0.9458  0.9059
  158SAPE  C31817735   0.303   5.638   8.342  0.3920  0.1650 -0.5137
  158SAPE  H18X17736   0.301   5.571   8.430  0.9663  0.5746 -0.1863
  158SAPE  H18Y17737   0.317   5.594   8.241 -0.0188 -1.2964  0.0647
  158SAPE  H18Z17738   0.203   5.686   8.338  1.1374  1.9903  1.4362
  159SAPE     N17739   0.565   3.380   6.284 -0.4667  0.0319 -0.6342
  159SAPE   HN117740   0.511   3.457   6.328  1.3518  0.0296  1.6864
  159SAPE   HN217741   0.507   3.294   6.281  1.6051 -1.3453 -3.0074
  159SAPE   HN317742   0.640   3.364   6.354 -0.1202  2.4024 -0.4169
  159SAPE   C1217743   0.622   3.418   6.150 -0.2696 -0.1712 -0.6159
  159SAPE  H12A17744   0.593   3.525   6.145 -0.6332 -0.2490 -0.2436
  159SAPE  H12B17745   0.572   3.365   6.066  1.7796 -0.9344 -1.3748
  159SAPE   C1117746   0.774   3.402   6.145 -0.0529  0.2486  0.5410
  159SAPE  H11A17747   0.806   3.426   6.042  0.3069  2.3242  1.0973
  159SAPE  H11B17748   0.796   3.294   6.159 -0.8636 -0.0602 -0.5177
  159SAPE     P17749   0.910   3.451   6.353 -0.0947 -0.0913  0.2454
  159SAPE   O1317750   1.028   3.368   6.307 -0.2151 -0.0365 -0.0849
  159SAPE   O1417751   0.923   3.563   6.449 -0.3000 -0.0952  0.5057
  159SAPE   O1217752   0.831   3.505   6.230 -0.5626 -0.0872 -0.2722
  159SAPE   O1117753   0.790   3.374   6.418 -0.2620 -0.1722  0.2091
  159SAPE    C117754   0.799   3.257   6.491  0.6594  0.3059  0.1722
  159SAPE    HA17755   0.734   3.182   6.440  1.5692 -0.5886  0.3254
  159SAPE    HB17756   0.902   3.217   6.502  0.0620 -1.1121  0.7772
  159SAPE    C217757   0.723   3.275   6.629 -0.1070  0.1135 -0.0225
  159SAPE    HS17758   0.732   3.173   6.673 -1.2265  1.4720  3.5527
  159SAPE   O2117759   0.589   3.308   6.595 -0.0313  0.5650  0.4452
  159SAPE   C2117760   0.497   3.274   6.689  0.3758  0.2964 -0.4892
  159SAPE   O2217761   0.524   3.208   6.786  0.1147 -0.9661  0.2129
  159SAPE   C2217762   0.363   3.350   6.664 -0.8580  0.4596 -0.5429
  159SAPE   H2R17763   0.374   3.454   6.701 -0.2299 -0.0859  0.8228
  159SAPE   H2S17764   0.346   3.365   6.555 -0.3365 -2.8173 -1.1424
  159SAPE    C317765   0.798   3.383   6.718  0.8308  0.3638 -0.2813
  159SAPE    HX17766   0.797   3.483   6.670 -0.6536  1.4080  1.8778
  159SAPE    HY17767   0.906   3.357   6.723  1.1195  1.5404 -0.3560
  159SAPE   O3117768   0.737   3.408   6.847  0.0453 -0.7960  0.3992
  159SAPE   C3117769   0.754   3.310   6.941  0.1321 -0.3158  0.9968
  159SAPE   O3217770   0.846   3.229   6.931 -0.5554  0.1835 -0.6495
  159SAPE   C3217771   0.658   3.345   7.051  0.1381  0.1518 -0.1547
  159SAPE   H2X17772   0.565   3.286   7.038 -0.0467  0.4965 -0.3762
  159SAPE   H2Y17773   0.623   3.449   7.038 -0.2627  0.2584  1.5712
  159SAPE   C2317774   0.240   3.283   6.734 -0.2697 -0.0495  0.1652
  159SAPE   H3R17775   0.263   3.289   6.842 -0.9407  0.5662  0.2783
  159SAPE   H3S17776   0.226   3.178   6.699  0.8351 -0.3352  0.5634
  159SAPE   C2417777   0.108   3.357   6.713  0.1553 -0.4828  0.5502
  159SAPE   H4R17778   0.072   3.351   6.608 -2.5941 -0.6711  1.4663
  159SAPE   H4S17779   0.129   3.463   6.737  1.0616 -0.6722  0.6134
  159SAPE   C2517780  -0.002   3.297   6.798 -0.3809 -0.2045  0.1227
  159SAPE   H5R17781  -0.056   3.214   6.750 -1.3083  1.3243 -1.5321
  159SAPE   C2617782  -0.052   3.341   6.920 -0.4072  0.6954  0.8574
  159SAPE   H6R17783  -0.141   3.293   6.963 -0.8268  0.3939 -0.3339
  159SAPE   C2717784  -0.003   3.460   7.001 -0.5595  0.6093 -0.1717
  159SAPE   H7R17785   0.104   3.475   6.975 -0.4838  0.0285 -0.1870
  159SAPE   H7S17786  -0.005   3.432   7.108  0.5768  0.9380 -0.0596
  159SAPE   C2817787  -0.060   3.590   6.968  0.1297 -0.0078 -0.1571
  159SAPE   H8R17788  -0.027   3.638   6.875  0.0745  0.8428  0.2569
  159SAPE   C2917789  -0.153   3.652   7.047  0.3200  0.2474  0.2021
  159SAPE   H9R17790  -0.198   3.742   7.002  0.7120  0.2661 -0.1588
  159SAPE  C21017791  -0.213   3.598   7.177 -0.0384  0.0135  0.8145
  159SAPE  H10R17792  -0.265   3.678   7.234  0.1052  0.5949  0.1412
  159SAPE  H10S17793  -0.132   3.562   7.244 -0.6398  0.7190  1.9409
  159SAPE  C21117794  -0.313   3.486   7.150  0.2968 -0.8743 -0.2869
  159SAPE  H11R17795  -0.373   3.493   7.058  0.6088  2.9757 -0.2706
  159SAPE  C21217796  -0.311   3.364   7.203 -0.4113 -0.0026  0.1925
  159SAPE  H12R17797  -0.394   3.301   7.166 -0.3396  0.3518 -0.5630
  159SAPE  C21317798  -0.224   3.310   7.313  0.2107 -0.3832  0.0403
  159SAPE  H13R17799  -0.119   3.309   7.277  1.1176  4.9050  2.0871
  159SAPE  H13S17800  -0.246   3.204   7.339 -0.9508 -0.2111 -0.2110
  159SAPE  C21417801  -0.229   3.388   7.445  0.9892  0.0555  0.3069
  159SAPE  H14R17802  -0.242   3.497   7.434 -3.8329 -0.3528  0.8173
  159SAPE  C21517803  -0.218   3.329   7.570  0.2814  0.0187  0.0879
  159SAPE  H15R17804  -0.221   3.390   7.662  0.3066 -2.7950  2.0193
  159SAPE  C21617805  -0.201   3.185   7.600 -0.1293  0.1792  0.2074
  159SAPE  H16R17806  -0.149   3.172   7.697 -1.8359  0.8808  1.2311
  159SAPE  H16S17807  -0.142   3.131   7.523 -1.5633  0.7143 -1.2910
  159SAPE  C21717808  -0.344   3.110   7.599  0.1892  0.4135  0.1819
  159SAPE  H17R17809  -0.413   3.138   7.516  0.1515  3.2116  1.1033
  159SAPE  H17S17810  -0.405   3.139   7.688  0.9859  1.3497  0.4326
  159SAPE  C21817811  -0.333   2.960   7.595  0.1172 -0.5924 -0.2487
  159SAPE  H18R17812  -0.260   2.923   7.670  0.6032  0.0452 -0.4059
  159SAPE  H18S17813  -0.281   2.928   7.503  0.5553  0.9071 -0.5378
  159SAPE  C21917814  -0.471   2.896   7.600 -0.2274  0.1628  0.1420
  159SAPE  H19R17815  -0.548   2.939   7.533  1.4587  0.6398 -1.5489
  159SAPE  H19S17816  -0.514   2.919   7.700 -0.0130  1.7295 -0.1079
  159SAPE  C22017817  -0.466   2.741   7.566 -0.7299 -0.4849 -0.2009
  159SAPE  H20R17818  -0.571   2.720   7.536 -1.4343  2.1294  0.2812
  159SAPE  H20S17819  -0.447   2.687   7.661  1.2986  0.2050 -0.1902
  159SAPE  H20T17820  -0.386   2.720   7.492 -1.2179  0.4198 -0.9981
  159SAPE   C3317821   0.721   3.312   7.182 -0.1152  0.1168 -0.0923
  159SAPE   H3X17822   0.820   3.361   7.194 -0.4977  0.3894  2.2556
  159SAPE   H3Y17823   0.731   3.202   7.196 -1.0549 -0.3234 -2.7628
  159SAPE   C3417824   0.628   3.356   7.291 -0.1228 -0.0955  0.0260
  159SAPE   H4X17825   0.532   3.301   7.280 -0.0399 -0.2935  0.2873
  159SAPE   H4Y17826   0.601   3.463   7.282  0.9143  0.0759 -1.1640
  159SAPE   C3517827   0.684   3.328   7.429  0.1022  0.2486 -0.8187
  159SAPE   H5X17828   0.772   3.396   7.435 -0.5118  0.8186  3.1362
  159SAPE   H5Y17829   0.724   3.224   7.429  2.5929  1.1768 -0.9383
  159SAPE   C3617830   0.586   3.346   7.547 -0.1711  0.1035  0.0797
  159SAPE   H6X17831   0.498   3.283   7.522  1.4930 -2.3419  0.2378
  159SAPE   H6Y17832   0.549   3.451   7.547  0.6038  0.3841 -0.6401
  159SAPE   C3717833   0.658   3.308   7.677  0.5470 -0.1061 -0.6320
  159SAPE   H7X17834   0.759   3.353   7.672  1.0908 -1.4103 -1.7476
  159SAPE   H7Y17835   0.666   3.198   7.690  0.2125  0.0311  0.8486
  159SAPE   C3817836   0.578   3.358   7.795 -0.1035 -0.4185 -0.2856
  159SAPE   H8X17837   0.472   3.328   7.781 -0.1043 -0.6805  0.2964
  159SAPE   H8Y17838   0.581   3.469   7.794  0.9029 -0.4403 -1.5503
  159SAPE   C3917839   0.626   3.316   7.935 -1.0830  0.9756  0.4465
  159SAPE   H9X17840   0.734   3.342   7.942 -0.4967 -1.4063  0.6277
  159SAPE   H9Y17841   0.628   3.207   7.957 -2.7659  1.5918  3.8557
  159SAPE  C31017842   0.554   3.380   8.055 -0.3365 -0.1312 -0.0193
  159SAPE  H10X17843   0.450   3.345   8.038 -0.4037 -0.1014  0.3307
  159SAPE  H10Y17844   0.567   3.490   8.065 -0.3706 -0.1034 -0.2849
  159SAPE  C31117845   0.610   3.332   8.189 -0.3764  0.2166  0.0492
  159SAPE  H11X17846   0.716   3.361   8.207 -0.7901  0.9410  1.4710
  159SAPE  H11Y17847   0.599   3.222   8.192  2.7523 -0.1148  0.2679
  159SAPE  C31217848   0.528   3.371   8.314  0.0236  0.0918 -0.3404
  159SAPE  H12X17849   0.420   3.357   8.293  0.1092 -0.6135 -0.3079
  159SAPE  H12Y17850   0.546   3.478   8.342 -0.2871 -0.6713  3.0565
  159SAPE  C31317851   0.575   3.297   8.443  0.6182 -0.3620  0.5845
  159SAPE  H13X17852   0.675   3.331   8.478  0.7852 -1.2295  0.9496
  159SAPE  H13Y17853   0.608   3.195   8.414  1.8322  0.7881 -2.2932
  159SAPE  C31417854   0.482   3.301   8.557 -0.3030 -1.3009  0.0102
  159SAPE  H14X17855   0.432   3.400   8.553 -1.0722 -1.7171 -1.0195
  159SAPE  H14Y17856   0.537   3.306   8.653 -2.2086  1.0247  1.0107
  159SAPE  C31517857   0.372   3.193   8.537  0.2868  0.1704 -0.4437
  159SAPE  H15X17858   0.421   3.095   8.557 -0.0308  0.3148  1.0889
  159SAPE  H15Y17859   0.322   3.214   8.440  0.1035 -0.0642 -0.4006
  159SAPE  C31617860   0.274   3.202   8.654  0.4178 -0.6225  0.0189
  159SAPE  H16X17861   0.232   3.304   8.663 -0.1734 -0.8010 -0.7355
  159SAPE  H16Y17862   0.329   3.181   8.748 -2.2066  0.1034  1.7715
  159SAPE  C31717863   0.151   3.108   8.646  0.1217  0.4637 -0.1015
  159SAPE  H17X17864   0.184   3.005   8.624  2.0425  1.2958 -1.2381
  159SAPE  H17Y17865   0.085   3.136   8.561 -0.1476  1.0901  0.3037
  159SAPE  C31817866   0.073   3.112   8.777  1.0813 -0.1596  0.5602
  159SAPE  H18X17867  -0.009   3.038   8.785 -0.1490  1.0309 -0.7203
  159SAPE  H18Y17868   0.026   3.211   8.793 -0.7977 -1.3815  2.8320
  159SAPE  H18Z17869   0.145   3.091   8.859 -0.4625 -1.9093  1.4969
  160SAPE     N17870   5.492   3.720   6.893  0.5303 -0.0811 -0.2993
  160SAPE   HN117871   5.398   3.763   6.902  1.1460  0.9631  1.3579
  160SAPE   HN217872   5.511   3.670   6.982 -1.3844 -1.8804 -0.8497
  160SAPE   HN317873   5.570   3.784   6.870  0.6853  0.5272  1.7994
  160SAPE   C1217874   5.489   3.620   6.774 -0.0708  0.3572 -0.8913
  160SAPE  H12A17875   5.399   3.557   6.792 -1.2645  1.9742 -1.0639
  160SAPE  H12B17876   5.585   3.564   6.773 -0.3323 -0.1306  0.7206
  160SAPE   C1117877   5.473   3.696   6.642  0.1996  0.6128  0.1352
  160SAPE  H11A17878   5.372   3.740   6.634  0.0324 -0.1060 -1.8391
  160SAPE  H11B17879   5.503   3.622   6.564  0.0039  1.7237 -1.0018
  160SAPE     P17880   5.555   3.907   6.516 -0.0522 -0.0907 -0.2601
  160SAPE   O1317881   5.660   4.009   6.530  0.6111 -0.1304 -0.0854
  160SAPE   O1417882   5.539   3.845   6.384  0.1593 -0.3442  0.1812
  160SAPE   O1217883   5.576   3.802   6.625 -0.2688 -0.1386  0.1400
  160SAPE   O1117884   5.417   3.971   6.552 -0.2164  0.4648  0.1762
  160SAPE    C117885   5.379   4.014   6.683 -0.3904 -0.3450 -0.1491
  160SAPE    HA17886   5.269   3.998   6.691 -0.2544 -0.1544  2.5144
  160SAPE    HB17887   5.430   3.950   6.758  0.2704 -2.4818 -2.3490
  160SAPE    C217888   5.431   4.163   6.701  0.4136  0.2430  0.7794
  160SAPE    HS17889   5.542   4.173   6.709  0.4511  0.3056  0.1950
  160SAPE   O2117890   5.377   4.205   6.825 -0.1264 -0.4697 -0.0356
  160SAPE   C2117891   5.434   4.150   6.934 -0.0334  0.6791 -0.0877
  160SAPE   O2217892   5.533   4.077   6.926 -0.8337 -0.6710 -0.7306
  160SAPE   C2217893   5.342   4.165   7.057 -0.0717 -0.6709 -0.0496
  160SAPE   H2R17894   5.274   4.251   7.043  1.2714  0.6842  1.5906
  160SAPE   H2S17895   5.280   4.073   7.061 -0.4976 -0.3316  1.4771
  160SAPE    C317896   5.390   4.251   6.585 -0.0390 -0.0867 -0.5206
  160SAPE    HX17897   5.281   4.234   6.569 -0.3533  1.4155 -0.0159
  160SAPE    HY17898   5.449   4.228   6.493 -1.1677  1.6599 -1.7233
  160SAPE   O3117899   5.392   4.396   6.617 -0.3759  0.0978 -0.0050
  160SAPE   C3117900   5.511   4.459   6.607  0.6655  1.1329 -0.3881
  160SAPE   O3217901   5.612   4.397   6.571 -0.0219 -1.2868 -0.4846
  160SAPE   C3217902   5.497   4.602   6.650 -0.1655 -0.2831  0.6796
  160SAPE   H2X17903   5.404   4.603   6.712 -0.8482 -0.5956 -0.3249
  160SAPE   H2Y17904   5.498   4.669   6.561 -0.8358  0.3231  1.1179
  160SAPE   C2317905   5.424   4.187   7.188  0.3794 -0.1897 -0.3601
  160SAPE   H3R17906   5.489   4.098   7.206 -0.4099 -0.8002 -0.5176
  160SAPE   H3S17907   5.352   4.195   7.272  0.7231  2.3965 -0.2807
  160SAPE   C2417908   5.515   4.314   7.187  0.5217 -0.1162 -0.0015
  160SAPE   H4R17909   5.580   4.306   7.097 -0.3197 -0.0601 -0.6238
  160SAPE   H4S17910   5.579   4.303   7.277  0.1664 -0.1313  0.2495
  160SAPE   C2517911   5.430   4.440   7.177 -0.2263  0.3581  0.6405
  160SAPE   H5R17912   5.347   4.437   7.106  1.0107  1.2973 -0.8748
  160SAPE   C2617913   5.446   4.561   7.242  0.2940 -0.2623 -0.1050
  160SAPE   H6R17914   5.362   4.632   7.236  0.6970  0.1115 -1.5947
  160SAPE   C2717915   5.559   4.592   7.343 -0.2813  0.2319  0.4786
  160SAPE   H7R17916   5.651   4.536   7.318 -1.1537 -1.9153  1.9704
  160SAPE   H7S17917   5.535   4.549   7.442  0.2934  0.0818  0.5535
  160SAPE   C2817918   5.579   4.744   7.358 -0.1790  0.1858  0.2398
  160SAPE   H8R17919   5.546   4.806   7.274  0.9277 -0.4339 -0.6752
  160SAPE   C2917920   5.612   4.809   7.476  0.2233 -0.0012 -0.2247
  160SAPE   H9R17921   5.631   4.917   7.469  1.5455 -0.2141 -0.1823
  160SAPE  C21017922   5.635   4.744   7.613 -0.0738  0.3288  0.6778
  160SAPE  H10R17923   5.713   4.665   7.604 -0.4571 -0.0094  0.2248
  160SAPE  H10S17924   5.545   4.684   7.640 -0.9930  0.7166 -1.3606
  160SAPE  C21117925   5.681   4.832   7.727 -0.4570  0.3895 -0.1798
  160SAPE  H11R17926   5.785   4.870   7.722 -0.9387  1.8482  0.6455
  160SAPE  C21217927   5.612   4.860   7.837  0.4073  0.8531  0.2824
  160SAPE  H12R17928   5.660   4.913   7.920 -1.5578 -0.2488  2.1764
  160SAPE  C21317929   5.475   4.803   7.874 -0.5858  0.6437 -0.4580
  160SAPE  H13R17930   5.438   4.746   7.786 -0.6876 -0.2136  0.1445
  160SAPE  H13S17931   5.414   4.896   7.886 -2.8783 -0.7007 -1.3818
  160SAPE  C21417932   5.472   4.729   8.006 -0.4720 -0.4797  0.3824
  160SAPE  H14R17933   5.498   4.622   7.995 -1.6121 -0.9090  1.7310
  160SAPE  C21517934   5.462   4.787   8.126  0.7531  0.0612  0.2512
  160SAPE  H15R17935   5.466   4.723   8.216  0.6545 -0.0557  0.1718
  160SAPE  C21617936   5.436   4.931   8.157  0.0836  0.5110  0.2018
  160SAPE  H16R17937   5.330   4.964   8.153 -0.8472 -2.4876 -1.8409
  160SAPE  H16S17938   5.495   4.990   8.084 -0.1959  0.5763  0.0263
  160SAPE  C21717939   5.492   4.976   8.293  0.6615 -0.1629 -0.2815
  160SAPE  H17R17940   5.484   5.087   8.300  0.4439 -0.2640  1.2861
  160SAPE  H17S17941   5.598   4.943   8.295  0.6928 -0.4272 -3.5867
  160SAPE  C21817942   5.416   4.912   8.413 -0.5047 -0.7564  0.6527
  160SAPE  H18R17943   5.414   4.801   8.409  0.9641 -0.7858  0.5895
  160SAPE  H18S17944   5.309   4.941   8.416 -0.2560  0.6419 -2.3278
  160SAPE  C21917945   5.470   4.964   8.551  0.7470  0.5646  0.3938
  160SAPE  H19R17946   5.420   4.915   8.638  1.2834  1.7244  1.3720
  160SAPE  H19S17947   5.457   5.071   8.577 -0.3285  0.5941 -0.2135
  160SAPE  C22017948   5.618   4.924   8.563  0.1398 -0.9322 -0.0692
  160SAPE  H20R17949   5.639   4.815   8.558  1.1002 -0.7954  0.7891
  160SAPE  H20S17950   5.657   4.957   8.661  0.3113 -2.5250  0.4030
  160SAPE  H20T17951   5.686   4.970   8.488  0.5071 -1.9660 -0.3735
  160SAPE   C3317952   5.615   4.655   6.746 -0.2688  0.0766 -0.1248
  160SAPE   H3X17953   5.606   4.765   6.749  2.0062  0.2824 -0.4305
  160SAPE   H3Y17954   5.716   4.632   6.705 -0.0975  1.0062 -0.2222
  160SAPE   C3417955   5.613   4.602   6.891 -0.2482  0.5679  0.4013
  160SAPE   H4X17956   5.668   4.505   6.881  1.2508  1.5653 -1.6347
  160SAPE   H4Y17957   5.508   4.582   6.919 -0.7753  5.1507  2.0742
  160SAPE   C3517958   5.658   4.699   6.995 -0.1109  0.7641  0.1135
  160SAPE   H5X17959   5.641   4.654   7.095 -1.3009  0.9037 -0.0160
  160SAPE   H5Y17960   5.592   4.788   6.994  0.7846  1.4592  1.7851
  160SAPE   C3617961   5.806   4.754   6.987 -0.6199 -0.1318  0.4540
  160SAPE   H6X17962   5.813   4.839   7.057 -0.4458  0.0922  0.1687
  160SAPE   H6Y17963   5.837   4.779   6.883 -0.5488 -0.7556  0.3209
  160SAPE   C3717964   5.897   4.639   7.032  0.3313 -0.0818  0.1677
  160SAPE   H7X17965   5.872   4.541   6.984  0.6830  0.1542 -0.5006
  160SAPE   H7Y17966   5.895   4.627   7.142 -0.6219  3.4165  0.5812
  160SAPE   C3817967   6.048   4.670   7.001 -0.2966 -0.3087  0.5319
  160SAPE   H8X17968   6.056   4.691   6.893  1.4196 -0.2291  0.6558
  160SAPE   H8Y17969   6.124   4.597   7.038  0.6060 -0.2052 -1.1129
  160SAPE   C3917970   6.097   4.800   7.073  0.1040 -0.3312  0.3484
  160SAPE   H9X17971   6.090   4.773   7.181 -1.7562 -1.3763 -0.0132
  160SAPE   H9Y17972   6.023   4.882   7.059  1.2759  0.3897 -1.8202
  160SAPE  C31017973   6.234   4.862   7.038 -0.0027 -0.7498 -0.7429
  160SAPE  H10X17974   6.247   4.887   6.931  0.4975 -2.7756 -1.1743
  160SAPE  H10Y17975   6.313   4.789   7.064  0.1509  0.3334  1.9608
  160SAPE  C31117976   6.275   4.981   7.134  0.5665 -0.1883  0.6064
  160SAPE  H11X17977   6.189   5.049   7.154  0.2324 -1.0167  2.1043
  160SAPE  H11Y17978   6.363   5.027   7.085 -1.1191  1.3926 -1.0844
  160SAPE  C31217979   6.330   4.943   7.278  0.1977  0.4842  0.3973
  160SAPE  H12X17980   6.419   4.881   7.254 -0.9314 -0.4573 -1.5068
  160SAPE  H12Y17981   6.257   4.876   7.328 -1.8027  1.5052 -1.0918
  160SAPE  C31317982   6.355   5.061   7.373  0.3120  0.3204 -0.3969
  160SAPE  H13X17983   6.256   5.089   7.414  0.0187  0.1552 -0.9952
  160SAPE  H13Y17984   6.397   5.145   7.313  0.6288  1.1874  0.9948
  160SAPE  C31417985   6.436   5.019   7.498  0.3289 -0.6160 -0.0455
  160SAPE  H14X17986   6.533   4.987   7.456  0.5312  1.8984 -1.5735
  160SAPE  H14Y17987   6.392   4.930   7.549 -0.5895  1.3566  2.7517
  160SAPE  C31517988   6.462   5.128   7.592 -0.6168  0.3309  0.2292
  160SAPE  H15X17989   6.362   5.148   7.636 -1.5985  0.0177 -1.8081
  160SAPE  H15Y17990   6.503   5.223   7.552 -0.7237  0.8877  1.4263
  160SAPE  C31617991   6.557   5.082   7.702 -0.4212 -0.5428  0.2959
  160SAPE  H16X17992   6.581   5.169   7.766 -0.2045 -0.9220  0.7370
  160SAPE  H16Y17993   6.645   5.051   7.641  0.1337  1.7123 -0.0877
  160SAPE  C31717994   6.496   4.977   7.803 -0.5761 -0.6805 -0.5102
  160SAPE  H17X17995   6.515   4.879   7.754  3.3721 -0.1046 -0.2769
  160SAPE  H17Y17996   6.387   4.994   7.812 -0.2679  0.4356  1.2162
  160SAPE  C31817997   6.572   4.961   7.939  0.3990 -0.4363 -0.0156
  160SAPE  H18X17998   6.547   5.049   8.002 -0.8828  0.3015 -1.5262
  160SAPE  H18Y17999   6.681   4.980   7.930  0.3635  0.4396  1.3683
  160SAPE  H18Z18000   6.556   4.859   7.981  0.8560 -1.2654 -1.8064
  161SAPE     N18001   2.319   2.274   5.948  0.0848  0.0584  0.7568
  161SAPE   HN118002   2.291   2.291   5.850  3.1646 -0.6479 -0.2962
  161SAPE   HN218003   2.401   2.210   5.946 -0.0348 -0.0888 -2.6168
  161SAPE   HN318004   2.238   2.219   5.985  0.8856 -2.9091 -1.6582
  161SAPE   C1218005   2.351   2.403   6.011  0.1473  0.9705  0.5555
  161SAPE  H12A18006   2.256   2.459   6.001 -0.5784 -0.8296 -3.4964
  161SAPE  H12B18007   2.432   2.447   5.949  2.2474 -1.7405  1.2818
  161SAPE   C1118008   2.398   2.393   6.157 -0.1112 -0.4958 -0.0604
  161SAPE  H11A18009   2.441   2.490   6.190 -2.2996  0.1151  1.1072
  161SAPE  H11B18010   2.488   2.328   6.161  1.1531  1.3165  2.3844
  161SAPE     P18011   2.179   2.431   6.297 -0.1061  0.2201 -0.4777
  161SAPE   O1318012   2.114   2.502   6.181 -0.5500 -0.0934 -0.0216
  161SAPE   O1418013   2.092   2.354   6.391 -0.0792 -0.0647 -0.3930
  161SAPE   O1218014   2.290   2.332   6.234 -0.0012  0.3109 -0.3451
  161SAPE   O1118015   2.277   2.520   6.373 -0.4348 -0.1506 -0.4091
  161SAPE    C118016   2.243   2.639   6.444  0.2103 -0.1517 -0.5944
  161SAPE    HA18017   2.334   2.700   6.465  0.2940 -1.1670  2.2467
  161SAPE    HB18018   2.177   2.706   6.385 -1.6953 -1.3853  0.0929
  161SAPE    C218019   2.185   2.598   6.578 -0.7057 -0.3066 -0.0306
  161SAPE    HS18020   2.087   2.550   6.558 -0.7423 -0.4750  0.5372
  161SAPE   O2118021   2.158   2.711   6.662  0.1106 -1.0941  0.3228
  161SAPE   C2118022   2.028   2.719   6.703  0.4940  0.1662 -0.4105
  161SAPE   O2218023   1.932   2.669   6.653 -0.2697  0.2415  0.0552
  161SAPE   C2218024   2.024   2.799   6.834 -0.8620  0.7185  0.3213
  161SAPE   H2R18025   2.128   2.801   6.874  0.2133 -0.4763 -2.2956
  161SAPE   H2S18026   1.996   2.902   6.803 -0.6598  0.9881  1.0252
  161SAPE    C318027   2.275   2.494   6.657 -0.2749  0.7064  0.1040
  161SAPE    HX18028   2.363   2.545   6.701  0.9896  1.1040 -2.7304
  161SAPE    HY18029   2.306   2.418   6.582 -0.9427  2.3211 -1.8527
  161SAPE   O3118030   2.192   2.414   6.747  0.2155  0.3715  0.2994
  161SAPE   C3118031   2.198   2.452   6.878 -0.6818  0.6297 -0.7366
  161SAPE   O3218032   2.264   2.547   6.918 -0.3519  0.4650 -0.7266
  161SAPE   C3218033   2.100   2.362   6.953 -0.5854  0.5039 -0.6387
  161SAPE   H2X18034   2.086   2.265   6.900  0.7882 -0.5593  0.8980
  161SAPE   H2Y18035   2.002   2.411   6.934 -1.2700 -0.5078  0.2478
  161SAPE   C2318036   1.918   2.748   6.935 -0.6326 -0.6907 -0.1197
  161SAPE   H3R18037   1.971   2.692   7.015  3.7694  2.9623 -0.2638
  161SAPE   H3S18038   1.854   2.675   6.881 -1.1483 -0.8860  0.7389
  161SAPE   C2418039   1.831   2.857   6.998 -0.1818 -0.1999  0.0840
  161SAPE   H4R18040   1.778   2.903   6.912  0.9814  3.1265  1.0789
  161SAPE   H4S18041   1.895   2.938   7.039 -0.2455 -0.4404  0.6719
  161SAPE   C2518042   1.723   2.817   7.104  0.5836  0.7736  0.1177
  161SAPE   H5R18043   1.652   2.741   7.069 -0.1073  2.0188 -1.2160
  161SAPE   C2618044   1.718   2.840   7.238  0.5270 -0.3907  0.2324
  161SAPE   H6R18045   1.631   2.813   7.300  0.2803  2.7989  1.3629
  161SAPE   C2718046   1.811   2.920   7.323  0.0347 -0.0158  0.1617
  161SAPE   H7R18047   1.756   3.005   7.368 -0.3076 -0.3409  0.3695
  161SAPE   H7S18048   1.884   2.966   7.254  1.3727 -1.7629  0.3618
  161SAPE   C2818049   1.882   2.846   7.429  0.7023 -0.0320 -0.1466
  161SAPE   H8R18050   1.990   2.845   7.410  1.1135  0.8505  1.9866
  161SAPE   C2918051   1.844   2.799   7.550 -0.0201  0.0243 -0.3260
  161SAPE   H9R18052   1.921   2.751   7.611 -0.0592  0.0745 -0.2379
  161SAPE  C21018053   1.706   2.820   7.617  0.0523 -0.0665  0.1984
  161SAPE  H10R18054   1.627   2.824   7.539 -0.6299  1.5396  0.9557
  161SAPE  H10S18055   1.709   2.925   7.652 -1.7996 -0.2766  1.0725
  161SAPE  C21118056   1.672   2.723   7.726  0.4522  0.5096 -0.7148
  161SAPE  H11R18057   1.597   2.646   7.704  1.0543 -0.5744  0.8735
  161SAPE  C21218058   1.738   2.708   7.844  0.6897  0.2209  0.6804
  161SAPE  H12R18059   1.710   2.625   7.910  0.8153 -2.5033 -2.5430
  161SAPE  C21318060   1.860   2.784   7.880 -0.1401 -0.8446 -0.2507
  161SAPE  H13R18061   1.926   2.803   7.792 -0.3199  2.1424  0.2113
  161SAPE  H13S18062   1.922   2.726   7.952  1.3087 -0.2035 -0.9615
  161SAPE  C21418063   1.828   2.912   7.954 -0.1443 -0.1221 -0.2296
  161SAPE  H14R18064   1.795   2.998   7.895 -0.0644 -2.0000 -3.1133
  161SAPE  C21518065   1.816   2.917   8.093 -0.8755  0.0833 -0.4926
  161SAPE  H15R18066   1.778   3.007   8.142  1.7520  1.5841 -1.1223
  161SAPE  C21618067   1.839   2.813   8.196  0.0691  0.2985  0.2181
  161SAPE  H16R18068   1.903   2.850   8.280 -1.0680  2.0678  0.3134
  161SAPE  H16S18069   1.887   2.724   8.151  2.1362  0.0960  2.6838
  161SAPE  C21718070   1.705   2.759   8.258 -0.1141 -0.2193  0.2481
  161SAPE  H17R18071   1.635   2.736   8.175 -0.9020  0.5769  0.6884
  161SAPE  H17S18072   1.651   2.847   8.298 -0.6020 -0.7106  0.6667
  161SAPE  C21818073   1.737   2.655   8.368  0.3661  0.4829  0.0179
  161SAPE  H18R18074   1.826   2.688   8.426  0.4818 -1.0121  0.7226
  161SAPE  H18S18075   1.766   2.559   8.320  0.3002 -0.3538  1.6162
  161SAPE  C21918076   1.624   2.624   8.466 -0.5335  0.1935  0.5922
  161SAPE  H19R18077   1.633   2.518   8.497  0.5049 -0.0577 -0.5126
  161SAPE  H19S18078   1.527   2.642   8.416 -1.1178 -1.1317  1.2377
  161SAPE  C22018079   1.628   2.715   8.589  0.0102 -0.4778 -0.5222
  161SAPE  H20R18080   1.540   2.685   8.652  0.7188 -0.1420  0.6414
  161SAPE  H20S18081   1.607   2.820   8.559 -0.2004 -0.1765  0.6419
  161SAPE  H20T18082   1.723   2.713   8.646 -0.8731 -0.8428  0.9838
  161SAPE   C3318083   2.137   2.339   7.101 -0.4608 -0.4654 -0.0503
  161SAPE   H3X18084   2.235   2.291   7.123  0.3736  0.5364 -1.4380
  161SAPE   H3Y18085   2.063   2.274   7.150 -1.5547  1.2345  0.6029
  161SAPE   C3418086   2.118   2.470   7.181 -0.1738 -0.0178 -0.1951
  161SAPE   H4X18087   2.018   2.514   7.161 -0.3909  0.0003  0.9005
  161SAPE   H4Y18088   2.197   2.546   7.162 -0.1591  0.0433  0.0999
  161SAPE   C3518089   2.121   2.438   7.332 -0.9912  0.4121  0.5171
  161SAPE   H5X18090   2.228   2.439   7.360 -0.7965  1.8148 -0.2351
  161SAPE   H5Y18091   2.077   2.336   7.342 -0.4850 -0.0687 -1.9932
  161SAPE   C3618092   2.038   2.529   7.419 -0.4485 -0.2478 -0.0115
  161SAPE   H6X18093   1.936   2.537   7.375 -0.4755  0.9020  0.2586
  161SAPE   H6Y18094   2.085   2.627   7.438 -0.2475 -0.4036  0.2977
  161SAPE   C3718095   2.015   2.456   7.553  0.2842  0.0040 -0.6265
  161SAPE   H7X18096   1.947   2.373   7.525 -1.8149  0.9578  1.4503
  161SAPE   H7Y18097   1.954   2.522   7.619  1.5077  0.8282 -0.3056
  161SAPE   C3818098   2.137   2.408   7.632  0.1604 -0.4346  0.1659
  161SAPE   H8X18099   2.201   2.498   7.642 -0.6420  0.1542  0.0530
  161SAPE   H8Y18100   2.193   2.330   7.577  0.0675 -0.1549 -0.3306
  161SAPE   C3918101   2.101   2.354   7.775 -0.1698 -0.3570  0.6702
  161SAPE   H9X18102   2.190   2.327   7.835  0.3299 -0.3533 -0.0668
  161SAPE   H9Y18103   2.049   2.259   7.750  0.0987 -0.8933  2.0554
  161SAPE  C31018104   2.009   2.449   7.859  0.0497  0.4842 -0.0869
  161SAPE  H10X18105   1.910   2.472   7.813 -0.5083  0.1030  0.9081
  161SAPE  H10Y18106   2.056   2.547   7.881 -0.9160  0.4391  2.3585
  161SAPE  C31118107   1.963   2.384   7.982 -0.4341  0.5791 -0.3207
  161SAPE  H11X18108   1.928   2.285   7.946  1.6332  0.4643 -2.1053
  161SAPE  H11Y18109   1.878   2.446   8.019 -1.5996  0.6340 -2.9601
  161SAPE  C31218110   2.077   2.378   8.088 -0.0199  0.2018  0.2978
  161SAPE  H12X18111   2.170   2.369   8.029  0.9021  0.4806  1.6859
  161SAPE  H12Y18112   2.054   2.290   8.152  0.0793  0.1757  0.2976
  161SAPE  C31318113   2.070   2.502   8.181 -0.3803 -0.2259 -0.1195
  161SAPE  H13X18114   1.966   2.531   8.207  0.0106 -0.4203  1.6973
  161SAPE  H13Y18115   2.116   2.588   8.128 -0.1748 -0.3868 -0.2019
  161SAPE  C31418116   2.142   2.480   8.328  0.4213 -0.5616 -0.3463
  161SAPE  H14X18117   2.145   2.580   8.377  2.5843 -0.4510 -0.6726
  161SAPE  H14Y18118   2.242   2.436   8.308  0.9569 -0.2618  1.5893
  161SAPE  C31518119   2.058   2.378   8.405  0.5618  0.0537 -0.3023
  161SAPE  H15X18120   1.971   2.349   8.342  1.5288  0.4317 -1.8363
  161SAPE  H15Y18121   2.025   2.433   8.497 -0.9426 -0.6217 -0.4270
  161SAPE  C31618122   2.138   2.255   8.446  0.1014 -0.3382  0.7702
  161SAPE  H16X18123   2.211   2.283   8.525 -0.6319 -2.4890  2.2527
  161SAPE  H16Y18124   2.197   2.223   8.358  1.9591  0.1066  1.8212
  161SAPE  C31718125   2.048   2.144   8.495  1.0865  0.2712  0.1177
  161SAPE  H17X18126   1.995   2.090   8.413 -1.0833  0.4798  1.3487
  161SAPE  H17Y18127   1.973   2.199   8.555  1.3674  0.7134  0.0619
  161SAPE  C31818128   2.122   2.045   8.584 -0.9193 -0.6427  0.0711
  161SAPE  H18X18129   2.047   1.984   8.640 -1.1659  0.0688  0.5248
  161SAPE  H18Y18130   2.175   2.106   8.660  2.5507 -1.9024 -1.2434
  161SAPE  H18Z18131   2.200   1.989   8.528  1.3113  0.6505  1.7932
  162SAPE     N18132   6.399   4.946   5.793  0.0615  0.5779  0.1590
  162SAPE   HN118133   6.327   4.972   5.722  1.4523  0.4300 -1.3406
  162SAPE   HN218134   6.480   5.012   5.789  1.4741 -1.1282 -0.3233
  162SAPE   HN318135   6.440   4.853   5.771  2.7057  2.1341 -1.8434
  162SAPE   C1218136   6.344   4.955   5.934 -0.0793 -0.7264  0.5326
  162SAPE  H12A18137   6.425   4.926   6.004  0.1189 -2.0434 -0.2285
  162SAPE  H12B18138   6.258   4.884   5.930 -1.6635  1.2162 -1.0901
  162SAPE   C1118139   6.295   5.092   5.962 -0.8632 -0.1694 -0.7481
  162SAPE  H11A18140   6.245   5.096   6.061  2.3710 -3.0460  1.1319
  162SAPE  H11B18141   6.212   5.117   5.893 -2.1601  0.6659  1.0709
  162SAPE     P18142   6.487   5.225   6.085 -0.3867 -0.2393  0.0864
  162SAPE   O1318143   6.489   5.108   6.174 -0.0884 -0.5612  0.1350
  162SAPE   O1418144   6.611   5.274   6.027  0.6799 -0.2679  0.2980
  162SAPE   O1218145   6.402   5.190   5.956  0.3786  0.7112 -0.1653
  162SAPE   O1118146   6.406   5.337   6.149  0.2393 -0.6848 -0.9488
  162SAPE    C118147   6.462   5.470   6.178  0.2718  0.0346 -0.0681
  162SAPE    HA18148   6.568   5.480   6.146  0.8333 -1.1078  1.4102
  162SAPE    HB18149   6.394   5.546   6.133 -0.4248 -1.2155 -1.1840
  162SAPE    C218150   6.460   5.508   6.327 -0.2935 -0.4324 -0.4257
  162SAPE    HS18151   6.504   5.609   6.344 -0.7086 -0.6756  2.3254
  162SAPE   O2118152   6.527   5.411   6.412 -0.3270  0.1200 -0.5788
  162SAPE   C2118153   6.657   5.402   6.389 -0.7952  0.7329  0.2427
  162SAPE   O2218154   6.722   5.476   6.320 -0.3926  0.0314 -0.5581
  162SAPE   C2218155   6.713   5.281   6.460  0.2825 -0.8212  0.0298
  162SAPE   H2R18156   6.664   5.265   6.559 -1.1914  1.0934 -0.3563
  162SAPE   H2S18157   6.691   5.193   6.396 -1.2731  0.2130 -0.9028
  162SAPE    C318158   6.315   5.514   6.372  0.0764 -0.1911  0.1434
  162SAPE    HX18159   6.260   5.423   6.339 -2.2554  0.7771  1.1940
  162SAPE    HY18160   6.258   5.579   6.302 -2.1238 -2.1455  0.0516
  162SAPE   O3118161   6.291   5.553   6.507  0.8722 -0.3631 -0.4833
  162SAPE   C3118162   6.274   5.450   6.592  0.3843 -0.8898 -0.0141
  162SAPE   O3218163   6.281   5.335   6.557  0.2639 -0.2271 -0.2118
  162SAPE   C3218164   6.235   5.500   6.729  0.4329  0.1770 -0.1802
  162SAPE   H2X18165   6.125   5.485   6.735  0.5626 -0.7820  0.0261
  162SAPE   H2Y18166   6.263   5.606   6.747 -1.8582  0.6564  0.6451
  162SAPE   C2318167   6.861   5.312   6.490  0.4804  0.3027 -0.1514
  162SAPE   H3R18168   6.915   5.334   6.395 -3.2640  3.2428 -1.7466
  162SAPE   H3S18169   6.897   5.220   6.541  1.6592 -0.5643 -2.4849
  162SAPE   C2418170   6.873   5.435   6.587 -0.5838  0.1310  0.7969
  162SAPE   H4R18171   6.802   5.417   6.670 -1.0545  1.9767  0.8210
  162SAPE   H4S18172   6.843   5.525   6.529  0.3459  1.4098  2.2322
  162SAPE   C2518173   7.013   5.459   6.641  0.3113  0.2420 -0.4851
  162SAPE   H5R18174   7.086   5.515   6.581 -1.1816  2.9771  0.1663
  162SAPE   C2618175   7.054   5.406   6.758  0.4514 -0.1731 -0.2686
  162SAPE   H6R18176   7.161   5.420   6.780  0.0631  0.8517  1.0419
  162SAPE   C2718177   6.969   5.325   6.856 -0.0635 -0.1512 -0.0699
  162SAPE   H7R18178   6.906   5.252   6.802 -0.6768  0.3422 -0.0302
  162SAPE   H7S18179   6.900   5.392   6.911  0.4689 -0.2397  0.7077
  162SAPE   C2818180   7.046   5.231   6.940 -0.4276  0.0965  0.8135
  162SAPE   H8R18181   7.098   5.154   6.881  0.0614  0.9382  0.1269
  162SAPE   C2918182   7.056   5.232   7.075 -0.1005 -0.0520  0.3776
  162SAPE   H9R18183   7.123   5.158   7.119 -0.4252 -0.2294  0.5768
  162SAPE  C21018184   6.986   5.327   7.169  0.1453 -0.5613  0.5876
  162SAPE  H10R18185   6.899   5.381   7.125  0.2382  0.8240  2.0545
  162SAPE  H10S18186   7.062   5.399   7.206  1.5253 -0.9819 -1.3837
  162SAPE  C21118187   6.925   5.249   7.282  0.7511 -0.4195  0.0332
  162SAPE  H11R18188   6.851   5.171   7.260  0.4345 -0.8812  2.5185
  162SAPE  C21218189   6.937   5.285   7.412  0.1338  0.5746  0.5085
  162SAPE  H12R18190   6.885   5.223   7.487  3.4903 -1.0451  1.5871
  162SAPE  C21318191   7.015   5.393   7.485 -0.1081 -0.4861  0.1579
  162SAPE  H13R18192   7.007   5.484   7.423 -0.5318  0.6465  1.8476
  162SAPE  H13S18193   7.117   5.356   7.507 -0.2437 -0.2884  1.1565
  162SAPE  C21418194   6.941   5.436   7.612  1.0690 -0.1957 -0.2167
  162SAPE  H14R18195   6.869   5.518   7.597 -0.6782 -1.6394  0.0302
  162SAPE  C21518196   6.955   5.389   7.740 -0.3383  0.0672 -0.5872
  162SAPE  H15R18197   6.875   5.423   7.807  1.6525  2.4992  0.6363
  162SAPE  C21618198   7.047   5.280   7.777 -0.2685 -0.4489 -0.9928
  162SAPE  H16R18199   7.152   5.318   7.777  0.8357 -3.3129  0.8873
  162SAPE  H16S18200   7.038   5.188   7.714 -0.5148 -0.5673 -0.7831
  162SAPE  C21718201   7.020   5.238   7.923 -0.3020  0.0244  0.3786
  162SAPE  H17R18202   7.065   5.139   7.944  0.0257 -0.1823 -1.1976
  162SAPE  H17S18203   6.913   5.216   7.942 -0.7358  2.4307  0.8772
  162SAPE  C21818204   7.072   5.338   8.026  0.0836 -0.7720 -0.3301
  162SAPE  H18R18205   7.015   5.433   8.036 -0.7205 -1.3903  0.9701
  162SAPE  H18S18206   7.179   5.364   8.007 -0.0665  1.0550  1.1728
  162SAPE  C21918207   7.072   5.289   8.168  0.1952  0.1649 -0.4135
  162SAPE  H19R18208   7.134   5.361   8.226  0.4443  0.5106 -1.1041
  162SAPE  H19S18209   7.120   5.189   8.169  0.6862  0.3806 -1.9535
  162SAPE  C22018210   6.939   5.284   8.248  0.5083  0.4667  0.3876
  162SAPE  H20R18211   6.956   5.260   8.355 -3.0985 -0.4128  0.8160
  162SAPE  H20S18212   6.878   5.199   8.212 -1.2478  1.3787  1.1599
  162SAPE  H20T18213   6.881   5.378   8.260  2.8627  1.6561  2.9861
  162SAPE   C3318214   6.289   5.406   6.839 -0.5282  0.7467  0.6117
  162SAPE   H3X18215   6.400   5.396   6.836 -0.5812  0.1741  0.4173
  162SAPE   H3Y18216   6.237   5.308   6.838 -1.3634  1.1863 -0.3340
  162SAPE   C3418217   6.263   5.472   6.974 -0.0258 -0.6285  0.0559
  162SAPE   H4X18218   6.156   5.457   6.998  0.3980 -2.3310  1.0566
  162SAPE   H4Y18219   6.277   5.582   6.969  0.9542 -0.7865 -0.8686
  162SAPE   C3518220   6.345   5.413   7.094  0.3845 -0.1572  0.1000
  162SAPE   H5X18221   6.454   5.425   7.080  1.0033 -0.9979  3.7952
  162SAPE   H5Y18222   6.319   5.304   7.094 -0.9456  0.1318 -1.0517
  162SAPE   C3618223   6.298   5.473   7.225  0.3755 -0.1710  0.3339
  162SAPE   H6X18224   6.195   5.439   7.246  0.5060 -1.0870 -0.4697
  162SAPE   H6Y18225   6.300   5.584   7.230 -3.3210 -0.1469  3.5906
  162SAPE   C3718226   6.370   5.416   7.346  0.9242  0.3930 -0.1654
  162SAPE   H7X18227   6.478   5.404   7.319  0.5553 -1.6100 -0.8423
  162SAPE   H7Y18228   6.326   5.314   7.347  3.4424 -0.7416 -1.1394
  162SAPE   C3818229   6.348   5.489   7.475 -0.1621 -0.7380  0.0263
  162SAPE   H8X18230   6.351   5.599   7.462  1.6632 -0.7628  0.1036
  162SAPE   H8Y18231   6.442   5.476   7.534 -1.0230  1.2389  1.9119
  162SAPE   C3918232   6.227   5.446   7.557 -0.2994  0.0123 -0.5630
  162SAPE   H9X18233   6.221   5.335   7.566 -4.2647  0.4194  2.7909
  162SAPE   H9Y18234   6.133   5.492   7.522 -0.6009 -1.3264 -1.5483
  162SAPE  C31018235   6.241   5.496   7.700  0.0710  1.1542  0.0374
  162SAPE  H10X18236   6.283   5.599   7.699  0.6477  0.9208 -1.9387
  162SAPE  H10Y18237   6.304   5.428   7.760 -2.4077  0.0377  1.4790
  162SAPE  C31118238   6.117   5.480   7.782  0.3305  0.4645 -0.4210
  162SAPE  H11X18239   6.094   5.373   7.801  1.2921  0.4496  0.7029
  162SAPE  H11Y18240   6.025   5.523   7.737  0.6867  0.7849 -0.8552
  162SAPE  C31218241   6.132   5.562   7.910 -0.1536 -0.0523  0.5769
  162SAPE  H12X18242   6.078   5.656   7.884  0.0166  0.0887  0.7248
  162SAPE  H12Y18243   6.238   5.589   7.933 -0.5018  2.4439 -0.6244
  162SAPE  C31318244   6.054   5.508   8.032  0.0208 -0.5917  0.8148
  162SAPE  H13X18245   6.090   5.405   8.053 -0.1824 -0.5019  1.6449
  162SAPE  H13Y18246   5.947   5.514   8.003  0.5771 -0.3595 -1.2926
  162SAPE  C31418247   6.086   5.593   8.158 -0.0147 -0.5915  0.0684
  162SAPE  H14X18248   6.194   5.577   8.179 -0.2491 -1.2947  0.7886
  162SAPE  H14Y18249   6.036   5.553   8.249 -0.0249 -0.1936  0.2394
  162SAPE  C31518250   6.054   5.741   8.161  0.2612  0.1994  0.2253
  162SAPE  H15X18251   5.943   5.741   8.166  0.1922 -3.2529  0.0591
  162SAPE  H15Y18252   6.087   5.808   8.078  0.5194 -0.1390  0.0525
  162SAPE  C31618253   6.114   5.798   8.291  0.3687 -0.1841  0.0365
  162SAPE  H16X18254   6.225   5.795   8.299  0.3646 -1.2236 -0.2053
  162SAPE  H16Y18255   6.057   5.741   8.367  0.0535 -0.8843 -0.7068
  162SAPE  C31718256   6.067   5.934   8.331  0.0297 -0.1835 -0.6287
  162SAPE  H17X18257   6.118   6.019   8.281 -1.8466  2.2138  1.3894
  162SAPE  H17Y18258   6.085   5.953   8.439 -1.2288  2.9418 -0.9228
  162SAPE  C31818259   5.917   5.967   8.299  0.4471  0.2154 -0.7092
  162SAPE  H18X18260   5.893   6.060   8.354 -0.0678 -0.7878  0.8012
  162SAPE  H18Y18261   5.857   5.876   8.322  1.3320  0.1041  1.2691
  162SAPE  H18Z18262   5.907   5.993   8.192 -1.6165 -1.8361 -1.0665
  163SAPE     N18263   5.092   3.381   6.777 -0.2497  0.1841 -0.2271
  163SAPE   HN118264   5.168   3.405   6.844 -0.8788 -1.1787  1.0109
  163SAPE   HN218265   5.017   3.380   6.849  0.3929 -0.3234  0.4468
  163SAPE   HN318266   5.109   3.283   6.746 -1.6152 -0.5906  1.4079
  163SAPE   C1218267   5.061   3.483   6.677 -0.1239  0.2377  0.2259
  163SAPE  H12A18268   4.979   3.443   6.614 -1.5983  1.4108  1.3502
  163SAPE  H12B18269   5.148   3.499   6.611 -1.0928  0.1236 -1.1027
  163SAPE   C1118270   5.025   3.615   6.745 -0.3714 -0.2228 -0.5967
  163SAPE  H11A18271   4.932   3.594   6.802 -0.4964  0.1458 -0.6630
  163SAPE  H11B18272   4.998   3.691   6.668 -2.7369 -2.4825 -2.0420
  163SAPE     P18273   5.122   3.803   6.901 -0.2940  0.0781 -0.0193
  163SAPE   O1318274   5.258   3.840   6.950 -0.3074 -0.3948 -0.0551
  163SAPE   O1418275   5.052   3.903   6.816  0.1995  0.0344 -0.1359
  163SAPE   O1218276   5.135   3.665   6.827 -0.0871  0.4279  0.0639
  163SAPE   O1118277   5.028   3.776   7.025 -0.6363  0.6598  0.0498
  163SAPE    C118278   5.003   3.650   7.087  1.0464 -0.1347 -0.6714
  163SAPE    HA18279   4.898   3.618   7.071  1.5758 -2.6050  0.5252
  163SAPE    HB18280   5.069   3.574   7.040  2.2689  0.7281 -0.3866
  163SAPE    C218281   5.029   3.657   7.241  0.2139  0.5750  0.4572
  163SAPE    HS18282   4.935   3.696   7.286 -1.1970 -0.5722 -1.4374
  163SAPE   O2118283   5.142   3.741   7.268 -0.1643  0.2143 -0.2013
  163SAPE   C2118284   5.258   3.698   7.230  0.0790 -0.2940  0.3649
  163SAPE   O2218285   5.281   3.591   7.175 -0.3245  0.2072  0.4258
  163SAPE   C2218286   5.373   3.796   7.263  0.1657 -0.4321  0.5055
  163SAPE   H2R18287   5.424   3.825   7.169  0.4713  0.2993  0.8904
  163SAPE   H2S18288   5.329   3.886   7.311  0.5594  0.0687 -0.0656
  163SAPE    C318289   5.034   3.509   7.314 -0.4104  0.2903  0.3383
  163SAPE    HX18290   5.118   3.462   7.257 -0.5441 -1.3128  1.4256
  163SAPE    HY18291   4.945   3.451   7.280  1.0195 -2.8902  1.7926
  163SAPE   O3118292   5.038   3.514   7.459  0.3123 -0.2093 -0.0892
  163SAPE   C3118293   5.148   3.465   7.525 -0.2547  0.4116 -0.4546
  163SAPE   O3218294   5.234   3.402   7.470  0.5987 -0.6075 -0.2410
  163SAPE   C3218295   5.141   3.488   7.679  0.4853  0.0799 -0.0345
  163SAPE   H2X18296   5.053   3.549   7.710  1.1840  0.1053  1.9211
  163SAPE   H2Y18297   5.233   3.543   7.707 -0.5786  1.4208  0.9207
  163SAPE   C2318298   5.472   3.733   7.364  0.0227  0.1452 -0.0449
  163SAPE   H3R18299   5.518   3.641   7.322 -0.0368  0.0855  0.0206
  163SAPE   H3S18300   5.405   3.696   7.445  3.4210 -2.4465  1.7410
  163SAPE   C2418301   5.556   3.841   7.424 -0.0948  0.0378  0.1134
  163SAPE   H4R18302   5.493   3.918   7.475  2.9477  1.7090  1.4812
  163SAPE   H4S18303   5.600   3.902   7.343 -1.0818  0.5328 -0.0518
  163SAPE   C2518304   5.665   3.803   7.521 -0.6611 -0.6687 -0.6141
  163SAPE   H5R18305   5.761   3.790   7.469 -0.2568 -1.5125  0.3379
  163SAPE   C2618306   5.673   3.790   7.656 -0.5148 -0.5204  0.0467
  163SAPE   H6R18307   5.766   3.752   7.701 -0.0115  1.7253  0.9883
  163SAPE   C2718308   5.564   3.825   7.755 -0.2470 -0.1827 -1.0318
  163SAPE   H7R18309   5.475   3.857   7.698 -0.3566  0.4291 -0.5208
  163SAPE   H7S18310   5.587   3.911   7.821 -3.4453 -0.4499  0.4962
  163SAPE   C2818311   5.519   3.708   7.846 -0.7332 -0.1477 -0.7386
  163SAPE   H8R18312   5.532   3.609   7.800  1.5509  0.6168 -1.8108
  163SAPE   C2918313   5.466   3.725   7.972  0.0036  0.5189 -0.0682
  163SAPE   H9R18314   5.426   3.638   8.026 -0.5511  1.3501  0.8838
  163SAPE  C21018315   5.448   3.853   8.042 -0.4445 -0.0624  0.6869
  163SAPE  H10R18316   5.346   3.859   8.086 -0.9361 -2.4435 -0.0548
  163SAPE  H10S18317   5.455   3.942   7.976  0.5311 -1.1018 -0.6159
  163SAPE  C21118318   5.557   3.870   8.153 -0.0564  0.2171 -0.8075
  163SAPE  H11R18319   5.657   3.829   8.131 -0.3746 -2.5501  2.5867
  163SAPE  C21218320   5.545   3.918   8.276  0.1210  0.6288 -1.1841
  163SAPE  H12R18321   5.636   3.939   8.335 -1.2888 -1.0093  1.6948
  163SAPE  C21318322   5.415   3.948   8.333  0.1364  0.2205  0.9689
  163SAPE  H13R18323   5.352   3.857   8.342 -0.4942  0.3775 -1.5257
  163SAPE  H13S18324   5.364   4.021   8.265  1.2910  0.3698  0.2530
  163SAPE  C21418325   5.431   4.006   8.468 -0.5220 -1.0145  0.6192
  163SAPE  H14R18326   5.482   4.103   8.465  0.6973 -1.6663 -0.0578
  163SAPE  C21518327   5.391   3.965   8.590  0.4703 -0.0699 -0.2612
  163SAPE  H15R18328   5.406   4.025   8.681  1.0558  1.4313 -1.3183
  163SAPE  C21618329   5.299   3.853   8.623 -0.3023 -0.0824  0.4062
  163SAPE  H16R18330   5.341   3.750   8.615 -0.6492 -0.0590 -2.1744
  163SAPE  H16S18331   5.215   3.857   8.551 -1.7031  0.5212  2.0578
  163SAPE  C21718332   5.230   3.877   8.759 -0.0432 -0.3783  1.0740
  163SAPE  H17R18333   5.306   3.887   8.839  0.3442 -1.0464  0.7910
  163SAPE  H17S18334   5.180   3.782   8.787  0.6792 -0.7374  1.1603
  163SAPE  C21818335   5.120   3.983   8.764  0.3289 -0.1514 -0.1633
  163SAPE  H18R18336   5.037   3.956   8.695 -0.0960 -1.2138  0.7444
  163SAPE  H18S18337   5.156   4.082   8.727 -2.4025  0.5214 -1.1431
  163SAPE  C21918338   5.060   4.014   8.901 -0.0899 -0.6334 -0.2070
  163SAPE  H19R18339   5.141   4.049   8.968 -0.9707  1.3630 -0.1693
  163SAPE  H19S18340   5.022   3.919   8.943  0.1772 -0.3448  0.7032
  163SAPE  C22018341   4.941   4.105   8.907  0.3341  0.5130  0.0681
  163SAPE  H20R18342   4.858   4.053   8.856  1.2125 -1.6176  0.7600
  163SAPE  H20S18343   4.966   4.208   8.873  0.8547 -0.4795 -2.6369
  163SAPE  H20T18344   4.903   4.120   9.010  0.4754 -0.8002  0.3226
  163SAPE   C3318345   5.126   3.353   7.754  0.2669  0.2060 -0.1678
  163SAPE   H3X18346   5.231   3.322   7.771 -0.4530 -1.1859  1.9685
  163SAPE   H3Y18347   5.058   3.288   7.694 -2.2173  2.3020  0.3299
  163SAPE   C3418348   5.066   3.371   7.890  0.0054 -0.8298  0.0354
  163SAPE   H4X18349   5.046   3.271   7.932  0.1756 -0.6745  0.4800
  163SAPE   H4Y18350   4.967   3.420   7.875 -0.1675 -0.5804  1.8631
  163SAPE   C3518351   5.139   3.448   7.998  0.1696  0.1581 -0.2107
  163SAPE   H5X18352   5.181   3.543   7.959  2.6757 -0.5923  0.5334
  163SAPE   H5Y18353   5.229   3.390   8.028  0.3326  1.3348  1.6164
  163SAPE   C3618354   5.054   3.455   8.119 -0.7065 -0.1036  0.0937
  163SAPE   H6X18355   5.018   3.354   8.148  1.0169 -0.3128  1.6176
  163SAPE   H6Y18356   4.961   3.513   8.099  1.0653  1.9253 -2.5827
  163SAPE   C3718357   5.125   3.511   8.243  0.3477  0.5974  0.0183
  163SAPE   H7X18358   5.054   3.539   8.323  0.2665  1.9834 -0.5148
  163SAPE   H7Y18359   5.178   3.606   8.217 -1.0937  2.1990  2.7345
  163SAPE   C3818360   5.225   3.416   8.315  0.2526 -0.1965  0.1474
  163SAPE   H8X18361   5.289   3.364   8.241  0.1533  0.5105 -0.4422
  163SAPE   H8Y18362   5.174   3.343   8.381 -1.9429 -0.3888 -1.7100
  163SAPE   C3918363   5.299   3.495   8.420  0.1938 -0.2841 -0.0313
  163SAPE   H9X18364   5.225   3.554   8.479 -0.2893 -1.0240  0.1045
  163SAPE   H9Y18365   5.365   3.566   8.365 -1.3997  1.4968  0.2891
  163SAPE  C31018366   5.394   3.412   8.510 -0.5679  0.7529 -0.3536
  163SAPE  H10X18367   5.454   3.354   8.437 -0.4318 -0.6254  0.8214
  163SAPE  H10Y18368   5.326   3.348   8.571  0.7012 -0.5360 -0.2826
  163SAPE  C31118369   5.489   3.484   8.603  0.0629 -0.0899  0.2161
  163SAPE  H11X18370   5.535   3.407   8.669  1.0701 -1.9210 -2.5346
  163SAPE  H11Y18371   5.427   3.550   8.667 -0.7304 -0.3985 -0.2300
  163SAPE  C31218372   5.584   3.577   8.525  0.3770 -0.2414 -0.8696
  163SAPE  H12X18373   5.535   3.664   8.478 -1.9116 -0.3907  1.1444
  163SAPE  H12Y18374   5.622   3.509   8.445 -1.8746 -0.0729 -2.1046
  163SAPE  C31318375   5.708   3.628   8.610  0.5012 -0.0704  0.2440
  163SAPE  H13X18376   5.782   3.686   8.550  1.0439 -1.9471 -0.9358
  163SAPE  H13Y18377   5.752   3.545   8.669  1.1283  0.9552  1.2466
  163SAPE  C31418378   5.657   3.736   8.714 -1.0185 -0.3454 -0.2720
  163SAPE  H14X18379   5.573   3.693   8.774  0.2255 -0.8282  1.1752
  163SAPE  H14Y18380   5.622   3.827   8.660  0.2193  0.1468 -0.2633
  163SAPE  C31518381   5.775   3.778   8.809  0.8190 -0.5323  0.4498
  163SAPE  H15X18382   5.839   3.845   8.748 -0.2110  2.1902  2.2240
  163SAPE  H15Y18383   5.830   3.687   8.841 -0.9101 -1.3659  1.1024
  163SAPE  C31618384   5.730   3.873   8.920  1.1533  0.3741 -0.2586
  163SAPE  H16X18385   5.642   3.933   8.890 -0.4633 -1.0669  1.4480
  163SAPE  H16Y18386   5.808   3.947   8.949  0.0143  1.5187 -0.0854
  163SAPE  C31718387   5.702   3.805   9.056 -0.5908  0.6262  0.2373
  163SAPE  H17X18388   5.693   3.891   9.127  0.3988  0.1354  0.9711
  163SAPE  H17Y18389   5.782   3.740   9.097  0.1318  0.6366 -1.1509
  163SAPE  C31818390   5.580   3.717   9.072  0.0888  0.7280 -0.2611
  163SAPE  H18X18391   5.596   3.623   9.015 -1.3369  0.6737 -0.5661
  163SAPE  H18Y18392   5.488   3.754   9.022 -2.8819 -2.6420  2.4573
  163SAPE  H18Z18393   5.576   3.683   9.178  0.2136  0.7596 -0.2463
  164SAPE     N18394   1.766   0.524   5.622 -0.2141 -0.4344  0.2996
  164SAPE   HN118395   1.822   0.611   5.609  0.6093 -0.7870  1.4140
  164SAPE   HN218396   1.808   0.451   5.683  0.0821 -0.8441 -0.3852
  164SAPE   HN318397   1.742   0.481   5.530 -0.6180 -2.1016  1.1584
  164SAPE   C1218398   1.639   0.579   5.661  0.6604 -0.3585  0.6884
  164SAPE  H12A18399   1.557   0.509   5.631 -0.8113  1.3965  0.5174
  164SAPE  H12B18400   1.616   0.667   5.597  1.2536 -1.9218 -1.7500
  164SAPE   C1118401   1.624   0.595   5.813 -0.0990  0.4151  0.0182
  164SAPE  H11A18402   1.669   0.503   5.856  0.0860  1.0088  1.1070
  164SAPE  H11B18403   1.514   0.592   5.831  0.2401 -1.1688  1.9569
  164SAPE     P18404   1.686   0.740   6.021 -0.1009  0.0793 -0.0950
  164SAPE   O1318405   1.808   0.814   6.066  0.0814 -0.2372 -0.1926
  164SAPE   O1418406   1.565   0.815   6.050  0.0408 -0.3043 -0.8040
  164SAPE   O1218407   1.690   0.714   5.867 -0.2432  0.1838 -0.1701
  164SAPE   O1118408   1.693   0.598   6.077 -0.2582 -0.0553  0.1364
  164SAPE    C118409   1.784   0.533   6.167  0.0592  0.6104 -0.9138
  164SAPE    HA18410   1.751   0.429   6.188  0.6248  0.1121 -2.4540
  164SAPE    HB18411   1.881   0.521   6.114  0.1138 -2.1626 -0.2740
  164SAPE    C218412   1.790   0.602   6.303 -0.2698 -0.1520  0.5379
  164SAPE    HS18413   1.818   0.709   6.301 -1.7457  0.2749  1.9694
  164SAPE   O2118414   1.871   0.516   6.394 -0.0334 -1.0033 -0.0635
  164SAPE   C2118415   1.943   0.590   6.487  0.5583  0.1834  0.6728
  164SAPE   O2218416   1.967   0.710   6.489  0.4984  0.0351 -0.2745
  164SAPE   C2218417   1.973   0.510   6.613  0.1501 -0.2011  0.4811
  164SAPE   H2R18418   1.899   0.545   6.688 -2.2598 -2.3254 -0.8290
  164SAPE   H2S18419   1.939   0.405   6.598 -3.3326  0.5483  2.4272
  164SAPE    C318420   1.649   0.592   6.373  0.3559  0.8245  0.0846
  164SAPE    HX18421   1.631   0.482   6.371 -1.5556  1.1439 -1.9008
  164SAPE    HY18422   1.572   0.641   6.310 -0.0755 -0.6609 -0.5724
  164SAPE   O3118423   1.645   0.635   6.513  0.4086  0.3405 -0.0858
  164SAPE   C3118424   1.641   0.765   6.532 -0.3298  0.4391 -0.1098
  164SAPE   O3218425   1.628   0.846   6.445 -0.3822  0.0364  0.1272
  164SAPE   C3218426   1.631   0.792   6.679 -0.4340  0.2524 -0.2581
  164SAPE   H2X18427   1.656   0.898   6.699  1.4582 -0.3803  0.8469
  164SAPE   H2Y18428   1.711   0.727   6.721 -1.5775 -0.2419  1.1856
  164SAPE   C2318429   2.121   0.529   6.655  0.7601  0.1580  0.3858
  164SAPE   H3R18430   2.140   0.639   6.663  0.2785  0.3518 -1.1188
  164SAPE   H3S18431   2.193   0.496   6.577 -0.9717 -1.2182 -0.6434
  164SAPE   C2418432   2.151   0.471   6.787 -0.3172 -0.1822 -0.1385
  164SAPE   H4R18433   2.087   0.512   6.868  0.0934  0.1607  0.0107
  164SAPE   H4S18434   2.257   0.481   6.818 -0.1216 -2.0497 -0.1473
  164SAPE   C2518435   2.114   0.325   6.770  0.0345 -0.0639  0.1903
  164SAPE   H5R18436   2.097   0.296   6.665 -0.3329  0.8112  0.0010
  164SAPE   C2618437   2.096   0.234   6.862  0.4518 -0.0418 -0.5194
  164SAPE   H6R18438   2.077   0.131   6.831 -0.2185  0.1094 -0.6184
  164SAPE   C2718439   2.109   0.253   7.015 -0.1257  0.2310 -0.1317
  164SAPE   H7R18440   2.047   0.343   7.038 -0.1448 -0.0500  0.9419
  164SAPE   H7S18441   2.217   0.268   7.038  0.3659  0.8531 -2.6761
  164SAPE   C2818442   2.061   0.133   7.098  0.3459 -0.2994 -0.3741
  164SAPE   H8R18443   2.041   0.045   7.035  1.3388 -0.0180 -1.1125
  164SAPE   C2918444   2.050   0.124   7.231  0.6216 -0.2616  0.3382
  164SAPE   H9R18445   2.023   0.025   7.268 -1.3117  1.0010  2.4589
  164SAPE  C21018446   2.082   0.238   7.327  0.3044  0.2898  0.4905
  164SAPE  H10R18447   2.030   0.207   7.420  0.4242  1.5386  0.9854
  164SAPE  H10S18448   2.050   0.340   7.295  0.3102 -0.2117 -1.1581
  164SAPE  C21118449   2.226   0.256   7.358 -1.0998  0.3928  0.9199
  164SAPE  H11R18450   2.294   0.270   7.272 -0.8821  1.9773  1.3317
  164SAPE  C21218451   2.278   0.267   7.481 -0.1139  0.0661  0.1544
  164SAPE  H12R18452   2.383   0.296   7.478 -0.2571  1.1877  3.8629
  164SAPE  C21318453   2.203   0.271   7.611 -0.1391  0.2497 -0.0676
  164SAPE  H13R18454   2.115   0.333   7.586  0.0172  0.0120 -1.2524
  164SAPE  H13S18455   2.268   0.337   7.673  0.6527  0.4399 -1.0796
  164SAPE  C21418456   2.159   0.140   7.665  0.1798  0.4170 -0.4340
  164SAPE  H14R18457   2.133   0.057   7.598  1.2026 -1.7510  1.8125
  164SAPE  C21518458   2.129   0.121   7.792  0.1439  0.1738  1.2953
  164SAPE  H15R18459   2.094   0.025   7.832 -1.6076  0.7995  1.2798
  164SAPE  C21618460   2.146   0.222   7.904 -0.2456 -0.2521  0.1669
  164SAPE  H16R18461   2.218   0.304   7.883  0.6375 -0.3530  2.6678
  164SAPE  H16S18462   2.191   0.169   7.990  1.3798 -1.7812 -1.5788
  164SAPE  C21718463   2.022   0.300   7.938  0.2121 -0.3139 -0.5969
  164SAPE  H17R18464   2.006   0.385   7.868 -0.5069  0.6357  0.7053
  164SAPE  H17S18465   2.027   0.346   8.039 -1.2920 -1.6611  0.1210
  164SAPE  C21818466   1.906   0.204   7.955 -0.4602 -0.0369 -0.8235
  164SAPE  H18R18467   1.936   0.106   7.998 -3.6514 -1.2206 -1.1009
  164SAPE  H18S18468   1.852   0.174   7.863 -0.2343 -1.9907 -0.3336
  164SAPE  C21918469   1.793   0.274   8.043  0.6786  0.1191  0.3570
  164SAPE  H19R18470   1.819   0.314   8.143  0.3961  0.2785  0.3676
  164SAPE  H19S18471   1.711   0.199   8.055  1.4586 -0.5662  1.5294
  164SAPE  C22018472   1.737   0.396   7.975  0.1872  0.4249  0.1245
  164SAPE  H20R18473   1.822   0.465   7.956  0.1903 -0.1373 -2.0408
  164SAPE  H20S18474   1.667   0.452   8.041 -0.0879  0.4280 -0.1696
  164SAPE  H20T18475   1.687   0.390   7.876 -0.8108 -1.4162  0.7080
  164SAPE   C3318476   1.493   0.761   6.727 -0.5058  0.3929  0.7484
  164SAPE   H3X18477   1.450   0.663   6.698 -0.1646  0.0682  1.3223
  164SAPE   H3Y18478   1.426   0.844   6.697  1.0370  0.8810 -1.5037
  164SAPE   C3418479   1.494   0.749   6.882 -0.5454 -0.2191  0.1948
  164SAPE   H4X18480   1.536   0.845   6.921 -1.9609  0.1871  0.7775
  164SAPE   H4Y18481   1.568   0.670   6.904 -2.1673 -0.4926  5.3987
  164SAPE   C3518482   1.364   0.709   6.954  0.4241  0.5699 -0.3176
  164SAPE   H5X18483   1.318   0.624   6.899 -1.3760  1.3919 -0.1212
  164SAPE   H5Y18484   1.291   0.791   6.933  1.1672  0.8471 -1.8850
  164SAPE   C3618485   1.386   0.663   7.105  0.2414  0.4077 -0.2902
  164SAPE   H6X18486   1.448   0.747   7.141 -0.4300 -0.0736  2.1175
  164SAPE   H6Y18487   1.434   0.562   7.108 -0.1818  0.2100 -0.0417
  164SAPE   C3718488   1.257   0.664   7.195  0.4154 -0.8584  1.0927
  164SAPE   H7X18489   1.171   0.601   7.164 -1.3888  1.0659  1.9635
  164SAPE   H7Y18490   1.221   0.767   7.170 -1.3122 -1.8054 -0.4400
  164SAPE   C3818491   1.295   0.640   7.344 -0.1914  0.1266  0.9204
  164SAPE   H8X18492   1.204   0.655   7.406 -0.5328 -0.5263  0.5912
  164SAPE   H8Y18493   1.368   0.717   7.373  0.8690 -0.6229  0.2839
  164SAPE   C3918494   1.356   0.493   7.360 -0.1448 -0.0559 -0.2822
  164SAPE   H9X18495   1.458   0.489   7.317 -0.2469  1.3263 -0.7098
  164SAPE   H9Y18496   1.282   0.441   7.296 -1.5024 -2.0452  2.8059
  164SAPE  C31018497   1.348   0.448   7.498  0.1251  0.0905 -0.3595
  164SAPE  H10X18498   1.248   0.473   7.540  0.2603 -0.3931  0.2619
  164SAPE  H10Y18499   1.417   0.499   7.569  0.3357  1.9861 -1.8870
  164SAPE  C31118500   1.354   0.301   7.513 -0.0079  1.2409  0.3560
  164SAPE  H11X18501   1.423   0.249   7.443  1.7109  1.4036  1.8616
  164SAPE  H11Y18502   1.250   0.264   7.503 -0.1075  1.7534 -0.5442
  164SAPE  C31218503   1.400   0.258   7.655 -0.4304  0.3535  0.1448
  164SAPE  H12X18504   1.483   0.321   7.692 -1.3183  0.9678  1.1272
  164SAPE  H12Y18505   1.433   0.152   7.649  0.1392  0.5028  0.6249
  164SAPE  C31318506   1.302   0.280   7.768  0.1917  0.0818 -0.4279
  164SAPE  H13X18507   1.204   0.228   7.755  0.3881 -0.1149 -1.1405
  164SAPE  H13Y18508   1.276   0.387   7.774  1.5870  0.4844 -1.4378
  164SAPE  C31418509   1.356   0.221   7.902 -0.5635 -0.0036 -0.4312
  164SAPE  H14X18510   1.463   0.250   7.912 -0.6030 -0.2798  0.8017
  164SAPE  H14Y18511   1.352   0.111   7.889  0.3094 -0.1148  0.2147
  164SAPE  C31518512   1.278   0.265   8.021  0.3497 -0.0879  0.5605
  164SAPE  H15X18513   1.308   0.216   8.117  0.4598 -2.5618 -0.7019
  164SAPE  H15Y18514   1.171   0.239   8.022  0.6360 -1.2911  0.4256
  164SAPE  C31618515   1.283   0.412   8.049 -0.0969 -0.6136 -0.0439
  164SAPE  H16X18516   1.266   0.483   7.965 -0.6346 -0.4009  0.2451
  164SAPE  H16Y18517   1.389   0.430   8.077 -0.6111  3.7410 -0.6083
  164SAPE  C31718518   1.182   0.464   8.152  0.2997 -0.5139  0.1919
  164SAPE  H17X18519   1.206   0.409   8.245  3.3618  1.1751  0.4573
  164SAPE  H17Y18520   1.076   0.444   8.124  0.2450  0.7622 -0.5447
  164SAPE  C31818521   1.190   0.612   8.178 -0.1681 -0.5487 -0.5213
  164SAPE  H18X18522   1.129   0.626   8.270  0.3740  0.8984 -0.3540
  164SAPE  H18Y18523   1.138   0.667   8.096 -0.6195 -1.7658 -1.0595
  164SAPE  H18Z18524   1.291   0.654   8.197  0.2784 -1.5296 -0.7258
  165SAPE     N18525   1.886   3.163   6.312  0.1208 -0.1536 -0.4427
  165SAPE   HN118526   1.980   3.157   6.268 -0.5049 -1.5326 -1.6280
  165SAPE   HN218527   1.894   3.167   6.416  0.8747  1.4795 -0.5463
  165SAPE   HN318528   1.835   3.078   6.279  1.7128 -1.0358 -0.6754
  165SAPE   C1218529   1.798   3.275   6.249  0.6927 -0.4919  0.2860
  165SAPE  H12A18530   1.708   3.221   6.215 -1.4509  1.7036  2.2845
  165SAPE  H12B18531   1.850   3.304   6.156 -0.9235 -1.9783 -1.1045
  165SAPE   C1118532   1.775   3.392   6.339 -0.0878  0.7390 -0.5794
  165SAPE  H11A18533   1.710   3.372   6.427  0.5289 -0.1739 -0.3292
  165SAPE  H11B18534   1.720   3.480   6.300  0.0564  0.3150 -1.7721
  165SAPE     P18535   1.977   3.557   6.341 -0.1719  0.3855  0.3285
  165SAPE   O1318536   2.111   3.554   6.404 -0.0877 -0.2542 -0.4630
  165SAPE   O1418537   1.965   3.553   6.193  0.0610  0.0069  0.3308
  165SAPE   O1218538   1.902   3.429   6.402  0.4532  0.5785 -0.0004
  165SAPE   O1118539   1.896   3.682   6.394  0.0723  0.2515  0.4629
  165SAPE    C118540   1.930   3.773   6.496  0.3572  0.0028 -0.5773
  165SAPE    HA18541   2.041   3.777   6.503  0.3898  0.1605 -1.0975
  165SAPE    HB18542   1.894   3.876   6.475 -1.1012 -0.3957 -0.0462
  165SAPE    C218543   1.871   3.729   6.637 -0.9409  0.0205  0.3539
  165SAPE    HS18544   1.833   3.814   6.698 -0.5044  1.3312 -1.1607
  165SAPE   O2118545   1.976   3.653   6.706 -0.0476  0.1673 -0.3868
  165SAPE   C2118546   2.076   3.720   6.749 -0.4683  0.4445  0.4388
  165SAPE   O2218547   2.095   3.843   6.733  0.6761 -0.4183 -0.6340
  165SAPE   C2218548   2.157   3.634   6.842  0.5012  0.2858  0.6569
  165SAPE   H2R18549   2.099   3.545   6.874 -0.1839  0.8720  1.0942
  165SAPE   H2S18550   2.248   3.594   6.792  1.2086  2.6233 -0.0041
  165SAPE    C318551   1.748   3.642   6.628  0.4788  0.3732 -0.8650
  165SAPE    HX18552   1.784   3.537   6.613 -1.5151 -0.1268 -2.3149
  165SAPE    HY18553   1.690   3.664   6.537  0.7349 -0.3692 -1.2189
  165SAPE   O3118554   1.660   3.659   6.753 -0.3233  0.1968 -0.4563
  165SAPE   C3118555   1.532   3.630   6.720 -0.4166  0.1110  0.2032
  165SAPE   O3218556   1.497   3.582   6.613 -0.3494 -0.0230  0.2767
  165SAPE   C3218557   1.441   3.651   6.832 -0.0273 -0.8963 -0.2945
  165SAPE   H2X18558   1.367   3.568   6.830 -0.2897 -0.6098 -3.6691
  165SAPE   H2Y18559   1.376   3.739   6.814  0.5248 -0.2800  0.6743
  165SAPE   C2318560   2.198   3.709   6.973  0.5865 -0.6651 -0.1304
  165SAPE   H3R18561   2.109   3.765   7.010 -0.2550 -2.7918  1.2000
  165SAPE   H3S18562   2.272   3.788   6.949 -2.4233  2.6121  0.9536
  165SAPE   C2418563   2.254   3.617   7.081  0.4871  0.0094  0.1860
  165SAPE   H4R18564   2.261   3.686   7.168 -0.3674  1.5079 -0.8970
  165SAPE   H4S18565   2.358   3.584   7.064  0.5952 -0.6949  2.1044
  165SAPE   C2518566   2.157   3.507   7.125  0.6215  0.0777 -0.1931
  165SAPE   H5R18567   2.143   3.421   7.058 -2.5834  0.2932  0.0988
  165SAPE   C2618568   2.098   3.494   7.245 -0.1877 -0.0723 -0.1564
  165SAPE   H6R18569   2.023   3.415   7.255  1.7104 -1.6624  2.0982
  165SAPE   C2718570   2.120   3.577   7.372 -0.1030  0.5136 -0.7469
  165SAPE   H7R18571   2.196   3.656   7.351  1.4673 -0.3427  1.4707
  165SAPE   H7S18572   2.170   3.517   7.451 -3.2863 -3.4783 -1.6285
  165SAPE   C2818573   1.990   3.640   7.425  0.5963  0.8842  0.5222
  165SAPE   H8R18574   1.944   3.697   7.343 -0.0776 -1.1258 -0.5307
  165SAPE   C2918575   1.936   3.639   7.550  0.6443  0.2632 -0.0091
  165SAPE   H9R18576   1.847   3.697   7.579 -0.6330 -0.4076 -2.5117
  165SAPE  C21018577   2.008   3.571   7.668 -0.3773 -0.5231 -0.4607
  165SAPE  H10R18578   2.068   3.483   7.637 -0.8367 -1.1338  0.3404
  165SAPE  H10S18579   1.939   3.524   7.741  1.0050 -2.2810 -0.2676
  165SAPE  C21118580   2.115   3.657   7.737 -0.3321  0.7374  0.5807
  165SAPE  H11R18581   2.116   3.760   7.699  0.8748  0.4700 -0.1576
  165SAPE  C21218582   2.203   3.623   7.837 -0.2269 -0.3526 -0.0194
  165SAPE  H12R18583   2.262   3.707   7.874  0.1825  0.8724 -3.2346
  165SAPE  C21318584   2.223   3.491   7.903 -0.2403 -0.1220  0.2497
  165SAPE  H13R18585   2.231   3.408   7.829 -1.5191  0.5073 -0.6095
  165SAPE  H13S18586   2.130   3.452   7.950 -2.2093  1.1717 -2.4336
  165SAPE  C21418587   2.349   3.493   7.985  0.8739  0.0813 -0.1888
  165SAPE  H14R18588   2.435   3.521   7.922  0.8955  1.3159  0.3874
  165SAPE  C21518589   2.370   3.473   8.118 -0.1655 -0.1596  0.1883
  165SAPE  H15R18590   2.472   3.481   8.159  0.2252  0.3358 -0.8481
  165SAPE  C21618591   2.264   3.433   8.218  0.3352  0.1672 -0.3245
  165SAPE  H16R18592   2.285   3.334   8.262 -1.0969  0.2545  0.5966
  165SAPE  H16S18593   2.162   3.423   8.176 -0.2010 -0.8773  1.1831
  165SAPE  C21718594   2.251   3.541   8.332 -0.4285  0.3246 -0.7180
  165SAPE  H17R18595   2.169   3.507   8.399  0.1829 -0.2821 -0.2728
  165SAPE  H17S18596   2.221   3.636   8.282 -0.2555  0.9483  0.3557
  165SAPE  C21818597   2.382   3.557   8.414 -0.9906  0.9915  0.4579
  165SAPE  H18R18598   2.471   3.581   8.352 -1.2705  0.3697 -0.1938
  165SAPE  H18S18599   2.389   3.460   8.469  1.6589  1.6911  1.4486
  165SAPE  C21918600   2.369   3.675   8.513  0.2080 -0.2455  0.3712
  165SAPE  H19R18601   2.283   3.662   8.581 -1.7212  2.4371 -1.4604
  165SAPE  H19S18602   2.351   3.760   8.445 -0.4720 -0.9810 -0.3737
  165SAPE  C22018603   2.498   3.705   8.593  0.3660 -0.1848  0.1223
  165SAPE  H20R18604   2.504   3.809   8.630  0.4319 -0.4042  0.7285
  165SAPE  H20S18605   2.584   3.684   8.526 -1.8005 -0.7611 -2.5966
  165SAPE  H20T18606   2.507   3.628   8.673 -1.1776  1.3590  1.8167
  165SAPE   C3318607   1.502   3.652   6.971 -0.3000  0.4114 -0.3162
  165SAPE   H3X18608   1.574   3.735   6.988 -0.6801  1.1710 -2.3832
  165SAPE   H3Y18609   1.559   3.559   6.995  0.6962  1.2803  0.7576
  165SAPE   C3418610   1.391   3.665   7.087 -0.0067 -0.1795 -0.1474
  165SAPE   H4X18611   1.319   3.581   7.078  1.3711 -1.4617  0.7010
  165SAPE   H4Y18612   1.335   3.760   7.069 -0.5792 -0.2266  1.3115
  165SAPE   C3518613   1.445   3.660   7.223  0.1642 -0.2859  0.0219
  165SAPE   H5X18614   1.526   3.735   7.233  0.9694 -0.9460 -1.3783
  165SAPE   H5Y18615   1.508   3.569   7.232  0.0814 -0.3504 -0.0502
  165SAPE   C3618616   1.347   3.686   7.334 -0.8955  0.5859  0.5275
  165SAPE   H6X18617   1.283   3.597   7.353  0.3451 -0.3170  0.4792
  165SAPE   H6Y18618   1.266   3.751   7.292  1.3615  3.0248 -0.1697
  165SAPE   C3718619   1.399   3.758   7.461 -0.3987  0.2869  0.4128
  165SAPE   H7X18620   1.315   3.768   7.533  1.6097  1.3399  2.6967
  165SAPE   H7Y18621   1.428   3.860   7.428 -0.1603  0.2544  0.5169
  165SAPE   C3818622   1.524   3.711   7.541 -0.3058 -0.4095  0.1244
  165SAPE   H8X18623   1.597   3.794   7.552  1.4094 -1.9805  0.8589
  165SAPE   H8Y18624   1.577   3.631   7.484  0.5042  1.1165 -1.2980
  165SAPE   C3918625   1.488   3.662   7.679  0.0407 -0.0527  0.2667
  165SAPE   H9X18626   1.435   3.566   7.660  1.4778 -0.7763 -0.2264
  165SAPE   H9Y18627   1.405   3.722   7.720  0.6361  0.6138  0.5018
  165SAPE  C31018628   1.608   3.640   7.772 -0.3070  0.5192 -0.1165
  165SAPE  H10X18629   1.645   3.743   7.794 -1.2956  0.2456  3.1192
  165SAPE  H10Y18630   1.680   3.577   7.717  0.0004  1.7475 -1.1539
  165SAPE  C31118631   1.586   3.570   7.905  0.4058 -0.0018  0.8761
  165SAPE  H11X18632   1.559   3.465   7.883  1.6102 -0.0955 -0.2329
  165SAPE  H11Y18633   1.504   3.620   7.962 -0.7103  0.4385 -1.0650
  165SAPE  C31218634   1.715   3.569   7.985  0.6372 -0.0655 -0.1375
  165SAPE  H12X18635   1.723   3.674   8.021 -0.6440  0.2356 -0.6689
  165SAPE  H12Y18636   1.800   3.533   7.923  0.2234 -4.1264  1.5488
  165SAPE  C31318637   1.706   3.484   8.112  0.2612  0.0554 -0.4711
  165SAPE  H13X18638   1.706   3.376   8.086 -2.3201  0.0181 -0.5026
  165SAPE  H13Y18639   1.611   3.510   8.164 -0.4080 -0.5626 -1.3568
  165SAPE  C31418640   1.822   3.508   8.206  0.6697 -0.0875  0.4720
  165SAPE  H14X18641   1.853   3.614   8.221  1.0144  0.0420 -1.0930
  165SAPE  H14Y18642   1.918   3.468   8.168  0.9618  0.6585  0.4083
  165SAPE  C31518643   1.792   3.431   8.342 -0.1789  0.3144  0.2674
  165SAPE  H15X18644   1.874   3.454   8.414 -0.3722 -0.7535  0.8341
  165SAPE  H15Y18645   1.770   3.326   8.316 -0.8191  0.1990  1.2367
  165SAPE  C31618646   1.668   3.481   8.431  0.0954 -0.5814 -0.0062
  165SAPE  H16X18647   1.680   3.412   8.517  0.3894 -2.6032 -1.6210
  165SAPE  H16Y18648   1.575   3.449   8.379 -1.0754  1.6027  0.7211
  165SAPE  C31718649   1.648   3.623   8.483 -0.1386 -0.0956  0.3523
  165SAPE  H17X18650   1.731   3.637   8.556 -0.7912 -0.2137  1.1252
  165SAPE  H17Y18651   1.557   3.628   8.547 -1.1273 -1.0208 -0.9541
  165SAPE  C31818652   1.636   3.727   8.375  1.5262 -0.2604  0.7818
  165SAPE  H18X18653   1.734   3.740   8.326  1.0927 -1.1817 -0.3399
  165SAPE  H18Y18654   1.620   3.825   8.425  0.2273  0.6759 -1.3855
  165SAPE  H18Z18655   1.560   3.708   8.296  2.1312  1.8054 -0.3247
  166SAPE     N18656   1.429   0.939   5.862 -0.2079 -0.3453 -0.4919
  166SAPE   HN118657   1.481   0.881   5.931  0.2858  1.4948  0.7167
  166SAPE   HN218658   1.366   0.873   5.813 -1.3703 -0.5660  1.2604
  166SAPE   HN318659   1.489   0.987   5.791 -2.4190  0.5749 -1.7805
  166SAPE   C1218660   1.356   1.048   5.940  0.3400  0.8607 -0.1118
  166SAPE  H12A18661   1.296   1.108   5.868 -0.1863 -0.4973 -0.8315
  166SAPE  H12B18662   1.430   1.117   5.985 -0.8775  0.7427  2.1053
  166SAPE   C1118663   1.253   0.990   6.039  0.7160 -0.5538 -0.2187
  166SAPE  H11A18664   1.184   1.069   6.074  1.8159  0.5476 -0.5140
  166SAPE  H11B18665   1.308   0.954   6.129 -0.1894 -0.3963  0.4076
  166SAPE     P18666   1.093   0.779   6.056 -0.2028 -0.4866 -0.5409
  166SAPE   O1318667   0.978   0.864   6.094 -0.1472  0.6978 -0.0480
  166SAPE   O1418668   1.065   0.659   5.976 -0.3077  0.1607  0.5055
  166SAPE   O1218669   1.180   0.879   5.978  0.1540  0.2089 -0.3457
  166SAPE   O1118670   1.183   0.747   6.187 -0.2829  0.0992 -0.1985
  166SAPE    C118671   1.257   0.632   6.184  0.2903  0.3072  0.1993
  166SAPE    HA18672   1.292   0.602   6.083 -0.6471 -1.1220  0.2818
  166SAPE    HB18673   1.346   0.641   6.250  0.2402 -0.5687  0.3962
  166SAPE    C218674   1.181   0.504   6.241 -0.2764 -0.8115 -0.3448
  166SAPE    HS18675   1.079   0.502   6.197  0.3968 -0.2526 -1.9618
  166SAPE   O2118676   1.197   0.523   6.385 -0.0749 -0.1200  0.1826
  166SAPE   C2118677   1.088   0.548   6.439 -0.1764  0.1568 -0.3434
  166SAPE   O2218678   0.977   0.553   6.383  0.5638 -0.3401 -0.2827
  166SAPE   C2218679   1.116   0.599   6.583 -0.3826  0.2363  0.7932
  166SAPE   H2R18680   1.126   0.518   6.658 -1.1201  0.7222  1.4223
  166SAPE   H2S18681   1.209   0.659   6.584 -0.0826 -0.2433  1.8170
  166SAPE    C318682   1.254   0.370   6.202 -0.1662  0.3028 -0.1377
  166SAPE    HX18683   1.358   0.389   6.237  0.7286  0.5416 -2.7830
  166SAPE    HY18684   1.272   0.367   6.092 -1.4033 -0.0953 -0.3426
  166SAPE   O3118685   1.200   0.247   6.257 -0.5618 -0.0754 -0.2883
  166SAPE   C3118686   1.100   0.182   6.198  0.0784 -0.1419  0.1544
  166SAPE   O3218687   1.041   0.218   6.099  0.1082  0.4992  0.0860
  166SAPE   C3218688   1.065   0.056   6.272  0.3734  0.8302  1.0314
  166SAPE   H2X18689   1.137  -0.023   6.245  0.6877  2.0576 -1.9196
  166SAPE   H2Y18690   0.970   0.024   6.225  0.8981  0.2871  0.3388
  166SAPE   C2318691   1.001   0.696   6.638 -0.3029  0.0819 -0.0767
  166SAPE   H3R18692   0.995   0.778   6.563 -0.4387 -0.0026 -0.1571
  166SAPE   H3S18693   1.032   0.757   6.726 -0.7464  0.8975 -0.4767
  166SAPE   C2418694   0.864   0.633   6.681 -0.0947 -0.2834  0.0218
  166SAPE   H4R18695   0.819   0.574   6.598  1.6614 -0.3933 -0.8711
  166SAPE   H4S18696   0.805   0.728   6.685 -2.1658 -1.5287 -0.1304
  166SAPE   C2518697   0.891   0.548   6.798  0.3571  0.2538 -0.1873
  166SAPE   H5R18698   0.921   0.448   6.763 -0.9357 -0.8512  1.7603
  166SAPE   C2618699   0.889   0.562   6.936  0.3072 -0.1659 -1.1209
  166SAPE   H6R18700   0.910   0.477   7.002 -1.5599  0.2531  0.0496
  166SAPE   C2718701   0.851   0.687   7.003 -0.0108 -0.1188 -0.4287
  166SAPE   H7R18702   0.818   0.758   6.924  1.3926 -0.4854 -1.3728
  166SAPE   H7S18703   0.931   0.745   7.054 -0.1988 -0.1694 -0.0760
  166SAPE   C2818704   0.735   0.659   7.090  0.2179 -0.2444 -0.2172
  166SAPE   H8R18705   0.649   0.633   7.026 -0.5315  0.1181  0.6290
  166SAPE   C2918706   0.719   0.690   7.223 -0.5294  0.6454  0.2251
  166SAPE   H9R18707   0.624   0.659   7.270 -1.2062  0.2048 -1.3906
  166SAPE  C21018708   0.821   0.752   7.316 -0.4470  0.0165  0.0731
  166SAPE  H10R18709   0.833   0.859   7.290 -1.0938 -0.4924 -2.5031
  166SAPE  H10S18710   0.923   0.713   7.291  0.4740 -0.1099  3.7609
  166SAPE  C21118711   0.798   0.754   7.467  0.1621 -0.6511  0.6820
  166SAPE  H11R18712   0.751   0.843   7.511  2.0348  0.1188  1.1687
  166SAPE  C21218713   0.815   0.655   7.555  0.1428 -0.2990 -0.6095
  166SAPE  H12R18714   0.778   0.675   7.657  2.0085 -0.5760  0.1375
  166SAPE  C21318715   0.870   0.519   7.527  0.8017  1.0039 -0.1220
  166SAPE  H13R18716   0.920   0.505   7.429 -0.7831 -1.5633 -0.6009
  166SAPE  H13S18717   0.777   0.459   7.521  0.6926  1.0315  1.2108
  166SAPE  C21418718   0.967   0.477   7.636  0.9304 -0.0018  0.3596
  166SAPE  H14R18719   1.070   0.512   7.623  1.0789  0.1145  1.7302
  166SAPE  C21518720   0.934   0.420   7.757 -0.8251  0.2313  0.7602
  166SAPE  H15R18721   1.015   0.395   7.827  0.9643  0.4271 -1.1909
  166SAPE  C21618722   0.797   0.379   7.806 -0.2837 -0.6102  0.1757
  166SAPE  H16R18723   0.767   0.275   7.779  1.7387 -1.8176  2.4529
  166SAPE  H16S18724   0.720   0.448   7.763 -0.3587 -0.6672  0.2184
  166SAPE  C21718725   0.780   0.395   7.963  0.1464 -0.3635 -0.5598
  166SAPE  H17R18726   0.850   0.323   8.009 -0.6164 -1.4880 -1.1376
  166SAPE  H17S18727   0.676   0.359   7.981 -0.1956  1.3437  1.0645
  166SAPE  C21818728   0.803   0.546   7.994 -0.3652  0.0606  0.3446
  166SAPE  H18R18729   0.753   0.604   7.913 -0.4185  0.7726  0.8851
  166SAPE  H18S18730   0.913   0.560   7.986 -0.3863 -0.6801 -1.6351
  166SAPE  C21918731   0.745   0.589   8.128 -0.3373 -0.2437  0.9042
  166SAPE  H19R18732   0.798   0.680   8.162 -1.7450  0.1445  2.1441
  166SAPE  H19S18733   0.766   0.515   8.209  0.6214  0.3823  1.2294
  166SAPE  C22018734   0.586   0.586   8.139  0.8150  0.4908  0.0273
  166SAPE  H20R18735   0.537   0.629   8.049 -1.2096 -0.3002  0.7256
  166SAPE  H20S18736   0.564   0.651   8.227  0.4062  1.0732 -0.4965
  166SAPE  H20T18737   0.546   0.484   8.158 -0.1832  0.9028  0.1857
  166SAPE   C3318738   1.053   0.086   6.420  0.5407 -0.2461 -0.5765
  166SAPE   H3X18739   0.977   0.166   6.432  1.0757  0.2341 -0.3511
  166SAPE   H3Y18740   1.147   0.125   6.464 -0.7641  2.0942  0.2461
  166SAPE   C3418741   0.995  -0.038   6.493 -0.0339  0.4609 -0.0759
  166SAPE   H4X18742   1.060  -0.124   6.466 -1.8932 -2.1103  3.1823
  166SAPE   H4Y18743   0.889  -0.053   6.464 -0.1026 -2.1826  1.3376
  166SAPE   C3518744   1.006  -0.009   6.648  0.1969 -0.1633 -0.0362
  166SAPE   H5X18745   0.943   0.080   6.669 -0.9164 -1.1702  0.9385
  166SAPE   H5Y18746   1.113   0.018   6.664  0.5262 -1.5622  0.2604
  166SAPE   C3618747   0.969  -0.123   6.736 -0.2576 -0.4535 -0.2210
  166SAPE   H6X18748   0.987  -0.222   6.690 -0.6483  0.2462 -1.8988
  166SAPE   H6Y18749   0.860  -0.117   6.754 -0.3127  1.0005 -1.0016
  166SAPE   C3718750   1.036  -0.125   6.871  0.2569 -0.8283 -0.9446
  166SAPE   H7X18751   1.006  -0.033   6.926 -1.1877 -2.5013  1.1139
  166SAPE   H7Y18752   1.141  -0.103   6.843  0.2215 -0.2402 -0.6289
  166SAPE   C3818753   1.029  -0.267   6.937  0.5618  0.1604 -0.2371
  166SAPE   H8X18754   1.093  -0.329   6.870  3.2201  1.5845  0.9054
  166SAPE   H8Y18755   0.923  -0.299   6.933  1.3161 -2.3678 -1.2183
  166SAPE   C3918756   1.058  -0.278   7.086 -0.0549 -0.0590  0.3962
  166SAPE   H9X18757   1.034  -0.382   7.118  1.1399 -1.3283 -2.6642
  166SAPE   H9Y18758   1.009  -0.197   7.144  0.4120  0.9942 -0.6875
  166SAPE  C31018759   1.210  -0.260   7.116  0.6237  0.3185  0.3034
  166SAPE  H10X18760   1.228  -0.154   7.088  0.7187 -0.2346 -1.7647
  166SAPE  H10Y18761   1.277  -0.329   7.061 -0.8151 -0.2535 -0.7576
  166SAPE  C31118762   1.238  -0.290   7.261  0.0029  0.1754  0.3521
  166SAPE  H11X18763   1.212  -0.396   7.281 -0.1832  0.0211 -0.6823
  166SAPE  H11Y18764   1.166  -0.229   7.320  0.0004  0.4191  0.0958
  166SAPE  C31218765   1.384  -0.253   7.311  0.1017  0.7046  0.4066
  166SAPE  H12X18766   1.399  -0.148   7.279  0.5614 -0.2178 -2.5643
  166SAPE  H12Y18767   1.457  -0.316   7.256  1.5639  0.9360  2.0626
  166SAPE  C31318768   1.398  -0.278   7.460 -0.1971 -0.1900  0.5490
  166SAPE  H13X18769   1.508  -0.269   7.472 -0.2980 -0.3248  1.6404
  166SAPE  H13Y18770   1.365  -0.381   7.486 -2.0749  0.4762  0.9357
  166SAPE  C31418771   1.324  -0.176   7.555 -0.2347  0.1844  0.5123
  166SAPE  H14X18772   1.219  -0.169   7.520  0.1512 -2.4442 -1.3441
  166SAPE  H14Y18773   1.368  -0.074   7.556  1.2048 -0.4225  0.4588
  166SAPE  C31518774   1.329  -0.228   7.699  0.4555  0.1881 -0.3680
  166SAPE  H15X18775   1.436  -0.231   7.729  0.1698  2.0603  0.9100
  166SAPE  H15Y18776   1.292  -0.332   7.711  0.1659  0.0935 -1.9254
  166SAPE  C31618777   1.246  -0.142   7.794 -1.0985 -0.9712 -0.2483
  166SAPE  H16X18778   1.151  -0.111   7.745  0.6662  0.6221 -2.7698
  166SAPE  H16Y18779   1.308  -0.053   7.814  0.0312 -1.9436  0.6269
  166SAPE  C31718780   1.218  -0.202   7.936 -0.1244  0.0825 -0.1395
  166SAPE  H17X18781   1.187  -0.304   7.904  0.9062 -0.6352  1.1242
  166SAPE  H17Y18782   1.129  -0.150   7.977  1.3955  1.4697  1.4789
  166SAPE  C31818783   1.328  -0.211   8.035 -0.7584  0.3298  0.3794
  166SAPE  H18X18784   1.297  -0.234   8.139 -0.2213  1.2141  0.7375
  166SAPE  H18Y18785   1.393  -0.122   8.037  0.9381 -0.8242 -1.7739
  166SAPE  H18Z18786   1.398  -0.286   7.993  0.7778  1.8516  0.2080
  167SAPE     N18787   2.717   6.196   6.087  0.0851 -0.2603 -0.0475
  167SAPE   HN118788   2.785   6.140   6.142 -1.0876 -0.1821  1.5107
  167SAPE   HN218789   2.709   6.156   5.991 -1.3423  0.2974 -0.1873
  167SAPE   HN318790   2.757   6.292   6.080  0.2640 -0.5011 -3.4488
  167SAPE   C1218791   2.589   6.206   6.155  0.1952  0.1403 -0.4131
  167SAPE  H12A18792   2.625   6.189   6.258  0.4903 -0.6274 -0.6381
  167SAPE  H12B18793   2.503   6.142   6.125 -0.7417  1.5592 -0.8184
  167SAPE   C1118794   2.536   6.346   6.143  0.2307  0.2881  0.5151
  167SAPE  H11A18795   2.603   6.421   6.191  2.4392 -0.2900 -1.5573
  167SAPE  H11B18796   2.451   6.340   6.214  0.1155 -1.4815  0.2525
  167SAPE     P18797   2.375   6.458   5.982 -0.5327  0.3318 -0.3715
  167SAPE   O1318798   2.393   6.601   6.027  0.0554 -0.6981 -0.8826
  167SAPE   O1418799   2.334   6.431   5.840 -0.1994  0.1213 -0.0325
  167SAPE   O1218800   2.510   6.379   6.006 -0.0298  0.3307 -1.1034
  167SAPE   O1118801   2.273   6.394   6.081  0.4984 -0.4419 -0.2460
  167SAPE    C118802   2.189   6.281   6.043  0.0701 -0.0964 -0.0379
  167SAPE    HA18803   2.132   6.309   5.952 -0.4249  1.0399  0.6122
  167SAPE    HB18804   2.252   6.190   6.033 -0.2474 -0.3069 -0.1341
  167SAPE    C218805   2.088   6.248   6.164 -0.1865 -0.4590 -0.3072
  167SAPE    HS18806   2.034   6.156   6.132 -0.1104 -0.8122  0.5715
  167SAPE   O2118807   1.999   6.357   6.194  0.6270  0.0489  0.4709
  167SAPE   C2118808   1.899   6.369   6.103 -0.1119  0.2898 -0.2956
  167SAPE   O2218809   1.888   6.308   5.999 -0.2106 -0.4478  0.2778
  167SAPE   C2218810   1.797   6.464   6.162  0.5810 -0.5711  0.3870
  167SAPE   H2R18811   1.837   6.534   6.239 -1.3738 -0.5221  1.3894
  167SAPE   H2S18812   1.760   6.534   6.084 -0.5203 -1.8541 -0.2639
  167SAPE    C318813   2.162   6.200   6.299  0.4291  0.0895  0.2522
  167SAPE    HX18814   2.212   6.292   6.336  0.7932  0.3788 -0.9389
  167SAPE    HY18815   2.238   6.126   6.266 -1.1185 -2.4358  2.1233
  167SAPE   O3118816   2.084   6.145   6.396 -0.0268 -0.0402 -0.0492
  167SAPE   C3118817   2.060   6.011   6.381 -0.1405 -0.0901 -0.0852
  167SAPE   O3218818   2.089   5.942   6.289  0.0814  0.0596  0.3317
  167SAPE   C3218819   2.012   5.955   6.522 -0.2364 -0.2294  0.4770
  167SAPE   H2X18820   1.903   5.976   6.532 -0.2317 -0.5642  1.2751
  167SAPE   H2Y18821   2.072   6.010   6.599  2.2949 -1.0997 -0.8327
  167SAPE   C2318822   1.679   6.397   6.234 -0.4082 -0.3073  0.4610
  167SAPE   H3R18823   1.630   6.315   6.176  0.1643 -0.8879  0.7945
  167SAPE   H3S18824   1.602   6.473   6.257  0.4069  0.6404  0.1134
  167SAPE   C2418825   1.728   6.343   6.370  1.0014  0.0252  0.4826
  167SAPE   H4R18826   1.808   6.271   6.345 -0.0294  0.0656 -3.1966
  167SAPE   H4S18827   1.651   6.274   6.410  0.6033 -0.3454 -0.8842
  167SAPE   C2518828   1.772   6.444   6.477 -0.1672 -0.0247  0.7256
  167SAPE   H5R18829   1.737   6.548   6.463  0.0153 -0.1611 -0.8484
  167SAPE   C2618830   1.840   6.407   6.585 -0.3243  0.2662 -0.2617
  167SAPE   H6R18831   1.869   6.484   6.658 -0.5266  0.9307 -0.8773
  167SAPE   C2718832   1.882   6.267   6.623  0.5265 -0.3688  0.0392
  167SAPE   H7R18833   1.993   6.269   6.613  0.6171 -1.4308  0.7068
  167SAPE   H7S18834   1.853   6.198   6.541 -0.4811  0.2892 -0.1715
  167SAPE   C2818835   1.849   6.214   6.759  0.0100 -0.0905  0.0970
  167SAPE   H8R18836   1.769   6.139   6.769  1.2704 -1.8246 -2.4158
  167SAPE   C2918837   1.909   6.248   6.871 -0.2948 -0.0078 -0.4000
  167SAPE   H9R18838   1.876   6.199   6.964  1.2557 -1.6008 -0.6651
  167SAPE  C21018839   2.007   6.367   6.874  0.1073 -0.6050 -0.4416
  167SAPE  H10R18840   1.947   6.453   6.840  0.8469 -0.5109 -1.5138
  167SAPE  H10S18841   2.095   6.370   6.807  0.9384  0.3542  0.6806
  167SAPE  C21118842   2.067   6.406   7.013  0.0411 -0.5212 -0.6723
  167SAPE  H11R18843   2.175   6.384   7.019 -0.3951 -2.6719 -0.2931
  167SAPE  C21218844   2.009   6.454   7.125  0.1460  0.3942 -0.2758
  167SAPE  H12R18845   2.065   6.489   7.213 -2.2612 -0.1304  1.5069
  167SAPE  C21318846   1.866   6.490   7.146  0.1871  0.6551 -0.0368
  167SAPE  H13R18847   1.815   6.478   7.048 -0.0974 -0.0137  0.1945
  167SAPE  H13S18848   1.860   6.597   7.177  0.1750 -0.0721  2.5941
  167SAPE  C21418849   1.801   6.403   7.250 -0.1243  0.4799  0.3285
  167SAPE  H14R18850   1.728   6.329   7.215  1.0284  0.8779 -3.1728
  167SAPE  C21518851   1.828   6.404   7.385  0.0853  0.1468 -0.4575
  167SAPE  H15R18852   1.770   6.350   7.461  1.4734 -0.1282  0.4124
  167SAPE  C21618853   1.928   6.488   7.458 -0.2293 -0.6024  0.4174
  167SAPE  H16R18854   1.980   6.564   7.396 -0.4639  0.1536  1.1503
  167SAPE  H16S18855   2.000   6.415   7.503 -1.9551 -1.6530  1.5129
  167SAPE  C21718856   1.870   6.577   7.577 -0.3097 -0.3993  0.6521
  167SAPE  H17R18857   1.812   6.656   7.525  1.4391 -0.9718 -2.2724
  167SAPE  H17S18858   1.966   6.616   7.617  0.3505 -1.5435  0.2091
  167SAPE  C21818859   1.800   6.504   7.685 -0.7210  0.8826  0.7139
  167SAPE  H18R18860   1.851   6.413   7.721 -0.6363  0.1605 -1.1467
  167SAPE  H18S18861   1.699   6.473   7.649 -0.5741 -0.1697  1.1991
  167SAPE  C21918862   1.786   6.605   7.796 -0.0682  0.3279  0.1635
  167SAPE  H19R18863   1.885   6.630   7.838  0.3639  0.4733 -0.9072
  167SAPE  H19S18864   1.730   6.546   7.871 -2.6449  0.6099 -1.4604
  167SAPE  C22018865   1.710   6.734   7.754 -0.5804  0.2527  0.2059
  167SAPE  H20R18866   1.772   6.797   7.687 -0.6188  0.6042  0.5028
  167SAPE  H20S18867   1.667   6.809   7.824 -1.8263  1.1278 -1.4591
  167SAPE  H20T18868   1.618   6.701   7.701 -0.8297  0.1040  0.7259
  167SAPE   C3318869   2.044   5.810   6.548 -0.3131  1.0809  0.7396
  167SAPE   H3X18870   2.154   5.795   6.548 -0.2249  1.6667 -1.4243
  167SAPE   H3Y18871   1.998   5.747   6.469 -1.9495  1.3825  1.4289
  167SAPE   C3418872   1.973   5.757   6.669  0.1341  0.4260  0.1720
  167SAPE   H4X18873   2.025   5.664   6.700  1.7821  1.8598  1.8860
  167SAPE   H4Y18874   1.872   5.734   6.630  0.4532 -1.1858  0.2562
  167SAPE   C3518875   1.986   5.840   6.801  0.1021  0.3004 -0.3885
  167SAPE   H5X18876   1.963   5.945   6.774 -3.8812 -0.3948  0.1256
  167SAPE   H5Y18877   2.088   5.845   6.846  0.3103 -1.8783 -0.5309
  167SAPE   C3618878   1.888   5.800   6.920  0.7411  0.6355  0.4442
  167SAPE   H6X18879   1.894   5.699   6.966 -1.4924  0.7346  0.9928
  167SAPE   H6Y18880   1.789   5.816   6.872  1.3088  0.8475 -0.6812
  167SAPE   C3718881   1.908   5.883   7.045  1.0933 -0.1325 -0.5637
  167SAPE   H7X18882   1.900   5.993   7.031 -3.4853 -0.2143  0.4810
  167SAPE   H7Y18883   2.004   5.854   7.093  0.2564  1.1501  1.9487
  167SAPE   C3818884   1.801   5.842   7.152  0.3731 -0.0117  0.1685
  167SAPE   H8X18885   1.776   5.735   7.133  0.7059  0.1922 -1.4813
  167SAPE   H8Y18886   1.710   5.904   7.145  0.5243 -0.0052 -2.0048
  167SAPE   C3918887   1.852   5.852   7.304 -0.0540 -0.3478  0.3644
  167SAPE   H9X18888   1.879   5.956   7.333  1.6923 -0.2107 -1.6088
  167SAPE   H9Y18889   1.946   5.792   7.313  2.2348  2.6879 -2.0977
  167SAPE  C31018890   1.752   5.786   7.393  0.5505 -0.3333  0.3709
  167SAPE  H10X18891   1.728   5.683   7.359  0.9500 -1.0425  2.1431
  167SAPE  H10Y18892   1.671   5.861   7.383  2.3708  1.6434  0.0715
  167SAPE  C31118893   1.798   5.772   7.537  0.6374 -0.0357  0.4327
  167SAPE  H11X18894   1.844   5.864   7.580  0.3661  0.2808  0.0361
  167SAPE  H11Y18895   1.874   5.691   7.537 -1.4142 -1.9907 -0.6646
  167SAPE  C31218896   1.687   5.716   7.633  0.3991 -0.1421  0.4515
  167SAPE  H12X18897   1.636   5.630   7.582 -2.1051  1.6906 -0.2169
  167SAPE  H12Y18898   1.609   5.793   7.648  3.5409  3.2963 -0.2282
  167SAPE  C31318899   1.751   5.684   7.773  0.0025 -0.5229 -0.3662
  167SAPE  H13X18900   1.832   5.750   7.810 -0.7997  1.6446 -2.4116
  167SAPE  H13Y18901   1.803   5.586   7.772  0.4853 -0.3079 -4.4044
  167SAPE  C31418902   1.635   5.697   7.877  0.3420  0.0308  0.3675
  167SAPE  H14X18903   1.550   5.643   7.830  1.0951  1.5545 -2.8925
  167SAPE  H14Y18904   1.594   5.800   7.874  1.9170  0.7401  2.1863
  167SAPE  C31518905   1.673   5.655   8.020  0.3723 -0.3678  0.7256
  167SAPE  H15X18906   1.746   5.572   8.009 -0.7424 -1.4838  1.7087
  167SAPE  H15Y18907   1.583   5.621   8.074  0.4395 -2.5546 -0.4839
  167SAPE  C31618908   1.734   5.768   8.101  0.7899 -0.1953  0.5204
  167SAPE  H16X18909   1.776   5.839   8.026 -0.3283 -0.8412 -0.7290
  167SAPE  H16Y18910   1.817   5.721   8.158  0.5644  0.5068  1.4454
  167SAPE  C31718911   1.631   5.842   8.196 -0.0185  0.4520 -0.0980
  167SAPE  H17X18912   1.593   5.785   8.283  0.9552  0.4535  0.3353
  167SAPE  H17Y18913   1.540   5.865   8.135 -0.0542 -1.0869 -0.6348
  167SAPE  C31818914   1.689   5.975   8.239  0.8515 -0.1524 -0.0732
  167SAPE  H18X18915   1.597   6.032   8.266 -0.6640 -1.4187 -2.4513
  167SAPE  H18Y18916   1.755   6.026   8.165  0.7389 -1.5743 -1.1675
  167SAPE  H18Z18917   1.744   5.964   8.335  0.0078  0.0887  0.4389
  168SAPE     N18918   4.550   1.703   6.499 -0.1083  0.6059  0.1375
  168SAPE   HN118919   4.556   1.659   6.405 -1.1461  0.3642  0.1833
  168SAPE   HN218920   4.523   1.800   6.471 -0.0489  0.0684 -1.8991
  168SAPE   HN318921   4.641   1.706   6.549 -0.4609  0.0796  0.8073
  168SAPE   C1218922   4.451   1.630   6.586 -0.8800 -0.5321 -0.5324
  168SAPE  H12A18923   4.459   1.670   6.689  1.4877 -0.4726 -0.7118
  168SAPE  H12B18924   4.477   1.522   6.576 -1.3619 -0.7153  0.2021
  168SAPE   C1118925   4.311   1.645   6.519 -0.1640 -0.6325 -0.1438
  168SAPE  H11A18926   4.294   1.754   6.508  1.2818 -0.2058  1.5895
  168SAPE  H11B18927   4.231   1.609   6.588 -1.0353  0.7532 -0.4143
  168SAPE     P18928   4.253   1.438   6.374 -0.1370  0.2622 -0.1375
  168SAPE   O1318929   4.110   1.439   6.348  0.0353  0.2796 -0.0500
  168SAPE   O1418930   4.332   1.371   6.273 -0.6650 -0.5618  0.4204
  168SAPE   O1218931   4.305   1.583   6.394  0.2192  0.0865  0.3552
  168SAPE   O1118932   4.277   1.380   6.513 -0.1020 -0.3755 -0.0841
  168SAPE    C118933   4.382   1.288   6.529 -0.4080 -0.2591  0.2644
  168SAPE    HA18934   4.478   1.325   6.487 -0.1973  1.0781  1.8407
  168SAPE    HB18935   4.405   1.278   6.638 -1.8045  0.8967  0.6800
  168SAPE    C218936   4.350   1.141   6.478  0.2233 -0.1574 -0.3759
  168SAPE    HS18937   4.333   1.141   6.368 -1.3672  1.4112 -0.1634
  168SAPE   O2118938   4.221   1.104   6.536 -0.8044 -0.3807 -0.4077
  168SAPE   C2118939   4.163   0.999   6.475  0.1427  0.2092  0.5041
  168SAPE   O2218940   4.198   0.961   6.364 -0.3768 -0.1450 -0.0439
  168SAPE   C2218941   4.039   0.948   6.553  0.1549  0.2170 -0.1664
  168SAPE   H2R18942   4.071   0.873   6.628  0.1483  0.5707  0.1952
  168SAPE   H2S18943   3.994   1.032   6.611  0.1433  1.6689 -2.2326
  168SAPE    C318944   4.465   1.047   6.509 -0.0441 -0.1532 -0.0612
  168SAPE    HX18945   4.554   1.082   6.452 -1.0720 -0.8504 -2.1490
  168SAPE    HY18946   4.451   0.952   6.453 -3.1600 -1.3715  2.6274
  168SAPE   O3118947   4.491   1.029   6.649  0.0834  0.5204 -0.2471
  168SAPE   C3118948   4.427   0.928   6.701 -0.3030 -0.5312 -0.3615
  168SAPE   O3218949   4.357   0.846   6.643  0.0426  0.3020 -0.1046
  168SAPE   C3218950   4.448   0.941   6.853  0.3677  0.3194  0.0557
  168SAPE   H2X18951   4.542   0.997   6.872  0.6789 -0.3204  0.4079
  168SAPE   H2Y18952   4.456   0.838   6.893 -3.6574 -0.4824 -0.9280
  168SAPE   C2318953   3.918   0.902   6.464  0.2472 -0.1037 -0.0950
  168SAPE   H3R18954   3.962   0.808   6.426  2.4614  0.6906  0.4319
  168SAPE   H3S18955   3.888   0.963   6.377 -0.7913 -1.2614 -0.5652
  168SAPE   C2418956   3.798   0.854   6.549  0.1568  0.5628  0.1709
  168SAPE   H4R18957   3.843   0.789   6.627  0.1029 -0.8330 -0.9485
  168SAPE   H4S18958   3.724   0.798   6.489 -0.2927  1.2065  0.1198
  168SAPE   C2518959   3.729   0.968   6.618  0.2790  0.4705 -0.5213
  168SAPE   H5R18960   3.658   1.020   6.552  0.9333  1.6213 -0.3240
  168SAPE   C2618961   3.746   1.026   6.736 -0.6003 -0.8367 -1.2642
  168SAPE   H6R18962   3.657   1.089   6.749  0.0184 -0.2539  0.2805
  168SAPE   C2718963   3.850   0.989   6.841 -0.7041  0.7449  0.3645
  168SAPE   H7R18964   3.948   0.964   6.795 -0.2335  2.0114  0.6579
  168SAPE   H7S18965   3.814   0.898   6.893  0.5828  0.9123  1.5774
  168SAPE   C2818966   3.884   1.114   6.919  0.7343  0.1584  0.1028
  168SAPE   H8R18967   3.939   1.193   6.865  1.9790 -0.5015  0.3927
  168SAPE   C2918968   3.851   1.120   7.049 -0.4037  0.2461  0.0247
  168SAPE   H9R18969   3.890   1.210   7.098  3.1656 -2.6883  2.9108
  168SAPE  C21018970   3.774   1.016   7.135 -0.9861  0.5889 -0.5760
  168SAPE  H10R18971   3.829   0.920   7.134  1.7239  2.0737 -2.2874
  168SAPE  H10S18972   3.675   0.993   7.092 -1.0262 -1.5110  0.5594
  168SAPE  C21118973   3.761   1.067   7.274  0.1519 -0.1841 -0.5469
  168SAPE  H11R18974   3.808   1.163   7.302  0.8906 -0.4278 -0.9523
  168SAPE  C21218975   3.703   0.995   7.373  0.1325  0.1692  0.6387
  168SAPE  H12R18976   3.696   1.027   7.478 -1.9714  0.8998  0.3046
  168SAPE  C21318977   3.649   0.858   7.340 -0.3134 -0.9362 -0.2713
  168SAPE  H13R18978   3.715   0.773   7.370 -0.8690 -1.7265 -1.2475
  168SAPE  H13S18979   3.652   0.841   7.230 -1.5311 -0.7340 -0.3487
  168SAPE  C21418980   3.508   0.845   7.396  0.8522 -0.8832 -0.4874
  168SAPE  H14R18981   3.431   0.874   7.324 -0.0749 -3.1473 -0.4517
  168SAPE  C21518982   3.468   0.802   7.515 -0.3745 -0.8242  0.3176
  168SAPE  H15R18983   3.362   0.798   7.542 -0.2277  2.7746  1.6590
  168SAPE  C21618984   3.554   0.755   7.624  0.0195 -0.1199 -0.0546
  168SAPE  H16R18985   3.659   0.759   7.588  0.5787 -1.4887  1.3778
  168SAPE  H16S18986   3.536   0.649   7.652  0.2370 -0.2423 -0.3641
  168SAPE  C21718987   3.544   0.834   7.753 -0.7214  0.0738 -0.3468
  168SAPE  H17R18988   3.628   0.804   7.819  0.0576  0.8550 -0.9746
  168SAPE  H17S18989   3.454   0.789   7.801  0.8611 -2.5785  0.2514
  168SAPE  C21818990   3.538   0.986   7.728 -0.1453  0.2003 -0.5567
  168SAPE  H18R18991   3.455   1.010   7.659  0.1488 -0.0008 -0.9876
  168SAPE  H18S18992   3.635   1.014   7.681  0.3928  2.1276  1.5924
  168SAPE  C21918993   3.525   1.061   7.858 -0.0954  0.6460 -0.6679
  168SAPE  H19R18994   3.621   1.038   7.908 -0.9437 -0.8785  0.2877
  168SAPE  H19S18995   3.444   1.015   7.919  1.7097 -1.5795  0.0842
  168SAPE  C22018996   3.496   1.207   7.834 -0.7159 -0.0575  0.4745
  168SAPE  H20R18997   3.407   1.228   7.771  0.4635  3.2718 -0.1916
  168SAPE  H20S18998   3.577   1.259   7.778 -1.5466 -1.4189 -2.0431
  168SAPE  H20T18999   3.473   1.252   7.933  3.3152  0.6778  1.1618
  168SAPE   C3319000   4.324   1.011   6.908  0.0979  0.5861  0.3108
  168SAPE   H3X19001   4.226   0.980   6.867 -0.1313  2.6659 -0.7642
  168SAPE   H3Y19002   4.328   1.121   6.890  3.0115  0.1723 -1.9375
  168SAPE   C3419003   4.323   0.986   7.064 -0.4774 -1.3509 -0.3354
  168SAPE   H4X19004   4.430   0.984   7.096 -0.2699 -0.2228 -0.9205
  168SAPE   H4Y19005   4.270   0.890   7.080  0.0646 -1.3362  1.6641
  168SAPE   C3519006   4.246   1.098   7.127  0.5515 -0.1975  0.0524
  168SAPE   H5X19007   4.143   1.085   7.087  0.4029  0.0120  0.3673
  168SAPE   H5Y19008   4.280   1.203   7.115 -0.6917  0.6160  3.1288
  168SAPE   C3619009   4.242   1.056   7.277 -0.2163 -0.2278  0.5572
  168SAPE   H6X19010   4.341   1.074   7.323 -0.6084 -1.2226  1.8088
  168SAPE   H6Y19011   4.228   0.947   7.292 -1.1496  0.0295  1.5600
  168SAPE   C3719012   4.140   1.130   7.365  0.1575 -0.0014 -0.4733
  168SAPE   H7X19013   4.041   1.090   7.334 -1.2891  2.4653  0.8022
  168SAPE   H7Y19014   4.136   1.237   7.335 -0.2145 -0.2248 -1.2276
  168SAPE   C3819015   4.158   1.123   7.520 -0.7372 -0.2483 -0.4156
  168SAPE   H8X19016   4.209   1.214   7.556 -2.0963  1.1496 -1.9365
  168SAPE   H8Y19017   4.232   1.043   7.544 -2.1362 -0.8781  1.9355
  168SAPE   C3919018   4.025   1.096   7.597  0.1940  0.4616  0.5555
  168SAPE   H9X19019   3.990   0.999   7.556  0.2582  0.5730  0.2422
  168SAPE   H9Y19020   3.944   1.167   7.572 -0.2973 -0.4369 -0.4353
  168SAPE  C31019021   4.060   1.087   7.745  1.0484  0.3190  0.3437
  168SAPE  H10X19022   4.108   1.177   7.789 -0.9485  1.2611  0.6453
  168SAPE  H10Y19023   4.136   1.009   7.767 -0.0932 -0.9832 -0.2816
  168SAPE  C31119024   3.945   1.060   7.836  0.4332  0.0120  0.5199
  168SAPE  H11X19025   3.905   0.958   7.819 -1.0598  0.7697 -0.7111
  168SAPE  H11Y19026   3.860   1.126   7.809  0.6214  0.2978  0.6214
  168SAPE  C31219027   3.962   1.082   7.988  0.2968  0.1537 -0.2198
  168SAPE  H12X19028   3.865   1.087   8.042  0.3993 -0.3177  0.0035
  168SAPE  H12Y19029   4.014   1.180   7.998  3.6095 -1.4081 -1.3541
  168SAPE  C31319030   4.043   0.975   8.071  0.3078 -0.6910  0.0095
  168SAPE  H13X19031   4.148   0.994   8.040 -0.1419  0.6270 -0.7506
  168SAPE  H13Y19032   4.013   0.870   8.050 -1.3588 -0.5292  1.5384
  168SAPE  C31419033   4.044   0.992   8.224 -0.3495  0.6070 -0.0126
  168SAPE  H14X19034   4.130   0.930   8.257  1.2279  2.8370  0.1621
  168SAPE  H14Y19035   3.948   0.965   8.272 -0.4674 -1.6138 -1.3849
  168SAPE  C31519036   4.068   1.141   8.272  0.2353  1.0836 -0.0292
  168SAPE  H15X19037   3.981   1.202   8.242  0.1513  1.4714  0.9675
  168SAPE  H15Y19038   4.163   1.168   8.221  0.1987  2.3577  0.5646
  168SAPE  C31619039   4.076   1.147   8.429  0.8833 -0.2712  0.0881
  168SAPE  H16X19040   3.988   1.089   8.465  0.3323  1.2464  1.2435
  168SAPE  H16Y19041   4.054   1.255   8.439  2.6427  0.0445  0.8718
  168SAPE  C31719042   4.203   1.096   8.505  0.4927 -0.2716  0.6189
  168SAPE  H17X19043   4.290   1.151   8.464 -0.6906 -0.5278 -2.3597
  168SAPE  H17Y19044   4.211   0.990   8.471 -0.0330  0.0839 -0.6302
  168SAPE  C31819045   4.196   1.096   8.655  0.2394  0.0178  0.1126
  168SAPE  H18X19046   4.120   1.016   8.673  0.7098 -0.5888 -0.5997
  168SAPE  H18Y19047   4.167   1.198   8.690 -2.2259 -0.4608 -0.4097
  168SAPE  H18Z19048   4.291   1.070   8.706  1.3333 -2.2537 -2.9741
  169SAPE     N19049   2.673   2.899   6.217 -0.7639 -0.2797  0.5538
  169SAPE   HN119050   2.674   3.003   6.211  1.8809 -0.1792  2.0324
  169SAPE   HN219051   2.774   2.878   6.225 -0.6647  0.4196  1.2001
  169SAPE   HN319052   2.642   2.851   6.131  0.2458 -0.9318  0.5518
  169SAPE   C1219053   2.606   2.861   6.343 -0.6544 -0.0601  0.0649
  169SAPE  H12A19054   2.504   2.903   6.356  0.5474  1.9433  3.6070
  169SAPE  H12B19055   2.670   2.899   6.426  0.8284 -0.3134 -0.9224
  169SAPE   C1119056   2.597   2.708   6.351  0.2795  0.0714 -0.4903
  169SAPE  H11A19057   2.526   2.683   6.269 -2.6334  1.3496  1.5406
  169SAPE  H11B19058   2.554   2.678   6.449  0.7612 -2.5442 -1.0455
  169SAPE     P19059   2.820   2.583   6.417 -0.0347  0.4215  0.0584
  169SAPE   O1319060   2.779   2.449   6.453 -0.2603  0.1934  0.4784
  169SAPE   O1419061   2.958   2.592   6.359 -0.5935  0.7830  0.4401
  169SAPE   O1219062   2.718   2.646   6.315  0.1489 -0.7081 -0.5283
  169SAPE   O1119063   2.822   2.671   6.549  0.1953 -0.7267  0.1365
  169SAPE    C119064   2.806   2.603   6.674 -0.1104 -0.4403  0.2985
  169SAPE    HA19065   2.704   2.560   6.687 -0.2224 -1.3184 -3.0570
  169SAPE    HB19066   2.884   2.524   6.676 -0.3109 -0.6184  1.0405
  169SAPE    C219067   2.846   2.696   6.796  0.0719  0.3606  0.1667
  169SAPE    HS19068   2.784   2.787   6.804 -0.4163 -0.0470  1.1708
  169SAPE   O2119069   2.987   2.718   6.791  0.0299 -0.2312  0.0425
  169SAPE   C2119070   3.023   2.828   6.856 -0.2435  0.7499 -0.4904
  169SAPE   O2219071   2.949   2.908   6.905  0.4804  0.2199 -0.0694
  169SAPE   C2219072   3.176   2.829   6.850  0.5307  0.2165 -0.8013
  169SAPE   H2R19073   3.221   2.729   6.864 -0.6603  0.1951  3.2963
  169SAPE   H2S19074   3.214   2.869   6.753  2.9452  2.0584  0.8391
  169SAPE    C319075   2.807   2.610   6.917 -0.4697  0.1243 -0.1827
  169SAPE    HX19076   2.854   2.509   6.907 -1.1561 -0.1618 -0.5125
  169SAPE    HY19077   2.698   2.592   6.914 -0.2938 -1.4419  1.6663
  169SAPE   O3119078   2.854   2.669   7.043  0.3692 -0.1132 -0.5821
  169SAPE   C3119079   2.760   2.733   7.113 -0.1619  0.1628  0.5037
  169SAPE   O3219080   2.643   2.740   7.084  0.2631 -0.5115  0.2474
  169SAPE   C3219081   2.832   2.782   7.234  0.7205  0.0683 -0.5408
  169SAPE   H2X19082   2.899   2.866   7.206 -1.9798  2.1217 -1.0783
  169SAPE   H2Y19083   2.878   2.694   7.285  1.7265  0.2876 -1.0514
  169SAPE   C2319084   3.236   2.919   6.966 -0.4387 -0.0634  0.0665
  169SAPE   H3R19085   3.159   2.959   7.035 -1.2691 -1.4111 -0.0789
  169SAPE   H3S19086   3.286   3.001   6.909 -0.7045  0.0000 -0.0767
  169SAPE   C2419087   3.340   2.846   7.047 -0.4672 -0.2802 -0.4082
  169SAPE   H4R19088   3.410   2.798   6.976 -0.4103  0.0197 -0.5560
  169SAPE   H4S19089   3.294   2.766   7.108 -1.4741  1.2254  0.8442
  169SAPE   C2519090   3.426   2.926   7.145 -0.3198 -0.2248  0.0536
  169SAPE   H5R19091   3.486   3.003   7.094 -0.5980 -0.2333 -0.2917
  169SAPE   C2619092   3.428   2.923   7.280  0.6706 -0.1907  0.1316
  169SAPE   H6R19093   3.503   2.991   7.323  0.3007  1.2898 -1.5269
  169SAPE   C2719094   3.344   2.840   7.367  0.1434  0.6988 -0.0033
  169SAPE   H7R19095   3.409   2.779   7.435 -2.4978 -0.8725  1.1794
  169SAPE   H7S19096   3.290   2.765   7.306 -1.1110  3.5346 -2.5016
  169SAPE   C2819097   3.244   2.921   7.446 -0.3339 -0.0299  0.1026
  169SAPE   H8R19098   3.167   2.967   7.383 -0.5366 -0.2693  0.1755
  169SAPE   C2919099   3.263   2.956   7.577  0.4187 -0.2846  0.2782
  169SAPE   H9R19100   3.185   3.001   7.639  1.2298  1.8355 -0.1834
  169SAPE  C21019101   3.376   2.908   7.664  0.2487 -0.1291  0.1783
  169SAPE  H10R19102   3.465   2.877   7.606  0.4618 -0.2774  0.5837
  169SAPE  H10S19103   3.337   2.819   7.717 -0.8017  0.4110  0.3271
  169SAPE  C21119104   3.416   3.036   7.738 -0.2498 -0.6293 -0.0939
  169SAPE  H11R19105   3.434   3.116   7.664 -2.1072  0.1681  0.2725
  169SAPE  C21219106   3.443   3.043   7.872 -0.2854  0.8301  0.0140
  169SAPE  H12R19107   3.491   3.135   7.905  1.3801 -0.4501  1.2389
  169SAPE  C21319108   3.423   2.932   7.973 -0.4320 -0.2234 -0.0827
  169SAPE  H13R19109   3.346   2.857   7.945  0.5811 -0.9047 -1.0717
  169SAPE  H13S19110   3.392   2.983   8.067 -0.0587 -0.2592  0.0580
  169SAPE  C21419111   3.554   2.861   8.006  0.3742 -0.2218  1.0426
  169SAPE  H14R19112   3.635   2.881   7.933 -0.4677 -0.0521  0.1405
  169SAPE  C21519113   3.595   2.789   8.116 -0.4635 -0.4796 -0.1179
  169SAPE  H15R19114   3.697   2.748   8.123  0.8017  2.2519 -1.6545
  169SAPE  C21619115   3.510   2.770   8.238 -0.0376  0.6842 -0.6004
  169SAPE  H16R19116   3.508   2.665   8.272 -0.0456  0.8384 -0.1092
  169SAPE  H16S19117   3.402   2.791   8.225 -0.0807  0.6319 -0.3377
  169SAPE  C21719118   3.558   2.856   8.355  0.3140 -0.0981 -0.0960
  169SAPE  H17R19119   3.600   2.953   8.320 -0.7601  1.0689  1.7304
  169SAPE  H17S19120   3.643   2.806   8.406  0.7907 -0.6038 -1.3709
  169SAPE  C21819121   3.446   2.884   8.459  0.0030  0.4417 -0.1321
  169SAPE  H18R19122   3.421   2.785   8.502 -1.3341  0.5882 -0.5559
  169SAPE  H18S19123   3.357   2.920   8.402 -0.0573 -0.5579 -0.6734
  169SAPE  C21919124   3.487   2.989   8.557 -0.1385  0.0115 -0.0435
  169SAPE  H19R19125   3.525   3.084   8.513  0.7054 -1.0864 -1.7693
  169SAPE  H19S19126   3.578   2.946   8.604 -0.2384  0.8774  0.9572
  169SAPE  C22019127   3.385   3.017   8.673  0.2496  0.1174 -0.6314
  169SAPE  H20R19128   3.408   2.940   8.749  0.7225  0.5159 -0.3618
  169SAPE  H20S19129   3.280   2.994   8.643  0.4235 -1.3525 -0.1614
  169SAPE  H20T19130   3.401   3.121   8.709  1.3094 -0.5288  0.7885
  169SAPE   C3319131   2.728   2.840   7.328  0.1298  0.2312  0.4105
  169SAPE   H3X19132   2.648   2.763   7.336 -1.4723  1.6602 -1.3426
  169SAPE   H3Y19133   2.663   2.919   7.286  2.1700  1.0553 -1.3060
  169SAPE   C3419134   2.771   2.889   7.464 -0.2402  0.2636 -0.1478
  169SAPE   H4X19135   2.835   2.824   7.527 -0.4825 -1.0301 -1.2139
  169SAPE   H4Y19136   2.680   2.910   7.526 -0.9591 -0.1184 -1.0588
  169SAPE   C3519137   2.848   3.020   7.454  0.3087  0.0237  0.3413
  169SAPE   H5X19138   2.782   3.096   7.406 -0.4824 -1.1534 -0.4402
  169SAPE   H5Y19139   2.916   2.999   7.369 -1.6520  0.5473 -1.4183
  169SAPE   C3619140   2.918   3.070   7.582 -0.3256 -0.1477  0.5375
  169SAPE   H6X19141   3.001   3.139   7.557  0.0501 -1.2987 -1.5159
  169SAPE   H6Y19142   2.960   2.983   7.639  1.9825  0.3789 -0.2832
  169SAPE   C3719143   2.824   3.143   7.680 -0.4956  0.1112 -0.0739
  169SAPE   H7X19144   2.751   3.068   7.718 -1.5282  0.3722 -1.5428
  169SAPE   H7Y19145   2.769   3.226   7.630 -0.4651 -1.3117 -2.5068
  169SAPE   C3819146   2.907   3.215   7.792  0.2333  0.6014 -0.1199
  169SAPE   H8X19147   2.862   3.303   7.842  1.3340  1.2629 -0.2864
  169SAPE   H8Y19148   3.008   3.246   7.758  0.8564 -0.8255  0.3602
  169SAPE   C3919149   2.953   3.118   7.902  0.5229 -0.7106 -0.1038
  169SAPE   H9X19150   3.032   3.046   7.871  0.8333 -1.3782  2.1359
  169SAPE   H9Y19151   2.868   3.057   7.939 -0.9757  2.4666  1.8883
  169SAPE  C31019152   3.003   3.202   8.024  0.4902 -0.0691 -0.3101
  169SAPE  H10X19153   2.922   3.265   8.068  0.2554 -0.8453  0.3986
  169SAPE  H10Y19154   3.088   3.261   7.984 -0.1734 -0.1037 -1.7831
  169SAPE  C31119155   3.041   3.124   8.156 -0.3474  0.5240 -0.2592
  169SAPE  H11X19156   3.136   3.069   8.135 -0.7547 -0.4769  0.4738
  169SAPE  H11Y19157   2.964   3.046   8.170 -0.6763  0.9184  0.1089
  169SAPE  C31219158   3.051   3.212   8.278  0.5940 -0.2362 -0.2863
  169SAPE  H12X19159   2.951   3.257   8.299  0.4869 -0.2804 -0.6945
  169SAPE  H12Y19160   3.132   3.287   8.263  1.3444 -0.1333  3.6482
  169SAPE  C31319161   3.091   3.131   8.402 -0.5019  0.0477  0.1101
  169SAPE  H13X19162   3.193   3.089   8.392  0.0592  0.7803  2.2986
  169SAPE  H13Y19163   3.018   3.047   8.404 -1.9716  1.2613 -2.0761
  169SAPE  C31419164   3.093   3.209   8.540 -0.4665 -0.2283  0.2274
  169SAPE  H14X19165   3.090   3.124   8.611 -1.7336  1.8067  2.6865
  169SAPE  H14Y19166   2.995   3.259   8.553  0.2251  1.2379 -0.0445
  169SAPE  C31519167   3.217   3.300   8.552  0.4422 -0.3426  0.3073
  169SAPE  H15X19168   3.211   3.383   8.479  0.5724  0.2071  0.9149
  169SAPE  H15Y19169   3.303   3.234   8.529  0.1891 -1.2023  1.7825
  169SAPE  C31619170   3.231   3.363   8.687  0.0528  0.3904 -0.6938
  169SAPE  H16X19171   3.232   3.273   8.752 -1.1367  0.3130 -0.7733
  169SAPE  H16Y19172   3.136   3.417   8.707 -1.7847 -3.0428  0.1818
  169SAPE  C31719173   3.354   3.460   8.705  0.6587 -0.3149  0.6531
  169SAPE  H17X19174   3.370   3.468   8.815 -1.6791 -1.6280  1.1419
  169SAPE  H17Y19175   3.329   3.561   8.668  0.4108 -1.2721 -1.8950
  169SAPE  C31819176   3.483   3.415   8.632  0.6022  0.4759 -0.4238
  169SAPE  H18X19177   3.455   3.381   8.531 -2.5819  5.4827 -1.3710
  169SAPE  H18Y19178   3.540   3.336   8.687  1.1511 -0.8240 -2.7957
  169SAPE  H18Z19179   3.548   3.504   8.619  2.6999 -1.2142 -1.8642
  170SAPE     N19180   4.365   0.417   6.271 -0.0419  0.0236  0.6226
  170SAPE   HN119181   4.464   0.389   6.255  0.4704  1.8987  0.4169
  170SAPE   HN219182   4.323   0.409   6.176  1.1465  1.0863 -0.0129
  170SAPE   HN319183   4.357   0.513   6.309 -0.6981 -0.2189  1.1031
  170SAPE   C1219184   4.287   0.314   6.351 -0.3589 -0.5223  0.1804
  170SAPE  H12A19185   4.179   0.338   6.342  0.0899  1.1038 -1.0337
  170SAPE  H12B19186   4.316   0.327   6.458 -2.5484 -0.7856  0.8331
  170SAPE   C1119187   4.325   0.166   6.306  0.0283  0.0597 -1.0635
  170SAPE  H11A19188   4.284   0.087   6.373  3.8100  0.4661  1.8830
  170SAPE  H11B19189   4.434   0.170   6.329 -0.2112 -1.6444  0.5385
  170SAPE     P19190   4.167   0.105   6.094  0.5580  0.0247  0.1488
  170SAPE   O1319191   4.139   0.199   5.986 -0.3764 -0.4667 -0.1252
  170SAPE   O1419192   4.164  -0.036   6.057 -0.4264 -0.2277 -0.1934
  170SAPE   O1219193   4.299   0.145   6.163  0.0031  0.3247 -0.1063
  170SAPE   O1119194   4.061   0.134   6.209 -0.3151 -0.1580 -0.3172
  170SAPE    C119195   3.976   0.029   6.259 -0.1764 -0.3846  0.1838
  170SAPE    HA19196   3.913  -0.030   6.189  0.0179 -2.3735  1.6447
  170SAPE    HB19197   4.049  -0.045   6.299  1.2022 -1.2007 -3.5443
  170SAPE    C219198   3.891   0.083   6.384  0.6236 -0.3381 -0.0649
  170SAPE    HS19199   3.830   0.167   6.345 -0.1770 -0.5535  0.7338
  170SAPE   O2119200   3.983   0.118   6.488  0.5221 -0.0999 -0.1573
  170SAPE   C2119201   3.964   0.231   6.542 -0.1727 -0.5377 -0.0748
  170SAPE   O2219202   3.897   0.325   6.503 -0.4189 -0.1560  0.1150
  170SAPE   C2219203   4.048   0.247   6.670 -0.2220  0.2244  0.4180
  170SAPE   H2R19204   3.968   0.259   6.746 -0.2320  1.6153  0.1995
  170SAPE   H2S19205   4.111   0.157   6.685  1.2333  1.0430 -0.6102
  170SAPE    C319206   3.790  -0.025   6.432  0.1246 -0.4461 -0.6810
  170SAPE    HX19207   3.851  -0.109   6.469 -2.2794 -1.2776  1.5667
  170SAPE    HY19208   3.720  -0.059   6.353 -1.0283 -1.0434  0.5697
  170SAPE   O3119209   3.714   0.046   6.538 -0.2990  0.1291  0.6698
  170SAPE   C3119210   3.612  -0.023   6.585  0.5375 -0.8170 -0.2252
  170SAPE   O3219211   3.560  -0.118   6.535  0.1086 -0.3977  0.2887
  170SAPE   C3219212   3.590   0.028   6.733  0.2326 -0.4863  0.5311
  170SAPE   H2X19213   3.656   0.114   6.756  0.6703 -0.1818 -1.7529
  170SAPE   H2Y19214   3.625  -0.066   6.780  2.2606 -0.3645 -0.6651
  170SAPE   C2319215   4.119   0.386   6.686 -0.1775 -0.0434  0.1305
  170SAPE   H3R19216   4.045   0.468   6.676  0.3215  0.2695 -1.0524
  170SAPE   H3S19217   4.197   0.390   6.606 -0.2548 -1.5019 -0.0289
  170SAPE   C2419218   4.174   0.384   6.813 -0.4649  0.2970 -0.5947
  170SAPE   H4R19219   4.257   0.311   6.816  0.7507  1.6896  0.5627
  170SAPE   H4S19220   4.094   0.347   6.880  1.3166  0.0249  1.4069
  170SAPE   C2519221   4.242   0.515   6.854 -0.2800  0.1225 -0.4318
  170SAPE   H5R19222   4.331   0.546   6.797  0.2252  0.1019  0.3355
  170SAPE   C2619223   4.206   0.602   6.955  0.2778 -0.6458 -0.4133
  170SAPE   H6R19224   4.273   0.688   6.964  0.5483 -0.6739 -1.9990
  170SAPE   C2719225   4.086   0.597   7.047  0.9284  0.3776  0.3542
  170SAPE   H7R19226   4.070   0.504   7.106  0.6972 -0.0459 -0.3702
  170SAPE   H7S19227   3.997   0.612   6.982 -0.1182 -0.3316  1.5757
  170SAPE   C2819228   4.078   0.717   7.128  0.7324  0.1892 -0.1533
  170SAPE   H8R19229   4.084   0.813   7.076 -0.2499  0.1092 -0.4203
  170SAPE   C2919230   4.071   0.727   7.261  0.0234  0.2116  0.4484
  170SAPE   H9R19231   4.045   0.826   7.301  1.6543  1.1825 -0.8322
  170SAPE  C21019232   4.067   0.609   7.358 -0.1247  0.2811 -0.6590
  170SAPE  H10R19233   4.126   0.645   7.445  1.4934 -0.8920 -1.2496
  170SAPE  H10S19234   4.129   0.521   7.331 -2.3113 -1.4500 -0.1192
  170SAPE  C21119235   3.931   0.570   7.396  0.5887 -0.1154 -0.2911
  170SAPE  H11R19236   3.851   0.562   7.320  0.5758 -1.6448 -0.1314
  170SAPE  C21219237   3.888   0.537   7.521  0.2908  0.3108  0.4736
  170SAPE  H12R19238   3.781   0.515   7.528  0.6709 -1.3916  1.1560
  170SAPE  C21319239   3.966   0.535   7.653  0.3489 -0.8258  0.2763
  170SAPE  H13R19240   4.075   0.537   7.631 -0.1246  1.6537 -1.9906
  170SAPE  H13S19241   3.934   0.438   7.697  0.5483 -0.5068  1.1345
  170SAPE  C21419242   3.929   0.649   7.737 -0.0369 -0.2555  0.4968
  170SAPE  H14R19243   3.916   0.738   7.674 -1.0734 -0.7778 -0.0549
  170SAPE  C21519244   3.867   0.644   7.861  1.3022  0.1084  0.0991
  170SAPE  H15R19245   3.846   0.742   7.906 -0.5965 -0.5255  0.6214
  170SAPE  C21619246   3.833   0.522   7.938 -0.2151  0.3825  0.4818
  170SAPE  H16R19247   3.920   0.492   7.999 -0.7392 -1.9235  0.1423
  170SAPE  H16S19248   3.798   0.441   7.870  2.6717 -0.8950  0.4762
  170SAPE  C21719249   3.716   0.570   8.033  0.1121 -0.1831  0.4835
  170SAPE  H17R19250   3.692   0.476   8.088  0.7208 -0.5884  0.0724
  170SAPE  H17S19251   3.630   0.623   7.988 -0.9712 -1.1647  1.3617
  170SAPE  C21819252   3.774   0.659   8.140 -0.4621  1.0443  0.2252
  170SAPE  H18R19253   3.799   0.762   8.107  0.2543  1.3552  1.6875
  170SAPE  H18S19254   3.857   0.610   8.196  0.9351  2.3293 -0.7027
  170SAPE  C21919255   3.675   0.677   8.251 -0.1739  0.5413 -0.4371
  170SAPE  H19R19256   3.641   0.583   8.299 -0.8047  0.7425 -0.4861
  170SAPE  H19S19257   3.589   0.730   8.205 -0.1800 -0.1674 -1.2602
  170SAPE  C22019258   3.729   0.767   8.361 -0.0739  0.0931  0.1708
  170SAPE  H20R19259   3.653   0.792   8.438 -0.3311  0.8321 -0.3156
  170SAPE  H20S19260   3.758   0.868   8.324  1.3548 -0.0138  0.9561
  170SAPE  H20T19261   3.817   0.717   8.407  0.5533  1.2701  0.2798
  170SAPE   C3319262   3.444   0.073   6.755 -0.3554  0.5858  0.0962
  170SAPE   H3X19263   3.362  -0.000   6.740 -0.3236  0.2789  1.3691
  170SAPE   H3Y19264   3.413   0.149   6.681 -0.4500  0.6766  0.2277
  170SAPE   C3419265   3.420   0.124   6.897 -0.3369 -0.5516 -0.0863
  170SAPE   H4X19266   3.412   0.234   6.888  0.6988 -0.4379  0.2568
  170SAPE   H4Y19267   3.507   0.111   6.965 -0.0821  1.7008  0.0729
  170SAPE   C3519268   3.294   0.061   6.969 -0.6048 -0.3895 -0.4390
  170SAPE   H5X19269   3.318   0.054   7.077 -1.8029  2.1643  0.0151
  170SAPE   H5Y19270   3.264  -0.043   6.943 -2.4912 -0.6932  2.6932
  170SAPE   C3619271   3.166   0.151   6.960  0.1818 -0.5761 -0.3511
  170SAPE   H6X19272   3.133   0.149   6.854 -0.1980 -3.4761 -0.2325
  170SAPE   H6Y19273   3.198   0.251   6.994 -3.1920  0.0815  1.1262
  170SAPE   C3719274   3.055   0.104   7.051  0.2262 -0.2040  0.7410
  170SAPE   H7X19275   3.092   0.091   7.155  2.3658  1.1672  0.1726
  170SAPE   H7Y19276   3.022   0.007   7.009  0.4030  2.1928 -5.3914
  170SAPE   C3819277   2.923   0.187   7.041  0.7995  0.7002 -0.4535
  170SAPE   H8X19278   2.896   0.203   6.934  1.0233  0.2692 -0.5739
  170SAPE   H8Y19279   2.943   0.284   7.092  0.4773  0.6114 -0.1581
  170SAPE   C3919280   2.795   0.127   7.107  0.5625  0.3354 -0.2886
  170SAPE   H9X19281   2.782   0.026   7.063  0.2808  0.3888 -0.3282
  170SAPE   H9Y19282   2.710   0.194   7.084  0.5826  0.0686 -1.1568
  170SAPE  C31019283   2.816   0.119   7.261 -0.0291  0.4551 -0.7973
  170SAPE  H10X19284   2.838   0.220   7.304 -1.8951  0.8835 -0.8002
  170SAPE  H10Y19285   2.905   0.056   7.279  0.1421  1.6156  2.7705
  170SAPE  C31119286   2.693   0.070   7.336 -0.0290 -0.9715 -0.0512
  170SAPE  H11X19287   2.674  -0.033   7.298  1.6218 -2.0817  2.0245
  170SAPE  H11Y19288   2.601   0.131   7.322  0.8676  1.0665  2.6004
  170SAPE  C31219289   2.717   0.085   7.486 -0.2984  0.4890  0.1784
  170SAPE  H12X19290   2.715   0.194   7.510 -0.9851  0.6042 -0.3966
  170SAPE  H12Y19291   2.824   0.054   7.497 -0.0292  0.2612 -2.6642
  170SAPE  C31319292   2.632   0.005   7.576  0.2490 -0.4512  0.2443
  170SAPE  H13X19293   2.638  -0.105   7.556 -2.0608 -0.6479  0.4984
  170SAPE  H13Y19294   2.529   0.045   7.562  0.3496 -0.3231 -0.1595
  170SAPE  C31419295   2.673   0.011   7.725 -0.5815 -0.4750  0.0685
  170SAPE  H14X19296   2.727   0.106   7.744 -1.1402 -0.1793  0.1959
  170SAPE  H14Y19297   2.740  -0.072   7.757 -1.5871 -1.6121 -0.6919
  170SAPE  C31519298   2.563   0.024   7.831  0.2600 -0.1439 -0.6777
  170SAPE  H15X19299   2.612   0.008   7.930  1.7545 -0.5060 -1.4544
  170SAPE  H15Y19300   2.491  -0.060   7.822 -0.0221 -0.0200  0.3548
  170SAPE  C31619301   2.485   0.161   7.832  0.2908 -0.4765 -0.4768
  170SAPE  H16X19302   2.437   0.170   7.932  0.7318 -2.2515 -0.0779
  170SAPE  H16Y19303   2.407   0.168   7.753  0.8420 -0.3068 -1.0065
  170SAPE  C31719304   2.572   0.284   7.818 -0.3998 -0.0018  0.2717
  170SAPE  H17X19305   2.602   0.288   7.711 -1.4114  0.3571 -0.0068
  170SAPE  H17Y19306   2.667   0.274   7.874 -0.3290  0.4899  0.2428
  170SAPE  C31819307   2.522   0.420   7.872  0.3236  0.1183 -0.3266
  170SAPE  H18X19308   2.420   0.439   7.834  0.6416 -0.6744 -1.6295
  170SAPE  H18Y19309   2.589   0.502   7.837 -0.5754  1.2918  0.7167
  170SAPE  H18Z19310   2.509   0.411   7.982 -0.5200 -2.5668 -0.6016
  171SAPE     N19311   5.485   1.049   6.337  0.1023  0.2547 -0.0955
  171SAPE   HN119312   5.405   0.983   6.339  0.3719 -0.1136 -1.2655
  171SAPE   HN219313   5.557   1.004   6.397  0.9826  0.2884 -1.1145
  171SAPE   HN319314   5.457   1.145   6.367 -0.0257 -0.5342  2.3645
  171SAPE   C1219315   5.529   1.069   6.195  0.0779 -0.1392  0.0577
  171SAPE  H12A19316   5.598   1.157   6.195  0.8814 -0.7649  0.0622
  171SAPE  H12B19317   5.449   1.097   6.124  0.0880  0.0160  0.1079
  171SAPE   C1119318   5.616   0.962   6.144  0.1374  0.6026 -1.1190
  171SAPE  H11A19319   5.652   0.979   6.041  1.8392  0.1925 -0.6001
  171SAPE  H11B19320   5.550   0.873   6.132  0.2144  0.4809 -0.6626
  171SAPE     P19321   5.745   0.793   6.301  0.0514 -0.3749  0.4784
  171SAPE   O1319322   5.712   0.679   6.213 -0.0758 -0.5171  0.2736
  171SAPE   O1419323   5.874   0.790   6.369  0.1712  0.3865 -0.2985
  171SAPE   O1219324   5.729   0.935   6.229 -0.1772  0.7070 -0.3171
  171SAPE   O1119325   5.637   0.810   6.417  0.0207  0.5004 -0.0962
  171SAPE    C119326   5.619   0.697   6.499 -0.8841  0.5076 -0.8554
  171SAPE    HA19327   5.540   0.629   6.461 -1.1433 -0.5922  1.5526
  171SAPE    HB19328   5.713   0.643   6.523 -0.1755  2.1055  0.0243
  171SAPE    C219329   5.573   0.753   6.643 -0.1367 -0.8783  0.0465
  171SAPE    HS19330   5.480   0.807   6.618  0.3053 -1.1059 -2.2270
  171SAPE   O2119331   5.680   0.831   6.701 -0.3566 -0.9467  0.7143
  171SAPE   C2119332   5.652   0.959   6.701 -0.4113  0.6300  0.2050
  171SAPE   O2219333   5.551   1.012   6.660  0.5353  0.6407 -0.3088
  171SAPE   C2219334   5.764   1.037   6.759 -0.0263 -0.7538  0.1335
  171SAPE   H2R19335   5.820   0.967   6.824 -0.4593 -2.9990 -1.8480
  171SAPE   H2S19336   5.830   1.083   6.681  1.8853  0.5775  2.4618
  171SAPE    C319337   5.528   0.644   6.749 -0.4695  0.7656 -0.2092
  171SAPE    HX19338   5.620   0.596   6.789 -0.6437  0.3986 -0.2495
  171SAPE    HY19339   5.475   0.561   6.698 -0.1715  0.9288 -0.7883
  171SAPE   O3119340   5.452   0.708   6.850  0.1845  0.2612  0.3277
  171SAPE   C3119341   5.324   0.701   6.858  0.0818 -0.2876 -1.1364
  171SAPE   O3219342   5.262   0.627   6.789 -0.6844 -0.2213  0.1370
  171SAPE   C3219343   5.267   0.806   6.960 -0.6043 -0.3192 -0.0723
  171SAPE   H2X19344   5.223   0.891   6.905 -0.1491 -1.1068 -1.6697
  171SAPE   H2Y19345   5.358   0.848   7.007  0.0481  0.5374 -2.0554
  171SAPE   C2319346   5.723   1.159   6.856 -0.1759  0.0948 -0.0532
  171SAPE   H3R19347   5.641   1.218   6.809  0.2079  1.7555  1.2798
  171SAPE   H3S19348   5.802   1.237   6.868 -0.1063 -0.1202  0.9387
  171SAPE   C2419349   5.672   1.111   6.991  0.0440 -0.7552  0.5355
  171SAPE   H4R19350   5.752   1.058   7.047  0.2905 -1.5420 -0.5607
  171SAPE   H4S19351   5.583   1.049   6.969 -0.4300  0.3536 -0.7409
  171SAPE   C2519352   5.628   1.231   7.065  0.2875 -0.0085  0.2475
  171SAPE   H5R19353   5.704   1.311   7.064  3.4854 -2.9206 -0.5150
  171SAPE   C2619354   5.510   1.244   7.125  0.2143 -0.1905  0.1304
  171SAPE   H6R19355   5.499   1.339   7.179 -1.3571 -0.1382 -0.2574
  171SAPE   C2719356   5.390   1.148   7.131  0.0103 -0.3989  0.1316
  171SAPE   H7R19357   5.423   1.041   7.131 -2.1938 -1.0981  0.9419
  171SAPE   H7S19358   5.345   1.160   7.030 -0.6855  0.6066  0.5629
  171SAPE   C2819359   5.278   1.182   7.228  0.3119  0.0875 -0.7141
  171SAPE   H8R19360   5.199   1.249   7.191  0.2208  0.6286  0.4155
  171SAPE   C2919361   5.274   1.166   7.359 -0.7103 -0.1685 -0.1053
  171SAPE   H9R19362   5.195   1.199   7.428 -1.8364 -1.2905 -0.8345
  171SAPE  C21019363   5.380   1.085   7.428 -0.1922 -0.5793 -0.9404
  171SAPE  H10R19364   5.426   1.016   7.355 -0.5913 -0.8036 -0.9814
  171SAPE  H10S19365   5.334   1.023   7.507  2.9606  0.0480  1.5157
  171SAPE  C21119366   5.490   1.167   7.489 -0.0444 -0.6137  0.2942
  171SAPE  H11R19367   5.574   1.195   7.424  1.2650 -0.6583  1.9397
  171SAPE  C21219368   5.496   1.215   7.616  0.7442  0.0796  0.5889
  171SAPE  H12R19369   5.587   1.267   7.649  2.1671 -2.2195  0.4581
  171SAPE  C21319370   5.386   1.193   7.716  0.5453 -0.7464 -0.4183
  171SAPE  H13R19371   5.425   1.179   7.819  0.2862 -0.8074 -0.3298
  171SAPE  H13S19372   5.332   1.099   7.693 -0.0933 -0.9207  1.6578
  171SAPE  C21419373   5.301   1.312   7.726 -0.0337 -0.1668  0.5492
  171SAPE  H14R19374   5.351   1.407   7.699 -0.2481 -0.8475 -2.3817
  171SAPE  C21519375   5.170   1.326   7.752 -0.2803  0.4409  0.3390
  171SAPE  H15R19376   5.135   1.430   7.763 -0.0712  0.4797  0.6392
  171SAPE  C21619377   5.084   1.208   7.789  0.4880  0.7550 -0.2304
  171SAPE  H16R19378   5.134   1.112   7.765 -1.6032 -0.3005 -0.5663
  171SAPE  H16S19379   4.985   1.201   7.739  0.8214 -0.9381 -0.6998
  171SAPE  C21719380   5.062   1.198   7.949  0.0011  0.2294 -0.0522
  171SAPE  H17R19381   5.163   1.200   7.995  0.4254 -1.0240 -0.9057
  171SAPE  H17S19382   5.014   1.105   7.986  0.7562 -0.3233 -0.4561
  171SAPE  C21819383   4.973   1.319   8.004  1.0686  1.0261  0.2795
  171SAPE  H18R19384   4.890   1.320   7.930 -0.0247 -1.5126  1.4266
  171SAPE  H18S19385   5.032   1.408   7.975  3.0177 -0.2048  0.3750
  171SAPE  C21919386   4.933   1.305   8.149  0.1094 -0.6289 -0.0826
  171SAPE  H19R19387   5.030   1.312   8.203 -1.3888  0.6490  2.5302
  171SAPE  H19S19388   4.894   1.207   8.184 -2.8809  0.9466  1.1385
  171SAPE  C22019389   4.838   1.415   8.201  0.0424  0.4146  0.9910
  171SAPE  H20R19390   4.892   1.510   8.221  1.4883 -0.2953  0.4587
  171SAPE  H20S19391   4.803   1.373   8.298 -0.4210 -1.8934 -0.1383
  171SAPE  H20T19392   4.745   1.439   8.145  0.6997 -0.0978 -0.3351
  171SAPE   C3319393   5.155   0.759   7.055  0.1222  0.6872 -0.1724
  171SAPE   H3X19394   5.172   0.651   7.071  0.4870  0.5803 -1.2567
  171SAPE   H3Y19395   5.057   0.773   7.005  0.2260 -0.3129 -0.6672
  171SAPE   C3419396   5.162   0.826   7.196  0.4650 -0.5338  0.0224
  171SAPE   H4X19397   5.140   0.935   7.194  0.8664 -0.4745 -0.9238
  171SAPE   H4Y19398   5.265   0.820   7.236 -0.0574 -0.2806  1.4490
  171SAPE   C3519399   5.087   0.748   7.300  0.4075 -0.1410  0.3137
  171SAPE   H5X19400   5.136   0.657   7.340  0.5016 -0.5970 -0.8164
  171SAPE   H5Y19401   4.990   0.712   7.261  2.6052 -1.7306 -4.0871
  171SAPE   C3619402   5.065   0.831   7.425  0.1510 -0.1115  0.1747
  171SAPE   H6X19403   5.036   0.932   7.392  2.9937  0.0578 -1.9489
  171SAPE   H6Y19404   5.156   0.826   7.488  0.4525  1.1272 -0.1702
  171SAPE   C3719405   4.945   0.785   7.513  0.0348 -0.1147 -0.2890
  171SAPE   H7X19406   4.955   0.677   7.538  0.7657 -0.3507 -1.5177
  171SAPE   H7Y19407   4.857   0.813   7.451  1.5716  0.3717 -2.3080
  171SAPE   C3819408   4.955   0.860   7.649 -0.1647  0.1900 -0.1444
  171SAPE   H8X19409   4.957   0.969   7.630 -0.9304  0.0346 -1.1473
  171SAPE   H8Y19410   5.054   0.841   7.695 -0.8937 -0.4721  1.1970
  171SAPE   C3919411   4.840   0.832   7.754  0.1777  0.3432  0.5445
  171SAPE   H9X19412   4.844   0.729   7.796  0.6553  0.3353  0.4838
  171SAPE   H9Y19413   4.743   0.842   7.700  0.0626 -1.7149  0.3164
  171SAPE  C31019414   4.863   0.913   7.885  0.1697 -0.2962  0.1971
  171SAPE  H10X19415   4.872   1.020   7.856  0.2845  0.4255  2.7700
  171SAPE  H10Y19416   4.957   0.873   7.929  0.9519  0.1229 -1.0381
  171SAPE  C31119417   4.745   0.885   7.978  0.6621  0.2708  0.0295
  171SAPE  H11X19418   4.738   0.775   7.994 -0.7254  0.3315 -0.0861
  171SAPE  H11Y19419   4.661   0.922   7.916  0.6312 -1.3000 -0.9045
  171SAPE  C31219420   4.749   0.967   8.119 -0.0659  0.3759  0.0698
  171SAPE  H12X19421   4.746   1.075   8.094 -0.7948  0.1364 -0.8735
  171SAPE  H12Y19422   4.845   0.937   8.167 -1.0955 -0.1584  1.8524
  171SAPE  C31319423   4.643   0.932   8.223 -0.3800  0.1331 -0.1972
  171SAPE  H13X19424   4.655   0.831   8.267 -1.0210  0.2898  0.3469
  171SAPE  H13Y19425   4.542   0.941   8.178 -0.9265  0.4337  1.0787
  171SAPE  C31419426   4.665   1.031   8.342 -0.2742  0.5241 -0.5480
  171SAPE  H14X19427   4.642   1.133   8.306 -1.2320  1.0655  1.5405
  171SAPE  H14Y19428   4.771   1.024   8.374 -0.4384  1.3449  0.2009
  171SAPE  C31519429   4.559   1.001   8.449 -0.1858 -0.1660  0.7164
  171SAPE  H15X19430   4.458   1.001   8.404  0.2144  1.0440 -0.2393
  171SAPE  H15Y19431   4.562   1.096   8.506 -1.1562 -0.4685  1.2755
  171SAPE  C31619432   4.573   0.882   8.535  0.2929 -0.1109 -0.5531
  171SAPE  H16X19433   4.556   0.790   8.475 -1.9002 -0.1998  0.1402
  171SAPE  H16Y19434   4.486   0.887   8.605  0.7215 -0.6599  0.0267
  171SAPE  C31719435   4.714   0.870   8.602  0.0341 -0.7799  0.7235
  171SAPE  H17X19436   4.724   0.972   8.646  1.8234  0.8222 -3.1772
  171SAPE  H17Y19437   4.790   0.850   8.524 -1.3472  0.1641 -0.8870
  171SAPE  C31819438   4.719   0.761   8.704 -0.7892  0.4214 -0.2966
  171SAPE  H18X19439   4.826   0.739   8.722 -0.2329  1.7791 -1.8061
  171SAPE  H18Y19440   4.668   0.672   8.662  2.5870 -0.2353 -3.1933
  171SAPE  H18Z19441   4.656   0.781   8.794 -0.2392  0.1676  0.1434
  172SAPE     N19442   4.143   5.799   6.169 -0.2801 -0.3080 -0.0785
  172SAPE   HN119443   4.043   5.777   6.187  0.3586 -0.8531  3.0739
  172SAPE   HN219444   4.158   5.897   6.138  0.4857 -0.5123 -0.3719
  172SAPE   HN319445   4.175   5.733   6.096  2.4051 -0.7659  1.4223
  172SAPE   C1219446   4.245   5.779   6.279  0.5928  0.4887  0.4373
  172SAPE  H12A19447   4.342   5.766   6.228 -0.0463 -0.1634 -0.6383
  172SAPE  H12B19448   4.225   5.686   6.338 -0.4357 -0.4613 -1.3675
  172SAPE   C1119449   4.264   5.907   6.365 -0.0147  0.0579 -0.7229
  172SAPE  H11A19450   4.344   5.892   6.442 -0.0808 -1.1321 -0.8751
  172SAPE  H11B19451   4.176   5.920   6.431  0.5115 -1.4147  0.3111
  172SAPE     P19452   4.429   6.074   6.260 -0.4393  0.4880  0.5657
  172SAPE   O1319453   4.499   5.972   6.177  0.1054  0.0228  0.0115
  172SAPE   O1419454   4.415   6.208   6.201 -0.1097  0.2089  0.2908
  172SAPE   O1219455   4.288   6.020   6.294 -0.3103  0.3660 -0.9266
  172SAPE   O1119456   4.490   6.094   6.398 -0.1138  1.0228 -0.0473
  172SAPE    C119457   4.482   6.217   6.470  0.0631  0.2756 -0.1405
  172SAPE    HA19458   4.576   6.273   6.451 -0.9096  1.9370 -0.1597
  172SAPE    HB19459   4.393   6.279   6.448 -0.1613 -0.4326 -1.2681
  172SAPE    C219460   4.469   6.186   6.631  0.3206  1.1042 -0.3528
  172SAPE    HS19461   4.466   6.286   6.680  4.4839  0.7325  0.8653
  172SAPE   O2119462   4.591   6.112   6.666  0.0785 -0.3517  0.1609
  172SAPE   C2119463   4.654   6.146   6.777  0.6582  0.0221  0.5667
  172SAPE   O2219464   4.625   6.240   6.848  0.7954  0.2638 -0.2340
  172SAPE   C2219465   4.773   6.059   6.810 -0.5284 -0.3720  0.2525
  172SAPE   H2R19466   4.756   5.963   6.757 -1.2299  0.0888 -0.3606
  172SAPE   H2S19467   4.865   6.108   6.770 -0.5590  0.1273  0.7796
  172SAPE    C319468   4.345   6.102   6.670  0.3138  0.3302  0.1014
  172SAPE    HX19469   4.370   5.995   6.650  0.5649  0.3536  0.2874
  172SAPE    HY19470   4.261   6.130   6.603  1.2554 -1.6726 -2.0022
  172SAPE   O3119471   4.311   6.109   6.809 -0.2567 -0.9777 -0.2877
  172SAPE   C3119472   4.216   6.192   6.849  0.4265 -0.5860 -0.2316
  172SAPE   O3219473   4.153   6.270   6.780 -0.6192  0.6026  0.0762
  172SAPE   C3219474   4.196   6.182   7.008 -0.2174 -0.2860 -0.4499
  172SAPE   H2X19475   4.292   6.216   7.053 -2.2916  2.0433  2.4113
  172SAPE   H2Y19476   4.188   6.073   7.024  2.8234 -0.5391 -0.2416
  172SAPE   C2319477   4.793   6.043   6.967  0.6974  0.5699 -1.0678
  172SAPE   H3R19478   4.785   6.142   7.018  0.3478  0.4564 -0.8975
  172SAPE   H3S19479   4.902   6.025   6.972  0.3234 -2.3706 -2.6775
  172SAPE   C2419480   4.705   5.938   7.040 -0.3669 -0.7765  0.6808
  172SAPE   H4R19481   4.756   5.904   7.133  1.9767 -2.1102 -1.0212
  172SAPE   H4S19482   4.717   5.850   6.973  2.2243  1.7142 -2.2982
  172SAPE   C2519483   4.557   5.969   7.057  0.1938  0.5981  0.0480
  172SAPE   H5R19484   4.493   5.977   6.968 -0.2779  1.0994  0.4274
  172SAPE   C2619485   4.496   6.002   7.168 -0.8144 -0.3000  0.7864
  172SAPE   H6R19486   4.387   6.018   7.164 -0.4895  1.4919 -2.4431
  172SAPE   C2719487   4.557   6.010   7.310 -0.3462  0.3023 -0.1728
  172SAPE   H7R19488   4.668   6.015   7.301 -0.3176  3.1630  1.4502
  172SAPE   H7S19489   4.541   5.911   7.358 -2.0087  2.0955  3.0582
  172SAPE   C2819490   4.497   6.125   7.391 -0.4152 -0.6283 -0.5188
  172SAPE   H8R19491   4.435   6.199   7.339  1.1693  0.8120 -0.3866
  172SAPE   C2919492   4.510   6.139   7.527  0.0160 -0.4198  0.2184
  172SAPE   H9R19493   4.457   6.223   7.574  0.7445 -1.2587  2.5834
  172SAPE  C21019494   4.570   6.048   7.634 -0.2002  0.2410  0.3627
  172SAPE  H10R19495   4.648   6.111   7.683  3.0068 -0.0912 -4.0913
  172SAPE  H10S19496   4.620   5.958   7.594  1.2009 -0.5580  3.7118
  172SAPE  C21119497   4.468   5.987   7.728 -0.6162  0.0034  0.3750
  172SAPE  H11R19498   4.371   5.951   7.688  0.3212 -1.4873 -0.6207
  172SAPE  C21219499   4.489   5.969   7.856  0.0701  0.5271  0.0914
  172SAPE  H12R19500   4.404   5.926   7.912 -0.4165 -1.2289 -1.9417
  172SAPE  C21319501   4.612   5.987   7.945  0.5108  0.2823  0.1750
  172SAPE  H13R19502   4.700   5.976   7.879 -1.3880 -0.2997 -2.3115
  172SAPE  H13S19503   4.627   5.899   8.012  3.4392  0.7474  0.1739
  172SAPE  C21419504   4.597   6.120   8.013 -0.4218  0.3928  0.2192
  172SAPE  H14R19505   4.578   6.204   7.945 -0.1618  0.1583 -0.1469
  172SAPE  C21519506   4.574   6.146   8.147 -0.2337  0.1245  0.6994
  172SAPE  H15R19507   4.567   6.247   8.188 -0.4572  0.4470 -0.1234
  172SAPE  C21619508   4.571   6.032   8.247 -0.1721  0.5281 -0.4243
  172SAPE  H16R19509   4.648   6.050   8.326 -0.4412  2.4757 -0.6040
  172SAPE  H16S19510   4.586   5.932   8.199 -1.1727  0.5022 -0.6901
  172SAPE  C21719511   4.433   6.017   8.310  0.9677  0.4544 -0.3021
  172SAPE  H17R19512   4.365   6.006   8.223  0.8444 -0.3843 -0.1115
  172SAPE  H17S19513   4.403   6.111   8.362  1.1048  1.1278 -1.4406
  172SAPE  C21819514   4.420   5.895   8.401  0.2719  0.5395  0.3955
  172SAPE  H18R19515   4.500   5.904   8.477 -0.5241  0.6754  1.2221
  172SAPE  H18S19516   4.455   5.812   8.337  0.7651  1.4908 -0.5800
  172SAPE  C21919517   4.285   5.869   8.458 -0.1427 -0.3978 -0.2006
  172SAPE  H19R19518   4.276   5.761   8.483  1.8109 -0.1232  1.9080
  172SAPE  H19S19519   4.210   5.889   8.379  0.5239 -1.1099 -1.0158
  172SAPE  C22019520   4.252   5.951   8.580 -0.0227  0.4693 -0.0866
  172SAPE  H20R19521   4.283   5.895   8.671 -0.3544 -2.1552 -1.5355
  172SAPE  H20S19522   4.143   5.971   8.587 -0.1282 -0.3145  0.7177
  172SAPE  H20T19523   4.313   6.044   8.586 -3.3519  2.7132  0.3471
  172SAPE   C3319524   4.080   6.263   7.057 -0.2956  0.3777  0.4764
  172SAPE   H3X19525   3.996   6.282   6.987 -0.0119  0.7651  0.2419
  172SAPE   H3Y19526   4.113   6.369   7.058 -1.7399  0.8371  0.4833
  172SAPE   C3419527   4.020   6.234   7.192  0.2822 -0.5625  0.2646
  172SAPE   H4X19528   3.968   6.137   7.200 -0.2540 -0.3019 -0.0340
  172SAPE   H4Y19529   3.933   6.301   7.210  0.1438 -1.2167  2.1636
  172SAPE   C3519530   4.113   6.236   7.305 -0.0476  0.4717  0.3036
  172SAPE   H5X19531   4.191   6.315   7.293 -0.0891  0.6116  0.9125
  172SAPE   H5Y19532   4.164   6.137   7.311 -0.1761  0.3200 -1.0508
  172SAPE   C3619533   4.053   6.253   7.440  1.1630  0.0597  0.5030
  172SAPE   H6X19534   3.961   6.191   7.443 -0.0073  1.6996 -0.9916
  172SAPE   H6Y19535   4.011   6.356   7.443  2.4423  0.6160 -0.2324
  172SAPE   C3719536   4.151   6.231   7.559 -0.7082 -0.0810  0.7243
  172SAPE   H7X19537   4.228   6.310   7.547  0.6075 -1.5296 -0.5937
  172SAPE   H7Y19538   4.212   6.138   7.552 -0.1374  0.4002 -0.9679
  172SAPE   C3819539   4.083   6.244   7.692 -0.7691 -0.7368 -0.2375
  172SAPE   H8X19540   3.999   6.171   7.686 -0.5950 -0.9658  0.1378
  172SAPE   H8Y19541   4.041   6.343   7.721  1.7429  0.2748  0.0049
  172SAPE   C3919542   4.167   6.203   7.808  0.6184 -0.3080  0.5030
  172SAPE   H9X19543   4.254   6.271   7.808 -1.7000  2.7958 -0.2809
  172SAPE   H9Y19544   4.199   6.097   7.805 -0.3819 -0.5973 -0.3405
  172SAPE  C31019545   4.083   6.226   7.939 -0.1367  0.0217 -0.2562
  172SAPE  H10X19546   3.989   6.168   7.930  0.2926 -0.7836  0.3845
  172SAPE  H10Y19547   4.049   6.331   7.940 -2.1077 -0.5868 -1.0681
  172SAPE  C31119548   4.166   6.189   8.065  0.5407 -0.2730 -0.3752
  172SAPE  H11X19549   4.257   6.245   8.036 -0.8764  1.3954 -1.7110
  172SAPE  H11Y19550   4.192   6.082   8.076  1.7771  0.2661  2.1132
  172SAPE  C31219551   4.122   6.254   8.196  0.1386  0.3571 -0.5009
  172SAPE  H12X19552   4.086   6.358   8.178  1.5186  1.3504  2.1758
  172SAPE  H12Y19553   4.208   6.266   8.266 -2.4872 -0.3977  3.0169
  172SAPE  C31319554   4.030   6.170   8.277  0.5765  0.4259 -0.6211
  172SAPE  H13X19555   4.087   6.082   8.313  2.4134  2.5443  1.8667
  172SAPE  H13Y19556   3.939   6.140   8.222  1.3540  1.5971 -2.5877
  172SAPE  C31419557   3.981   6.255   8.404  0.0309 -0.0324 -0.5935
  172SAPE  H14X19558   3.931   6.350   8.376 -1.2364 -0.1402  1.1625
  172SAPE  H14Y19559   4.061   6.282   8.476 -0.7929  1.4741 -0.2182
  172SAPE  C31519560   3.874   6.160   8.479  0.2265  0.0890  0.4757
  172SAPE  H15X19561   3.917   6.064   8.516 -3.7308 -0.1758  4.6754
  172SAPE  H15Y19562   3.798   6.142   8.400  0.0982  1.7605  0.1974
  172SAPE  C31619563   3.809   6.222   8.599  0.1334  0.1736 -0.1125
  172SAPE  H16X19564   3.757   6.318   8.582  0.9986  0.3014 -2.2511
  172SAPE  H16Y19565   3.890   6.234   8.674 -1.1693  1.9600  1.0305
  172SAPE  C31719566   3.685   6.145   8.661  0.1111  0.4693  0.1752
  172SAPE  H17X19567   3.721   6.076   8.740  1.0498  0.8736  0.0999
  172SAPE  H17Y19568   3.642   6.082   8.580  1.1951 -1.2951  0.9649
  172SAPE  C31819569   3.583   6.246   8.722  0.6467  0.1828 -0.0297
  172SAPE  H18X19570   3.556   6.328   8.651  0.9047  1.3642  1.2103
  172SAPE  H18Y19571   3.616   6.285   8.820  1.6163  0.9559 -0.6498
  172SAPE  H18Z19572   3.486   6.197   8.744 -0.3840  1.7174 -1.0519
  173SOPE     N19573   5.075   3.674  11.121  0.0188  0.2559  0.0118
  173SOPE   HN119574   5.110   3.591  11.173  0.5751  0.7788  0.4828
  173SOPE   HN219575   5.095   3.762  11.173 -0.2931  0.7276 -0.6537
  173SOPE   HN319576   4.973   3.657  11.129  0.2341  0.0115  2.5521
  173SOPE   C1219577   5.130   3.676  10.982 -0.3231  0.2865 -0.5721
  173SOPE  H12A19578   5.237   3.697  11.002 -0.6432 -1.0427  2.7541
  173SOPE  H12B19579   5.077   3.760  10.933  2.2838  2.8175  0.8111
  173SOPE   C1119580   5.102   3.545  10.904  0.0323 -0.0384 -0.1292
  173SOPE  H11A19581   5.149   3.535  10.804  0.8351  3.0004 -0.1166
  173SOPE  H11B19582   4.992   3.541  10.895 -0.0857  1.3800  0.5443
  173SOPE     P19583   5.295   3.385  10.993  0.5833  0.3097  0.1221
  173SOPE   O1319584   5.313   3.262  10.913  0.2667  0.2835  0.5546
  173SOPE   O1419585   5.343   3.373  11.133 -0.9138 -0.6380 -1.0595
  173SOPE   O1219586   5.145   3.431  10.988  0.2600 -0.6256  0.0938
  173SOPE   O1119587   5.376   3.495  10.924 -0.1031  0.0103  0.2081
  173SOPE    C119588   5.518   3.512  10.939 -0.6059 -0.1003  0.1920
  173SOPE    HA19589   5.581   3.429  10.901  1.5126  1.2563  0.6249
  173SOPE    HB19590   5.540   3.544  11.043  0.9715 -3.1253  0.8375
  173SOPE    C219591   5.569   3.628  10.852  0.4627  0.1014 -0.8044
  173SOPE    HS19592   5.507   3.718  10.871  0.8593  0.3973 -0.8870
  173SOPE   O2119593   5.558   3.598  10.709  0.0717  0.0645 -0.7317
  173SOPE   C2119594   5.444   3.623  10.650 -0.3751  0.5736  0.1357
  173SOPE   O2219595   5.353   3.684  10.697  0.2415  0.3383  0.0949
  173SOPE   C2219596   5.448   3.545  10.516  0.8641 -0.1936 -0.6598
  173SOPE   H2R19597   5.543   3.489  10.507  2.5706  2.5679 -0.4930
  173SOPE   H2S19598   5.434   3.617  10.433 -2.4073  0.6425  0.5595
  173SOPE    C319599   5.708   3.676  10.902  0.3630 -0.3886 -0.4460
  173SOPE    HX19600   5.777   3.596  10.867  0.0165 -1.4674  1.2289
  173SOPE    HY19601   5.705   3.669  11.013 -0.1402 -3.1870 -0.5880
  173SOPE   O3119602   5.731   3.813  10.853 -0.5350  0.2054 -0.0883
  173SOPE   C3119603   5.853   3.834  10.810 -0.1290  0.1481  0.0589
  173SOPE   O3219604   5.953   3.763  10.831 -0.2375 -0.2960  0.0722
  173SOPE   C3219605   5.844   3.968  10.731  0.7197  0.4555  0.2492
  173SOPE   H2X19606   5.916   4.035  10.782 -1.0404  2.7007 -0.1337
  173SOPE   H2Y19607   5.745   4.013  10.750  0.4220 -0.7016  1.5099
  173SOPE   C2319608   5.339   3.429  10.529 -0.3227  0.3236  0.4436
  173SOPE   H3R19609   5.250   3.459  10.589 -0.5017  0.7248 -0.0259
  173SOPE   H3S19610   5.380   3.340  10.582 -0.4012  0.7952  1.3073
  173SOPE   C2419611   5.277   3.398  10.390  0.5581  0.3374 -0.0356
  173SOPE   H4R19612   5.185   3.337  10.403  0.4965  0.2704 -0.7670
  173SOPE   H4S19613   5.244   3.491  10.339 -1.8756 -1.2023 -1.3787
  173SOPE   C2519614   5.372   3.324  10.293  0.3480  0.2547 -0.1693
  173SOPE   H5R19615   5.353   3.333  10.184 -0.6280  1.5136  0.0907
  173SOPE   H5S19616   5.471   3.369  10.313  0.8837 -0.9858  0.0569
  173SOPE   C2619617   5.380   3.178  10.337 -0.4833  0.4554  0.0380
  173SOPE   H6R19618   5.376   3.173  10.448  1.0689 -1.1772  0.0414
  173SOPE   H6S19619   5.286   3.128  10.306 -0.1019  0.4946 -1.1863
  173SOPE   C2719620   5.490   3.078  10.287 -0.1606  0.2806 -0.6994
  173SOPE   H7R19621   5.467   2.987  10.346 -1.4516  0.8784 -0.2610
  173SOPE   H7S19622   5.484   3.057  10.178 -2.4263  1.1870 -0.7749
  173SOPE   C2819623   5.634   3.119  10.316 -0.5130  0.1922  0.1120
  173SOPE   H8R19624   5.651   3.211  10.255  0.3506 -1.0237 -1.5026
  173SOPE   H8S19625   5.635   3.168  10.416  1.8344  0.8400 -0.1984
  173SOPE   C2919626   5.744   3.017  10.297  0.5711  0.5124  0.0659
  173SOPE   H9119627   5.716   2.921  10.344  1.3842 -0.0870 -0.6579
  173SOPE  C21019628   5.859   3.042  10.237 -0.4611  0.1487  0.0444
  173SOPE  H10119629   5.935   2.963  10.225 -0.5671  0.0023  0.3264
  173SOPE  C21119630   5.895   3.173  10.172  0.3749 -0.3604  0.0871
  173SOPE  H11R19631   6.003   3.201  10.174  0.1284  0.5728  0.7063
  173SOPE  H11S19632   5.847   3.258  10.224 -0.4273  0.1154 -1.3889
  173SOPE  C21219633   5.845   3.199  10.026  0.3850 -0.1246 -0.5245
  173SOPE  H12R19634   5.855   3.308  10.007 -0.2585 -0.0648 -0.5102
  173SOPE  H12S19635   5.736   3.179  10.021  0.2901 -0.5147  2.4077
  173SOPE  C21319636   5.921   3.115   9.926  0.8862 -0.1278  0.4644
  173SOPE  H13R19637   5.843   3.057   9.872  0.9613  0.5619 -0.4003
  173SOPE  H13S19638   5.981   3.045   9.988 -0.2063  0.1609  1.8838
  173SOPE  C21419639   6.000   3.202   9.826  0.3285  0.4606 -0.1903
  173SOPE  H14R19640   6.075   3.261   9.883  0.5705 -0.6290  0.6423
  173SOPE  H14S19641   5.924   3.272   9.786  0.4115  0.8309  0.2961
  173SOPE  C21519642   6.057   3.136   9.701  0.3281  0.2623  0.1660
  173SOPE  H15R19643   5.981   3.090   9.634  1.3123 -0.3215 -0.5540
  173SOPE  H15S19644   6.125   3.060   9.744  0.0127  0.7362  1.5392
  173SOPE  C21619645   6.129   3.241   9.620 -0.2014  0.3745 -0.2924
  173SOPE  H16R19646   6.176   3.315   9.689  1.9933  0.7353 -2.0999
  173SOPE  H16S19647   6.057   3.293   9.554 -1.0467  0.7306  0.8911
  173SOPE  C21719648   6.238   3.189   9.524 -0.3117 -0.5677  0.5090
  173SOPE  H17R19649   6.181   3.118   9.460  0.5135  0.4008 -1.3576
  173SOPE  H17S19650   6.314   3.128   9.577  0.9573  2.9924  2.9688
  173SOPE  C21819651   6.294   3.279   9.421 -1.1017  0.1427 -0.4728
  173SOPE  H18R19652   6.360   3.228   9.347 -1.8521  0.1681 -1.1759
  173SOPE  H18S19653   6.349   3.366   9.462  0.7720 -1.4399  0.4549
  173SOPE  H18T19654   6.210   3.323   9.362 -1.3460  1.0423  0.5289
  173SOPE   C3319655   5.871   3.947  10.583 -0.2293  0.0335 -0.2138
  173SOPE   H3X19656   5.974   3.906  10.579 -0.4003 -0.4578  0.4504
  173SOPE   H3Y19657   5.869   4.040  10.522 -0.3584 -0.3735 -0.8435
  173SOPE   C3419658   5.769   3.859  10.520  0.4876  0.0398 -0.7330
  173SOPE   H4X19659   5.673   3.880  10.571 -0.1673  1.2362 -2.4095
  173SOPE   H4Y19660   5.777   3.753  10.552  1.0970 -0.4128 -2.3350
  173SOPE   C3519661   5.758   3.870  10.365  0.5209 -0.6919  0.4813
  173SOPE   H5X19662   5.852   3.865  10.305  1.1623 -1.5725  1.5432
  173SOPE   H5Y19663   5.717   3.971  10.341 -0.3479 -1.1757 -0.1020
  173SOPE   C3619664   5.654   3.773  10.312  0.1442  0.5054  0.9253
  173SOPE   H6X19665   5.557   3.791  10.362 -0.3141  3.3038 -0.8688
  173SOPE   H6Y19666   5.679   3.668  10.336 -0.8157  0.6668  2.7120
  173SOPE   C3719667   5.640   3.804  10.165  0.5990  0.1789  0.6822
  173SOPE   H7X19668   5.738   3.792  10.116  1.7256 -0.1694  2.9362
  173SOPE   H7Y19669   5.608   3.911  10.160  1.8484  0.7521  3.6795
  173SOPE   C3819670   5.547   3.712  10.079  0.7637 -0.0038 -0.0683
  173SOPE   H8X19671   5.498   3.768   9.997  0.8421  1.4738  0.8764
  173SOPE   H8Y19672   5.468   3.678  10.149  2.2182 -1.3015  0.9927
  173SOPE   C3919673   5.615   3.587  10.023  0.6625  0.2245  0.0875
  173SOPE   H9X19674   5.663   3.522  10.099 -0.4110  0.0930  0.6796
  173SOPE   H9Y19675   5.693   3.629   9.957  0.6920 -1.0130 -0.6832
  173SOPE  C31019676   5.515   3.518   9.930 -0.3729 -0.6202 -1.2709
  173SOPE  H10X19677   5.478   3.600   9.866  1.0778  0.3154 -0.9398
  173SOPE  H10Y19678   5.432   3.472   9.989  0.6121 -3.8017 -2.2241
  173SOPE  C31119679   5.581   3.408   9.835  0.1641  0.3371  0.2605
  173SOPE  H11X19680   5.655   3.351   9.896 -1.0382 -1.6481 -0.0722
  173SOPE  H11Y19681   5.630   3.453   9.746  0.1592  0.3735  0.2774
  173SOPE  C31219682   5.471   3.319   9.776  0.2529  0.2537 -0.5377
  173SOPE  H12X19683   5.497   3.300   9.670 -2.2593  1.8400 -1.4510
  173SOPE  H12Y19684   5.375   3.374   9.771  0.0608  0.1279  1.4644
  173SOPE  C31319685   5.448   3.190   9.849 -0.6250  0.4081 -0.2844
  173SOPE  H13X19686   5.411   3.213   9.951 -1.4808  1.6767 -0.8707
  173SOPE  H13Y19687   5.547   3.140   9.856 -0.6772  0.6115  2.0284
  173SOPE  C31419688   5.349   3.099   9.779  1.5146  0.4414  0.4835
  173SOPE  H14X19689   5.378   3.082   9.674 -2.5017 -0.0215 -0.6329
  173SOPE  H14Y19690   5.253   3.156   9.782  0.6307 -1.0619  1.6599
  173SOPE  C31519691   5.339   2.964   9.840  0.5820  0.1531  0.0846
  173SOPE  H15X19692   5.333   2.970   9.951  1.6341  1.3475  0.0769
  173SOPE  H15Y19693   5.433   2.908   9.818 -0.7014 -1.5006 -1.3237
  173SOPE  C31619694   5.219   2.888   9.772 -0.3557 -0.0627 -0.5411
  173SOPE  H16X19695   5.232   2.778   9.774 -0.9862 -0.1261  0.7445
  173SOPE  H16Y19696   5.246   2.893   9.664  0.0532 -2.1827 -0.5638
  173SOPE  C31719697   5.073   2.920   9.814  0.0915  0.5565  0.1567
  173SOPE  H17X19698   4.995   2.868   9.755  1.2917 -1.7957  0.5712
  173SOPE  H17Y19699   5.060   3.030   9.802 -0.2721  0.4680 -0.2453
  173SOPE  C31819700   5.059   2.865   9.963 -0.0495  0.3050  0.2480
  173SOPE  H18X19701   5.147   2.913  10.010  0.3887 -0.2954  0.0461
  173SOPE  H18Y19702   5.067   2.755   9.957 -1.3402  0.2970 -1.8643
  173SOPE  H18Z19703   4.959   2.895  10.002 -0.6546  0.2882 -1.2410
  174SOPE     N19704   4.434   2.675  10.772 -0.5424 -0.2633  0.2821
  174SOPE   HN119705   4.419   2.631  10.865 -1.1267  0.3935  0.5098
  174SOPE   HN219706   4.357   2.744  10.773 -1.1538 -0.9206 -0.6627
  174SOPE   HN319707   4.404   2.619  10.690 -2.3042  0.2799  0.5409
  174SOPE   C1219708   4.566   2.739  10.754  0.5704  0.9080 -0.5689
  174SOPE  H12A19709   4.632   2.679  10.687 -1.2143 -0.8327 -0.8133
  174SOPE  H12B19710   4.600   2.743  10.860 -0.0163 -1.9476 -0.2466
  174SOPE   C1119711   4.557   2.872  10.680 -0.0719  0.3988  0.1411
  174SOPE  H11A19712   4.487   2.858  10.595  1.1067  0.9601 -0.9357
  174SOPE  H11B19713   4.650   2.916  10.637  0.6608 -2.1717 -1.0207
  174SOPE     P19714   4.567   3.081  10.843 -0.2874  0.0539  0.1080
  174SOPE   O1319715   4.677   3.014  10.914 -0.1049  0.9350  0.4260
  174SOPE   O1419716   4.474   3.175  10.919  0.1823  0.2778  0.4202
  174SOPE   O1219717   4.492   2.967  10.766 -0.2588  0.4856 -0.4878
  174SOPE   O1119718   4.619   3.158  10.717 -0.1514  0.0441 -0.5918
  174SOPE    C119719   4.746   3.219  10.730 -0.3602  0.3683  0.3822
  174SOPE    HA19720   4.821   3.144  10.762  0.8016  2.6396  3.2301
  174SOPE    HB19721   4.749   3.303  10.802  0.1916  1.1102 -0.4937
  174SOPE    C219722   4.785   3.274  10.593 -0.1391  0.0958  0.2007
  174SOPE    HS19723   4.887   3.314  10.578  0.8336 -2.3026  0.1010
  174SOPE   O2119724   4.698   3.385  10.558  0.3591  0.1782  0.2283
  174SOPE   C2119725   4.727   3.467  10.461 -0.4069  0.8775  0.1395
  174SOPE   O2219726   4.828   3.462  10.392  0.3006  0.3103  0.5313
  174SOPE   C2219727   4.632   3.582  10.453 -0.5499 -0.0670 -0.2122
  174SOPE   H2R19728   4.623   3.640  10.548 -0.5445 -1.7580  0.8263
  174SOPE   H2S19729   4.529   3.541  10.448  0.3162 -2.4364  0.8548
  174SOPE    C319730   4.781   3.157  10.498 -0.2500 -0.0888  0.0179
  174SOPE    HX19731   4.685   3.103  10.515 -2.5544  2.9900 -2.6467
  174SOPE    HY19732   4.847   3.075  10.535 -0.9659  0.9127  3.6913
  174SOPE   O3119733   4.793   3.195  10.359  0.0313 -0.3229 -0.2967
  174SOPE   C3119734   4.915   3.182  10.311  0.1567 -0.7460 -0.2824
  174SOPE   O3219735   5.013   3.132  10.368 -0.3147  0.1375 -0.5963
  174SOPE   C3219736   4.924   3.257  10.172 -0.6242 -0.4847 -0.2337
  174SOPE   H2X19737   4.962   3.359  10.190  2.2113 -1.2486 -1.5389
  174SOPE   H2Y19738   4.825   3.259  10.121 -0.3307 -1.1173 -0.8446
  174SOPE   C2319739   4.654   3.693  10.346 -0.6016 -0.1883  0.3062
  174SOPE   H3R19740   4.763   3.710  10.333 -0.5685  0.1250  0.9792
  174SOPE   H3S19741   4.616   3.785  10.394  1.7926  0.6755  0.6298
  174SOPE   C2419742   4.600   3.653  10.203  1.3141  0.5527  0.0086
  174SOPE   H4R19743   4.490   3.656  10.218  1.3892 -0.4659  0.8429
  174SOPE   H4S19744   4.635   3.728  10.129  0.8997  1.1217  0.3846
  174SOPE   C2519745   4.657   3.520  10.148  0.0600 -0.5549 -0.6029
  174SOPE   H5R19746   4.767   3.533  10.149 -0.1931  1.9771 -1.1695
  174SOPE   H5S19747   4.624   3.441  10.219  2.0629  1.8697  3.2424
  174SOPE   C2619748   4.613   3.481  10.008  0.0011  0.1835 -0.3870
  174SOPE   H6R19749   4.658   3.381   9.988 -1.1955 -0.4845  0.1877
  174SOPE   H6S19750   4.506   3.456  10.019 -0.0192  0.8497  1.0349
  174SOPE   C2719751   4.629   3.587   9.908  0.2125  0.3189  0.5144
  174SOPE   H7R19752   4.545   3.652   9.939 -1.3366 -0.7628 -1.3353
  174SOPE   H7S19753   4.730   3.633   9.917  0.5505 -0.2026 -0.4801
  174SOPE   C2819754   4.594   3.551   9.764 -0.1945  0.6628 -0.3382
  174SOPE   H8R19755   4.618   3.649   9.718  1.9600  0.3454  0.0482
  174SOPE   H8S19756   4.670   3.489   9.710 -0.8945 -1.3719  0.9545
  174SOPE   C2919757   4.452   3.489   9.744 -0.1959  0.0971  0.5539
  174SOPE   H9119758   4.439   3.381   9.764 -0.2768  0.1386  0.7233
  174SOPE  C21019759   4.345   3.571   9.710  0.2728  0.5528  0.7055
  174SOPE  H10119760   4.243   3.530   9.707  1.2494 -1.9748  0.8854
  174SOPE  C21119761   4.346   3.719   9.675  0.0435  0.0831  0.1960
  174SOPE  H11R19762   4.400   3.727   9.579 -0.0804 -1.4740 -0.0071
  174SOPE  H11S19763   4.404   3.769   9.756  0.6061 -2.2859  1.2839
  174SOPE  C21219764   4.200   3.761   9.654  0.3934 -0.0918 -0.1085
  174SOPE  H12R19765   4.138   3.708   9.730 -0.4977 -1.2538 -1.6329
  174SOPE  H12S19766   4.170   3.741   9.549 -0.8639  1.2933 -0.0344
  174SOPE  C21319767   4.176   3.910   9.688 -0.0866  1.3035  0.0650
  174SOPE  H13R19768   4.067   3.923   9.672 -0.1078  0.1981 -0.7497
  174SOPE  H13S19769   4.228   3.970   9.610 -0.3796  0.1106 -1.0618
  174SOPE  C21419770   4.224   3.956   9.826 -0.4842  0.9681  0.3947
  174SOPE  H14R19771   4.332   3.979   9.812  0.1612 -2.4598 -0.6826
  174SOPE  H14S19772   4.210   3.867   9.891 -2.0596 -1.6525 -3.3692
  174SOPE  C21519773   4.159   4.081   9.876  0.1768 -0.0569  0.0491
  174SOPE  H15R19774   4.049   4.074   9.866 -0.1881  2.8698  1.4759
  174SOPE  H15S19775   4.177   4.168   9.809  0.7601  0.2149  0.5556
  174SOPE  C21619776   4.209   4.109  10.010 -0.0270  0.6534 -0.7667
  174SOPE  H16R19777   4.320   4.117  10.018  0.0332 -1.1748  0.4956
  174SOPE  H16S19778   4.184   4.027  10.081  0.4003  1.1226 -0.0659
  174SOPE  C21719779   4.143   4.229  10.073 -0.1755 -0.5964 -0.1705
  174SOPE  H17R19780   4.036   4.207  10.094 -0.2921 -0.3426 -0.4951
  174SOPE  H17S19781   4.138   4.313  10.000 -1.1617  0.6451  1.2923
  174SOPE  C21819782   4.191   4.278  10.210 -0.1238  0.1792  0.0958
  174SOPE  H18R19783   4.289   4.330  10.206  0.2017 -0.2755  1.5446
  174SOPE  H18S19784   4.214   4.201  10.287  2.8552  1.7456  0.8468
  174SOPE  H18T19785   4.119   4.350  10.254 -1.0790  0.3403 -1.6696
  174SOPE   C3319786   5.035   3.209  10.082  0.3147 -0.6405  0.5469
  174SOPE   H3X19787   4.982   3.130  10.025 -0.2378  0.4277 -0.4381
  174SOPE   H3Y19788   5.122   3.163  10.133  0.1819 -1.5034  0.0074
  174SOPE   C3419789   5.088   3.312   9.976 -0.0159  0.3904  0.6111
  174SOPE   H4X19790   5.159   3.257   9.911 -1.8734  0.7173 -1.7659
  174SOPE   H4Y19791   5.150   3.392  10.022 -0.1645 -0.2951  2.0248
  174SOPE   C3519792   4.972   3.367   9.893 -0.3298  0.0965 -0.0951
  174SOPE   H5X19793   4.922   3.435   9.965  0.0860  0.3987 -0.0927
  174SOPE   H5Y19794   4.888   3.294   9.891 -1.4509  1.3349  1.0842
  174SOPE   C3619795   4.996   3.427   9.761  0.0544  0.3192  0.4184
  174SOPE   H6X19796   5.084   3.495   9.753  1.6620 -1.9517 -1.9075
  174SOPE   H6Y19797   4.911   3.496   9.739 -0.1714 -0.1083 -0.0493
  174SOPE   C3719798   4.990   3.323   9.646  0.0077 -0.3056 -0.3545
  174SOPE   H7X19799   4.889   3.276   9.643  0.3250 -1.0096 -0.2204
  174SOPE   H7Y19800   5.064   3.241   9.663  0.4819  0.2473  0.2625
  174SOPE   C3819801   5.017   3.378   9.506  0.0057  0.2402  0.3892
  174SOPE   H8X19802   5.113   3.434   9.510 -0.1537  0.5425  0.0311
  174SOPE   H8Y19803   4.942   3.458   9.488 -2.1287 -1.5344  1.2417
  174SOPE   C3919804   5.007   3.277   9.396  0.7634  0.0655  0.2733
  174SOPE   H9X19805   4.909   3.224   9.405  0.4397  0.3477 -1.4654
  174SOPE   H9Y19806   5.089   3.204   9.410  2.3557  2.0578  1.6343
  174SOPE  C31019807   5.014   3.338   9.253 -0.4602  0.0899 -0.0876
  174SOPE  H10X19808   5.104   3.403   9.243 -1.3694  1.4147  0.3089
  174SOPE  H10Y19809   4.928   3.401   9.225 -1.3799 -1.3596 -0.5953
  174SOPE  C31119810   5.039   3.251   9.128  0.1575  0.1625  0.9409
  174SOPE  H11X19811   4.967   3.166   9.122 -0.4199  0.8075 -2.0388
  174SOPE  H11Y19812   5.132   3.191   9.138  0.5881  0.2325 -2.1417
  174SOPE  C31219813   5.041   3.320   8.988 -0.2042  0.3377 -0.1075
  174SOPE  H12X19814   5.144   3.362   8.983 -0.5885  1.7248  2.6144
  174SOPE  H12Y19815   4.967   3.402   9.002 -0.9898 -0.5021  0.7157
  174SOPE  C31319816   5.012   3.230   8.874 -0.0145  0.2942 -0.7055
  174SOPE  H13X19817   4.902   3.217   8.866  0.0709 -0.5080 -0.6292
  174SOPE  H13Y19818   5.060   3.131   8.894 -1.8920 -0.4904  0.0191
  174SOPE  C31419819   5.064   3.269   8.735  0.1397 -0.3915 -0.8120
  174SOPE  H14X19820   5.172   3.290   8.747  0.0741 -0.9199  0.7216
  174SOPE  H14Y19821   5.016   3.363   8.701 -1.3188 -0.3094  1.4013
  174SOPE  C31519822   5.037   3.157   8.630  0.0017 -0.7504  0.1202
  174SOPE  H15X19823   5.003   3.061   8.673 -1.1012 -0.3568  0.1441
  174SOPE  H15Y19824   5.131   3.132   8.577 -0.8399 -0.0394 -1.7428
  174SOPE  C31619825   4.924   3.210   8.540  1.1895 -0.1459 -0.3215
  174SOPE  H16X19826   4.937   3.308   8.489  2.3582 -0.4458 -0.5935
  174SOPE  H16Y19827   4.835   3.217   8.607 -0.1126 -2.1120 -1.7887
  174SOPE  C31719828   4.880   3.107   8.426  0.1548  0.0079  0.2470
  174SOPE  H17X19829   4.788   3.137   8.370 -0.4490  0.1496  1.3037
  174SOPE  H17Y19830   4.860   3.010   8.475  1.4227  0.3712  1.5052
  174SOPE  C31819831   4.987   3.099   8.316 -0.6349 -0.1223  0.1341
  174SOPE  H18X19832   5.037   3.194   8.286 -0.5822 -0.5243 -1.0745
  174SOPE  H18Y19833   4.926   3.052   8.236  2.5849 -2.3429 -1.1257
  174SOPE  H18Z19834   5.066   3.029   8.348 -1.7642 -0.7394  1.6078
  175SOPE     N19835   0.207   4.483  10.829 -0.1219 -0.6368  0.5322
  175SOPE   HN119836   0.118   4.535  10.838 -0.8669 -1.6396 -0.8862
  175SOPE   HN219837   0.190   4.411  10.756 -2.3878  0.6626 -0.2760
  175SOPE   HN319838   0.234   4.435  10.917  0.3061  0.5731  1.0715
  175SOPE   C1219839   0.314   4.578  10.790 -0.5100 -0.2772 -0.3955
  175SOPE  H12A19840   0.404   4.514  10.783 -0.9106 -0.8396 -0.4584
  175SOPE  H12B19841   0.325   4.641  10.881  0.0296 -2.7310  1.2989
  175SOPE   C1119842   0.283   4.645  10.658  0.6916  0.5951 -0.0772
  175SOPE  H11A19843   0.262   4.577  10.573  0.4246  0.0122  0.4559
  175SOPE  H11B19844   0.365   4.714  10.629  2.6748 -1.3141  0.9155
  175SOPE     P19845   0.141   4.851  10.591  0.2148 -0.1388 -0.3519
  175SOPE   O1319846   0.268   4.933  10.574  0.1780  0.4016  0.2431
  175SOPE   O1419847   0.026   4.915  10.650  0.7331 -0.5451 -0.0321
  175SOPE   O1219848   0.166   4.728  10.684  0.0500  0.3253 -0.3693
  175SOPE   O1119849   0.106   4.778  10.458 -0.0878  0.1961 -0.0115
  175SOPE    C119850   0.195   4.795  10.340  0.5994 -0.3290 -0.0735
  175SOPE    HA19851   0.303   4.807  10.362  0.1826 -1.3264  2.6004
  175SOPE    HB19852   0.169   4.887  10.282 -1.0559 -1.0204 -0.4392
  175SOPE    C219853   0.185   4.672  10.245 -0.0941 -0.2203 -0.8155
  175SOPE    HS19854   0.079   4.648  10.222  0.4750 -3.3307 -0.3924
  175SOPE   O2119855   0.246   4.561  10.321 -0.5688 -0.9933 -0.1246
  175SOPE   C2119856   0.211   4.441  10.291  0.7869  0.8194  0.7307
  175SOPE   O2219857   0.120   4.408  10.217 -0.0583 -0.5495  0.1626
  175SOPE   C2219858   0.312   4.342  10.355  0.0767 -0.1782 -0.5056
  175SOPE   H2R19859   0.258   4.268  10.417 -1.0640  2.2299  1.4741
  175SOPE   H2S19860   0.386   4.400  10.414  0.2594 -0.1436 -0.7666
  175SOPE    C319861   0.262   4.702  10.112  0.0673 -0.0881 -0.7506
  175SOPE    HX19862   0.368   4.682  10.135 -0.4948 -1.5906  0.5720
  175SOPE    HY19863   0.246   4.802  10.064 -1.6426  0.6363  1.2515
  175SOPE   O3119864   0.243   4.593  10.024 -0.1448  0.0054  0.2359
  175SOPE   C3119865   0.140   4.609   9.941  0.4084  0.4052 -1.0823
  175SOPE   O3219866   0.074   4.711   9.918 -0.1062  0.1662  0.7086
  175SOPE   C3219867   0.116   4.483   9.864 -0.1091  0.7948 -0.5045
  175SOPE   H2X19868   0.085   4.405   9.936  1.6447 -0.4918 -1.1069
  175SOPE   H2Y19869   0.216   4.455   9.825  0.2158  0.3855  0.6305
  175SOPE   C2319870   0.384   4.266  10.239 -0.8701  0.6224  0.3556
  175SOPE   H3R19871   0.309   4.250  10.158 -0.9004 -1.5794  0.7836
  175SOPE   H3S19872   0.407   4.163  10.274  3.0209  1.1014 -0.5705
  175SOPE   C2419873   0.513   4.326  10.193 -0.7016 -0.4928 -0.3271
  175SOPE   H4R19874   0.511   4.432  10.162 -0.9061 -0.3138  0.2789
  175SOPE   H4S19875   0.582   4.314  10.280 -0.0197  0.4263 -0.7408
  175SOPE   C2519876   0.574   4.248  10.075 -0.7589 -0.0209 -0.8584
  175SOPE   H5R19877   0.685   4.254  10.069 -0.7630  1.1879 -0.0305
  175SOPE   H5S19878   0.551   4.141  10.089 -1.8767  0.5504  2.2723
  175SOPE   C2619879   0.495   4.286   9.943 -0.2588 -0.3941  0.1156
  175SOPE   H6R19880   0.390   4.308   9.975  0.5615  1.5240  1.6107
  175SOPE   H6S19881   0.547   4.378   9.908  1.7892 -1.3961  0.5143
  175SOPE   C2719882   0.488   4.166   9.848  0.4156  0.0219 -0.1005
  175SOPE   H7R19883   0.575   4.098   9.861  1.3078  1.1944  0.1556
  175SOPE   H7S19884   0.402   4.107   9.887  0.5757 -0.0538  0.1403
  175SOPE   C2819885   0.473   4.195   9.700  0.5605  0.1923  0.2930
  175SOPE   H8R19886   0.369   4.232   9.686  0.0513 -1.4529 -0.3803
  175SOPE   H8S19887   0.549   4.271   9.671  1.2638 -0.4031  0.5699
  175SOPE   C2919888   0.476   4.074   9.611  0.4173  0.0366  0.1714
  175SOPE   H9119889   0.389   4.009   9.632  0.3283  0.7096  1.9668
  175SOPE  C21019890   0.565   4.047   9.514  0.1709  0.1181 -0.1673
  175SOPE  H10119891   0.546   3.950   9.466 -0.5312  0.3404 -0.3401
  175SOPE  C21119892   0.684   4.134   9.472  0.7942  0.4008  0.6923
  175SOPE  H11R19893   0.761   4.158   9.547  2.2231  0.9897 -0.9388
  175SOPE  H11S19894   0.649   4.232   9.435  0.2377  0.0729  0.3334
  175SOPE  C21219895   0.749   4.065   9.349  1.0330  0.4307 -0.0334
  175SOPE  H12R19896   0.669   4.035   9.278  0.9822 -0.2599  0.3115
  175SOPE  H12S19897   0.805   3.975   9.381  0.0819 -0.5038 -0.9667
  175SOPE  C21319898   0.843   4.154   9.266  0.7344  0.6832  0.4262
  175SOPE  H13R19899   0.919   4.214   9.321  2.3268 -0.1703 -0.8158
  175SOPE  H13S19900   0.781   4.229   9.212 -1.2615 -0.8638  0.5180
  175SOPE  C21419901   0.932   4.073   9.168 -0.8026  0.4176  0.0259
  175SOPE  H14R19902   1.009   4.012   9.220 -0.8768  1.0638  0.9056
  175SOPE  H14S19903   0.997   4.135   9.103  1.3439 -2.4669 -0.7057
  175SOPE  C21519904   0.859   3.965   9.087  0.0162  0.3085  0.3788
  175SOPE  H15R19905   0.789   3.900   9.143 -1.4946  0.5333 -1.2195
  175SOPE  H15S19906   0.924   3.893   9.031 -1.2259  0.8419 -1.7986
  175SOPE  C21619907   0.766   4.036   8.986  0.6451  0.3144  0.2202
  175SOPE  H16R19908   0.828   4.120   8.949 -2.1821  1.7461 -1.3629
  175SOPE  H16S19909   0.679   4.083   9.036  0.7612 -0.2641  0.9790
  175SOPE  C21719910   0.725   3.947   8.865 -0.2476  0.4844  0.3703
  175SOPE  H17R19911   0.820   3.903   8.830  0.8999  1.1580  2.5244
  175SOPE  H17S19912   0.680   4.019   8.793 -0.2546  0.4093  0.3008
  175SOPE  C21819913   0.632   3.832   8.904  0.1114 -0.8685 -0.2577
  175SOPE  H18R19914   0.597   3.777   8.814 -1.0675  0.0341 -0.3651
  175SOPE  H18S19915   0.542   3.881   8.946  0.9844  0.5671 -0.0121
  175SOPE  H18T19916   0.671   3.766   8.984 -1.1372 -1.3341 -0.0292
  175SOPE   C3319917   0.022   4.496   9.741 -0.4718  0.5321  0.3071
  175SOPE   H3X19918  -0.073   4.549   9.761 -0.6652  0.7296 -1.0586
  175SOPE   H3Y19919   0.001   4.393   9.705  0.5284 -0.0773  1.4401
  175SOPE   C3419920   0.095   4.558   9.618 -0.2612  0.2660  0.4884
  175SOPE   H4X19921   0.189   4.501   9.602 -2.0800 -2.5168 -0.6014
  175SOPE   H4Y19922   0.111   4.667   9.635  0.4026  0.2286  0.1397
  175SOPE   C3519923   0.021   4.530   9.489  0.1772  0.4024 -0.2785
  175SOPE   H5X19924  -0.084   4.568   9.490 -0.0919 -0.3338 -0.0459
  175SOPE   H5Y19925   0.013   4.421   9.467  0.6271 -0.2084  2.4110
  175SOPE   C3619926   0.073   4.605   9.367  0.0685 -0.6114  0.8716
  175SOPE   H6X19927   0.176   4.568   9.347  0.9106  1.9823  0.2737
  175SOPE   H6Y19928   0.083   4.709   9.405 -2.0399 -0.4619  1.1147
  175SOPE   C3719929  -0.012   4.607   9.245  0.3555 -0.4757  0.5211
  175SOPE   H7X19930  -0.104   4.659   9.279  1.2012  0.0166  2.0996
  175SOPE   H7Y19931  -0.031   4.502   9.215  1.1950 -0.9056  1.4551
  175SOPE   C3819932   0.049   4.688   9.128 -0.3607  0.0247  0.4605
  175SOPE   H8X19933   0.130   4.630   9.080 -1.4967 -2.1107  1.0899
  175SOPE   H8Y19934   0.084   4.785   9.171  0.2261  0.6218 -1.3146
  175SOPE   C3919935  -0.047   4.711   9.001 -0.2341  0.6181 -0.3779
  175SOPE   H9X19936   0.018   4.761   8.926  2.3195 -1.8687  0.0809
  175SOPE   H9Y19937  -0.122   4.786   9.033  0.0574 -0.1751  2.2308
  175SOPE  C31019938  -0.111   4.584   8.947  0.0481  0.8210 -0.2110
  175SOPE  H10X19939  -0.210   4.578   8.998  0.2835  0.7366  0.2390
  175SOPE  H10Y19940  -0.049   4.500   8.984  0.6867  1.1347 -0.5714
  175SOPE  C31119941  -0.132   4.578   8.793 -0.1243 -0.3602  0.1089
  175SOPE  H11X19942  -0.030   4.558   8.754 -0.5210 -1.0146 -0.6136
  175SOPE  H11Y19943  -0.172   4.676   8.757 -1.7044 -0.9582  0.1944
  175SOPE  C31219944  -0.231   4.470   8.746  0.1338 -0.2884  0.8017
  175SOPE  H12X19945  -0.315   4.487   8.818 -0.9336  1.7099 -0.8519
  175SOPE  H12Y19946  -0.189   4.368   8.755  1.7360  0.3688  0.9924
  175SOPE  C31319947  -0.284   4.498   8.610 -0.0065 -0.1636  0.3809
  175SOPE  H13X19948  -0.196   4.511   8.545  0.6898  1.9467  1.6909
  175SOPE  H13Y19949  -0.343   4.592   8.607  2.2156  1.2108 -0.4341
  175SOPE  C31419950  -0.367   4.377   8.556 -0.3999  0.2034 -0.0980
  175SOPE  H14X19951  -0.448   4.362   8.631  0.8249  0.8441  1.3637
  175SOPE  H14Y19952  -0.306   4.284   8.557 -0.5548  0.0530 -2.1859
  175SOPE  C31519953  -0.431   4.407   8.425 -0.9899 -0.1309 -0.0677
  175SOPE  H15X19954  -0.362   4.399   8.339 -0.9276 -0.0859 -0.0229
  175SOPE  H15Y19955  -0.478   4.508   8.418 -0.7801  0.0684  1.1424
  175SOPE  C31619956  -0.553   4.317   8.412  0.1526  0.1798 -0.2055
  175SOPE  H16X19957  -0.615   4.335   8.322 -0.2033 -1.0291 -0.2085
  175SOPE  H16Y19958  -0.615   4.310   8.504  1.8928 -2.0449  0.8695
  175SOPE  C31719959  -0.511   4.170   8.392 -0.1305 -0.1782 -0.7660
  175SOPE  H17X19960  -0.593   4.098   8.412  1.6548 -1.9784  0.2056
  175SOPE  H17Y19961  -0.431   4.136   8.460 -0.1554  1.8486  0.3250
  175SOPE  C31819962  -0.468   4.126   8.248  0.3589  0.4848 -0.0155
  175SOPE  H18X19963  -0.557   4.154   8.187  0.0531  0.4992  0.4359
  175SOPE  H18Y19964  -0.447   4.018   8.237 -0.9861  0.0057  1.8386
  175SOPE  H18Z19965  -0.387   4.194   8.214 -0.8303  2.6499  1.2875
  176SOPE     N19966   6.570   3.852  10.824 -0.1376  0.6480 -0.3220
  176SOPE   HN119967   6.508   3.890  10.899 -0.6094 -1.7825  0.5770
  176SOPE   HN219968   6.534   3.868  10.728 -2.0819  2.9457  0.7335
  176SOPE   HN319969   6.577   3.752  10.852  1.8142  0.9682  0.3812
  176SOPE   C1219970   6.719   3.898  10.820 -0.3877 -0.7671  0.2509
  176SOPE  H12A19971   6.779   3.820  10.768  1.6987 -0.8127  2.6291
  176SOPE  H12B19972   6.755   3.904  10.925  0.9130  2.2707 -0.3082
  176SOPE   C1119973   6.729   4.042  10.759  0.5373  0.1958 -0.8054
  176SOPE  H11A19974   6.695   4.051  10.654  0.1757 -0.6512 -0.7738
  176SOPE  H11B19975   6.838   4.064  10.768  0.5457 -0.7420  1.9743
  176SOPE     P19976   6.694   4.272  10.873  0.0497 -0.2533 -0.0675
  176SOPE   O1319977   6.792   4.279  10.981 -0.4109  0.6123 -0.0867
  176SOPE   O1419978   6.569   4.346  10.890 -1.1626  0.0324 -0.5527
  176SOPE   O1219979   6.656   4.128  10.847 -0.3417  0.0115  0.1345
  176SOPE   O1119980   6.767   4.310  10.736 -0.2157  0.0225  0.2270
  176SOPE    C119981   6.732   4.424  10.655 -0.2940 -0.2441 -0.8119
  176SOPE    HA19982   6.821   4.464  10.602 -0.8441  0.4333 -1.2287
  176SOPE    HB19983   6.689   4.511  10.710 -1.2741  0.4124 -2.5774
  176SOPE    C219984   6.630   4.377  10.547 -0.7092 -0.2211  0.3713
  176SOPE    HS19985   6.539   4.345  10.601  1.0017 -0.9070  2.9035
  176SOPE   O2119986   6.686   4.277  10.463 -0.9912 -0.1013  0.0784
  176SOPE   C2119987   6.590   4.210  10.402 -0.0138 -0.9716  0.0281
  176SOPE   O2219988   6.470   4.212  10.428  0.6583  0.3994  0.1215
  176SOPE   C2219989   6.649   4.119  10.286 -0.2556 -1.1166 -0.4048
  176SOPE   H2R19990   6.624   4.016  10.318  2.2852 -1.4928  0.4717
  176SOPE   H2S19991   6.755   4.140  10.261 -0.5564  1.0842 -0.0069
  176SOPE    C319992   6.616   4.499  10.445 -0.3799 -1.2120  1.0960
  176SOPE    HX19993   6.710   4.514  10.388 -1.4323  0.2964 -0.2818
  176SOPE    HY19994   6.602   4.585  10.513 -1.2899 -1.6934  1.5266
  176SOPE   O3119995   6.508   4.492  10.352  0.0497 -0.0869  0.4481
  176SOPE   C3119996   6.385   4.523  10.412  0.2016 -0.1129 -0.5177
  176SOPE   O3219997   6.371   4.519  10.533  0.6768 -0.5204 -0.4559
  176SOPE   C3219998   6.280   4.537  10.306 -0.4054 -0.4918 -0.3450
  176SOPE   H2X19999   6.273   4.446  10.242 -0.4023 -1.1017  0.5062
  176SOPE   H2Y20000   6.299   4.635  10.258 -0.5474 -0.0373  0.5201
  176SOPE   C2320001   6.563   4.132  10.158 -0.3860 -1.1475 -0.4155
  176SOPE   H3R20002   6.456   4.131  10.188 -0.0330  0.7938  0.9534
  176SOPE   H3S20003   6.585   4.047  10.089 -3.2078 -1.8185 -0.5610
  176SOPE   C2420004   6.595   4.267  10.080  0.2897  0.5588 -0.0369
  176SOPE   H4R20005   6.525   4.336  10.132  0.6109 -0.0562  1.2238
  176SOPE   H4S20006   6.704   4.282  10.091  0.6654 -0.8555 -1.5534
  176SOPE   C2520007   6.578   4.263   9.929 -0.0677 -0.0368  0.2909
  176SOPE   H5R20008   6.474   4.237   9.901 -0.1736  0.1594  0.4967
  176SOPE   H5S20009   6.594   4.367   9.893  1.8195 -1.1448 -2.1812
  176SOPE   C2620010   6.680   4.166   9.872 -0.7012  0.4779 -0.4225
  176SOPE   H6R20011   6.782   4.205   9.894 -1.5750  1.0477  2.9199
  176SOPE   H6S20012   6.677   4.064   9.916 -0.7036 -0.4254 -2.4321
  176SOPE   C2720013   6.657   4.160   9.725  0.0544 -0.5317 -0.5496
  176SOPE   H7R20014   6.566   4.097   9.724 -0.5400  0.3220 -1.7124
  176SOPE   H7S20015   6.631   4.254   9.672  0.3966 -0.4540 -0.5834
  176SOPE   C2820016   6.770   4.088   9.647 -0.1640 -0.3325  0.1211
  176SOPE   H8R20017   6.855   4.159   9.648  0.2308 -0.8114  0.7430
  176SOPE   H8S20018   6.792   3.995   9.704 -1.4845 -0.4419  0.4806
  176SOPE   C2920019   6.731   4.041   9.506 -0.5719 -0.7223 -0.5494
  176SOPE   H9120020   6.637   3.984   9.494 -0.4139 -1.0707 -0.1715
  176SOPE  C21020021   6.791   4.072   9.393  0.4944  0.1939  0.3618
  176SOPE  H10120022   6.752   4.029   9.300  1.5795  1.4532 -0.7199
  176SOPE  C21120023   6.913   4.151   9.389 -0.7021 -0.4353 -0.1939
  176SOPE  H11R20024   6.976   4.130   9.477 -1.8646 -0.7145  0.5890
  176SOPE  H11S20025   6.893   4.260   9.400 -0.3804 -0.0157 -3.3310
  176SOPE  C21220026   6.995   4.141   9.254  0.3851  0.3841 -0.3260
  176SOPE  H12R20027   6.934   4.179   9.169  0.9664  1.8672 -0.0855
  176SOPE  H12S20028   7.008   4.032   9.239 -0.6329 -0.1037  2.0795
  176SOPE  C21320029   7.131   4.211   9.264  0.4587 -0.6602 -0.8703
  176SOPE  H13R20030   7.182   4.164   9.350  1.6942  1.3080 -0.4729
  176SOPE  H13S20031   7.110   4.318   9.288  0.1739 -0.9723  0.2637
  176SOPE  C21420032   7.219   4.198   9.140 -0.4592  0.0868 -0.1074
  176SOPE  H14R20033   7.271   4.100   9.137 -1.4528 -0.3928 -2.8053
  176SOPE  H14S20034   7.296   4.279   9.146  1.1696 -1.3773 -0.8905
  176SOPE  C21520035   7.151   4.217   9.005 -0.4184  0.0335 -0.0727
  176SOPE  H15R20036   7.064   4.148   9.006 -2.1317  2.1021  1.9655
  176SOPE  H15S20037   7.231   4.192   8.933 -1.0860  0.4758 -0.9690
  176SOPE  C21620038   7.103   4.362   8.976  0.0593 -0.4390  0.4028
  176SOPE  H16R20039   7.180   4.440   8.992 -0.8768  0.4660  0.4988
  176SOPE  H16S20040   7.026   4.385   9.053  0.6192 -0.2695  0.9161
  176SOPE  C21720041   7.059   4.395   8.825 -0.0202  0.1136 -0.2326
  176SOPE  H17R20042   7.148   4.362   8.768 -0.5877 -1.3222 -0.3157
  176SOPE  H17S20043   7.045   4.504   8.809 -0.4672  0.1370  0.3006
  176SOPE  C21820044   6.936   4.317   8.781 -0.9025 -0.3548 -0.0366
  176SOPE  H18R20045   6.948   4.307   8.671  1.8426  0.8718  0.1164
  176SOPE  H18S20046   6.840   4.369   8.802  0.3271  2.9522 -2.2204
  176SOPE  H18T20047   6.948   4.215   8.824 -2.0978 -0.2358  0.6016
  176SOPE   C3320048   6.132   4.556  10.368  0.3007  0.2325 -0.2831
  176SOPE   H3X20049   6.128   4.657  10.414 -3.0118  1.0696 -2.2337
  176SOPE   H3Y20050   6.116   4.486  10.453 -2.5572  0.9516 -0.1460
  176SOPE   C3420051   6.020   4.533  10.266  0.5798  0.3841 -0.1485
  176SOPE   H4X20052   6.044   4.584  10.170  3.8791 -1.7786 -0.5923
  176SOPE   H4Y20053   5.935   4.592  10.305  1.9788  1.2257  1.7261
  176SOPE   C3520054   5.962   4.388  10.265  0.6243 -0.2927  0.2193
  176SOPE   H5X20055   5.901   4.363  10.354 -0.0142 -1.7172 -0.5983
  176SOPE   H5Y20056   6.043   4.313  10.270  1.3727  0.3023 -2.3197
  176SOPE   C3620057   5.881   4.363  10.136  0.2690  0.7237  0.0484
  176SOPE   H6X20058   5.940   4.411  10.055 -1.2985 -0.8764 -2.0996
  176SOPE   H6Y20059   5.784   4.418  10.137  1.0548  2.1389  3.2054
  176SOPE   C3720060   5.860   4.213  10.093  0.8447  0.2776  0.5079
  176SOPE   H7X20061   5.809   4.161  10.177 -0.5839  0.3225 -0.3195
  176SOPE   H7Y20062   5.958   4.162  10.084  0.0086 -1.3198  0.1544
  176SOPE   C3820063   5.789   4.198   9.955  0.6485 -0.1398  0.2721
  176SOPE   H8X20064   5.863   4.240   9.884 -0.0544  0.9259  0.1611
  176SOPE   H8Y20065   5.702   4.266   9.967  1.3580  0.7737  0.2681
  176SOPE   C3920066   5.755   4.053   9.916 -0.2192 -0.5353  0.0909
  176SOPE   H9X20067   5.665   4.028   9.977 -1.6484  0.0075 -1.7810
  176SOPE   H9Y20068   5.830   3.972   9.934  1.9742  1.3277 -0.4689
  176SOPE  C31020069   5.711   4.040   9.767 -0.4627 -0.5388 -0.7028
  176SOPE  H10X20070   5.790   4.076   9.698  1.4656 -1.2470  1.0623
  176SOPE  H10Y20071   5.617   4.092   9.738 -0.2726 -0.5652 -1.3511
  176SOPE  C31120072   5.681   3.889   9.748 -0.0845 -0.0525 -0.2481
  176SOPE  H11X20073   5.614   3.858   9.831 -2.3053 -1.3132 -2.4366
  176SOPE  H11Y20074   5.774   3.828   9.744 -0.0894 -0.3320  2.9969
  176SOPE  C31220075   5.618   3.858   9.609  0.0404  0.9474  1.0174
  176SOPE  H12X20076   5.690   3.859   9.524 -1.0187 -1.3245  0.0448
  176SOPE  H12Y20077   5.536   3.924   9.576  0.2754 -0.0966 -1.8143
  176SOPE  C31320078   5.558   3.716   9.600  0.0445  0.5360 -0.8997
  176SOPE  H13X20079   5.472   3.711   9.670  1.9769 -1.9154  1.3933
  176SOPE  H13Y20080   5.636   3.648   9.640 -0.4354  1.5543  1.8683
  176SOPE  C31420081   5.497   3.678   9.465  0.0893 -0.1991  0.6494
  176SOPE  H14X20082   5.581   3.650   9.398  0.5666 -1.4249  1.7473
  176SOPE  H14Y20083   5.445   3.764   9.418  0.6058  1.3623  2.8456
  176SOPE  C31520084   5.410   3.553   9.460  0.3216 -0.0908  0.1929
  176SOPE  H15X20085   5.310   3.571   9.505  1.0201  3.5804  0.4152
  176SOPE  H15Y20086   5.452   3.480   9.532 -1.6447  0.5057  2.0062
  176SOPE  C31620087   5.376   3.505   9.321  0.0242 -0.3617  0.4400
  176SOPE  H16X20088   5.363   3.595   9.258  0.4316  1.2013  2.5135
  176SOPE  H16Y20089   5.277   3.457   9.333 -1.2811  1.7367 -1.5552
  176SOPE  C31720090   5.483   3.414   9.264 -0.5941  0.2886 -0.2431
  176SOPE  H17X20091   5.490   3.322   9.326 -0.3491  0.6727  0.3068
  176SOPE  H17Y20092   5.582   3.465   9.269 -0.6241  0.2812  0.3793
  176SOPE  C31820093   5.454   3.367   9.117  0.2326  0.5982  0.4280
  176SOPE  H18X20094   5.356   3.315   9.129 -0.3326  1.6655  0.5831
  176SOPE  H18Y20095   5.533   3.295   9.089  2.4377  3.4740 -1.0307
  176SOPE  H18Z20096   5.439   3.449   9.044  3.2454  0.7831 -0.0267
  177SOPE     N20097   5.602   2.897  10.745 -0.0181  0.6276  0.4174
  177SOPE   HN120098   5.694   2.873  10.704 -1.7432 -1.8072 -2.3053
  177SOPE   HN220099   5.533   2.895  10.667  0.9303 -0.8336 -0.4061
  177SOPE   HN320100   5.595   2.988  10.796  0.9517 -0.5983  2.7918
  177SOPE   C1220101   5.565   2.787  10.842 -0.2028 -0.4205  0.2948
  177SOPE  H12A20102   5.572   2.685  10.798 -4.1877  0.1049 -1.8135
  177SOPE  H12B20103   5.457   2.807  10.860 -0.0516  0.8471 -0.1673
  177SOPE   C1120104   5.633   2.802  10.976 -0.0581 -0.1796 -0.0719
  177SOPE  H11A20105   5.591   2.735  11.054  1.0023 -1.6257 -0.7049
  177SOPE  H11B20106   5.611   2.905  11.011 -0.8690 -0.5494  0.5373
  177SOPE     P20107   5.850   2.647  10.954  0.0960 -0.2861 -0.4230
  177SOPE   O1320108   5.821   2.553  11.062 -0.3197  0.2746  0.5929
  177SOPE   O1420109   5.992   2.670  10.920  0.1769 -0.3245  0.0917
  177SOPE   O1220110   5.771   2.785  10.968  0.2221  0.7070 -0.2369
  177SOPE   O1120111   5.791   2.587  10.814  0.2178 -0.4620  0.4607
  177SOPE    C120112   5.807   2.453  10.778 -0.1556  0.0480  0.3649
  177SOPE    HA20113   5.715   2.414  10.731 -1.0819  2.4292  0.1203
  177SOPE    HB20114   5.817   2.385  10.865 -1.7074 -0.4298  0.1778
  177SOPE    C220115   5.909   2.428  10.668 -1.1491  0.1006 -0.5083
  177SOPE    HS20116   6.007   2.447  10.716  0.1730  0.3341 -3.2044
  177SOPE   O2120117   5.877   2.503  10.552 -0.0235 -0.1885  0.2487
  177SOPE   C2120118   5.973   2.585  10.511 -1.1412 -0.3406 -0.4969
  177SOPE   O2220119   6.078   2.607  10.565  0.3044  0.1521 -0.0506
  177SOPE   C2220120   5.929   2.650  10.380  0.1309  0.1714  0.5682
  177SOPE   H2R20121   5.871   2.744  10.393 -1.0067 -0.5547  0.7787
  177SOPE   H2S20122   5.873   2.575  10.320 -1.3177  4.2526 -3.4300
  177SOPE    C320123   5.912   2.282  10.620 -0.4825 -0.0788  0.3971
  177SOPE    HX20124   5.824   2.248  10.560 -1.4017  2.2464  0.4000
  177SOPE    HY20125   5.916   2.219  10.711 -1.1690 -1.7092 -0.6760
  177SOPE   O3120126   6.034   2.262  10.546 -0.3514 -0.1266  0.6869
  177SOPE   C3120127   6.145   2.234  10.616  0.2245 -0.5208 -0.0373
  177SOPE   O3220128   6.163   2.228  10.735 -0.2534 -0.3123 -0.0168
  177SOPE   C3220129   6.253   2.200  10.514 -1.0796 -0.0277  0.3434
  177SOPE   H2X20130   6.224   2.130  10.433  2.1419 -1.5626  0.4342
  177SOPE   H2Y20131   6.324   2.137  10.572 -0.5296 -1.3362 -1.6813
  177SOPE   C2320132   6.058   2.697  10.313 -0.4937  0.2676 -0.2338
  177SOPE   H3R20133   6.135   2.616  10.319 -0.7458 -0.0630 -1.4164
  177SOPE   H3S20134   6.087   2.793  10.361 -0.7200 -0.3308  1.1196
  177SOPE   C2420135   6.045   2.725  10.159  0.4065 -0.0125  0.3274
  177SOPE   H4R20136   6.022   2.625  10.115  1.4613  0.1498 -0.5944
  177SOPE   H4S20137   5.957   2.789  10.138 -1.0503 -1.5491  1.5500
  177SOPE   C2520138   6.167   2.772  10.086 -0.0606  0.4003  0.6711
  177SOPE   H5R20139   6.200   2.865  10.137  0.7489  1.2047 -1.2600
  177SOPE   H5S20140   6.251   2.703  10.106 -0.6050 -0.2036  0.8904
  177SOPE   C2620141   6.157   2.800   9.935  0.1289 -0.2502  0.2265
  177SOPE   H6R20142   6.056   2.843   9.921 -0.6569 -2.4460 -1.1523
  177SOPE   H6S20143   6.231   2.878   9.908 -1.3428  1.1580  0.2115
  177SOPE   C2720144   6.168   2.671   9.847  0.1518  0.2305  0.5365
  177SOPE   H7R20145   6.271   2.631   9.834  0.4289  0.8302  0.8750
  177SOPE   H7S20146   6.107   2.579   9.864 -0.5937  0.8418  1.1858
  177SOPE   C2820147   6.145   2.695   9.688 -0.4382 -0.1613 -0.4173
  177SOPE   H8R20148   6.134   2.594   9.643  0.7877 -0.6118  0.2826
  177SOPE   H8S20149   6.043   2.739   9.682 -0.5897 -0.3109  0.9237
  177SOPE   C2920150   6.247   2.771   9.608  0.5623 -0.6241  0.2873
  177SOPE   H9120151   6.337   2.797   9.666  0.9910  2.2858 -1.5422
  177SOPE  C21020152   6.223   2.814   9.485 -0.1199  0.9776  0.5313
  177SOPE  H10120153   6.289   2.888   9.437 -0.5777  1.2627  0.3393
  177SOPE  C21120154   6.093   2.782   9.405 -0.4375  0.4040  0.5825
  177SOPE  H11R20155   6.045   2.870   9.357 -0.0510 -0.2196 -0.9510
  177SOPE  H11S20156   6.011   2.733   9.461  1.4466 -1.8595  1.4118
  177SOPE  C21220157   6.130   2.670   9.298  0.3842 -0.9432 -0.0946
  177SOPE  H12R20158   6.172   2.581   9.350 -1.1276 -0.2263  2.4363
  177SOPE  H12S20159   6.197   2.714   9.220 -0.5541 -1.2188 -1.0772
  177SOPE  C21320160   6.011   2.612   9.220 -0.1221  0.3375  0.5731
  177SOPE  H13R20161   5.964   2.552   9.301 -1.0179  0.8484  0.4274
  177SOPE  H13S20162   6.055   2.537   9.151 -0.9046 -0.6916  1.1781
  177SOPE  C21420163   5.915   2.717   9.150  0.0220 -0.0331 -0.5156
  177SOPE  H14R20164   5.964   2.780   9.073 -1.0791 -1.1135 -2.1325
  177SOPE  H14S20165   5.876   2.788   9.226  0.9375  0.7497 -0.7587
  177SOPE  C21520166   5.800   2.646   9.070 -0.0854  0.0450 -0.3804
  177SOPE  H15R20167   5.730   2.600   9.143 -2.1044 -1.8119 -3.3688
  177SOPE  H15S20168   5.833   2.568   8.999  0.0954  0.5134 -0.8144
  177SOPE  C21620169   5.723   2.737   8.978 -0.6155 -0.7155 -0.9994
  177SOPE  H16R20170   5.793   2.781   8.904 -1.6783 -0.3958 -1.8310
  177SOPE  H16S20171   5.692   2.821   9.044 -0.0332 -2.3003  1.3183
  177SOPE  C21720172   5.603   2.672   8.899  0.0447 -0.3317 -0.2541
  177SOPE  H17R20173   5.643   2.597   8.827 -0.7003 -1.5048  0.5247
  177SOPE  H17S20174   5.560   2.752   8.835 -1.0332  0.5481  1.5266
  177SOPE  C21820175   5.494   2.619   8.983 -0.6572  0.3037  0.4522
  177SOPE  H18R20176   5.446   2.701   9.041 -2.3362 -1.6007  1.8324
  177SOPE  H18S20177   5.536   2.545   9.054  1.3566 -0.4740 -1.4813
  177SOPE  H18T20178   5.414   2.570   8.922 -0.3684  2.0899 -1.4406
  177SOPE   C3320179   6.332   2.322  10.451 -0.4138 -0.3451  0.0450
  177SOPE   H3X20180   6.422   2.328  10.515  1.8196 -2.9960 -2.6553
  177SOPE   H3Y20181   6.272   2.414  10.463 -1.0861 -0.6498 -0.8710
  177SOPE   C3420182   6.354   2.310  10.299 -0.6799 -0.0179  0.1613
  177SOPE   H4X20183   6.411   2.218  10.272 -0.1413  0.0558  1.0391
  177SOPE   H4Y20184   6.403   2.400  10.259 -0.1334 -0.3736  0.0238
  177SOPE   C3520185   6.226   2.303  10.222 -0.1144 -0.2749  0.2785
  177SOPE   H5X20186   6.142   2.366  10.259  0.1514 -0.8203  1.8188
  177SOPE   H5Y20187   6.194   2.198  10.205 -2.3043  0.4412 -0.2214
  177SOPE   C3620188   6.230   2.363  10.077 -0.6370  0.4487 -0.4894
  177SOPE   H6X20189   6.267   2.468  10.076  1.6785 -0.3269  0.5245
  177SOPE   H6Y20190   6.123   2.364  10.048 -1.9110  1.1578  3.8545
  177SOPE   C3720191   6.316   2.286   9.974  1.0619 -0.6710 -0.2746
  177SOPE   H7X20192   6.297   2.176   9.977 -0.6471 -0.3721 -0.0610
  177SOPE   H7Y20193   6.422   2.305  10.004  0.0373  0.1557  3.0488
  177SOPE   C3820194   6.293   2.321   9.825  0.1098  0.1938  0.9004
  177SOPE   H8X20195   6.326   2.422   9.794 -0.0105  0.5680  1.9682
  177SOPE   H8Y20196   6.187   2.315   9.791  1.1780 -0.1034 -2.5538
  177SOPE   C3920197   6.378   2.229   9.736  0.4021  0.1935 -0.4726
  177SOPE   H9X20198   6.348   2.125   9.760  0.7614 -0.2543 -1.8942
  177SOPE   H9Y20199   6.486   2.229   9.761  0.2796  0.1072  0.0610
  177SOPE  C31020200   6.344   2.246   9.583 -0.0229  0.4411  0.4491
  177SOPE  H10X20201   6.391   2.344   9.562 -1.9645  1.2091 -0.3939
  177SOPE  H10Y20202   6.243   2.277   9.552  0.7622  1.3706 -1.2151
  177SOPE  C31120203   6.401   2.137   9.487 -0.8467 -0.1435  0.4969
  177SOPE  H11X20204   6.324   2.057   9.485  0.2329 -1.1991  0.7939
  177SOPE  H11Y20205   6.492   2.098   9.536 -0.1113  0.5654 -0.2780
  177SOPE  C31220206   6.427   2.184   9.344  0.4581  0.5266 -0.9337
  177SOPE  H12X20207   6.456   2.099   9.279  2.6383 -0.1048  0.8055
  177SOPE  H12Y20208   6.514   2.253   9.353 -0.7765  2.1826 -1.3607
  177SOPE  C31320209   6.298   2.244   9.281  0.1172 -0.4168 -0.6039
  177SOPE  H13X20210   6.277   2.336   9.340  3.1231  0.4212 -0.7530
  177SOPE  H13Y20211   6.211   2.175   9.286 -0.2311 -0.0785 -1.6528
  177SOPE  C31420212   6.314   2.294   9.137  0.5149 -0.3119 -0.2253
  177SOPE  H14X20213   6.393   2.371   9.129  0.3005  0.0952  1.3380
  177SOPE  H14Y20214   6.214   2.339   9.118 -0.2108 -1.1668  1.3867
  177SOPE  C31520215   6.340   2.172   9.041 -0.0461  1.0282  0.7438
  177SOPE  H15X20216   6.258   2.098   9.048  1.2858 -0.4973  0.4306
  177SOPE  H15Y20217   6.434   2.118   9.064 -0.7344  0.5150  2.4152
  177SOPE  C31620218   6.347   2.211   8.895  0.0173  0.2927 -0.3872
  177SOPE  H16X20219   6.357   2.122   8.828  1.1039  0.2291 -0.1530
  177SOPE  H16Y20220   6.434   2.277   8.876 -1.4159  2.0736 -0.9793
  177SOPE  C31720221   6.219   2.269   8.821  0.2082  0.3789  0.1128
  177SOPE  H17X20222   6.202   2.369   8.867  0.7602  0.2910  0.5148
  177SOPE  H17Y20223   6.133   2.207   8.856  1.4794 -1.2834  0.3116
  177SOPE  C31820224   6.229   2.267   8.672 -0.1210 -0.1672 -0.3827
  177SOPE  H18X20225   6.130   2.294   8.630  0.0312  1.3671  0.2197
  177SOPE  H18Y20226   6.263   2.171   8.627 -0.9686 -1.2031  1.1300
  177SOPE  H18Z20227   6.297   2.337   8.620  0.3456 -0.2016  0.1684
  178SOPE     N20228   2.581   0.149  11.180  0.1414 -0.0502  0.2714
  178SOPE   HN120229   2.541   0.066  11.229 -1.7911  1.4811  1.3520
  178SOPE   HN220230   2.582   0.230  11.246  0.2302 -0.9116  1.3359
  178SOPE   HN320231   2.521   0.169  11.098 -1.8102  0.8154  1.8719
  178SOPE   C1220232   2.726   0.133  11.137 -0.7924 -0.2427 -0.2451
  178SOPE  H12A20233   2.745   0.023  11.141 -1.5234 -0.5225 -3.1173
  178SOPE  H12B20234   2.797   0.181  11.207 -0.9943  1.9925 -1.5173
  178SOPE   C1120235   2.751   0.202  11.009 -0.1085 -0.5112 -0.0126
  178SOPE  H11A20236   2.856   0.174  10.989  0.7817  2.1853  0.6464
  178SOPE  H11B20237   2.744   0.313  11.017  0.8761 -0.4849  0.5291
  178SOPE     P20238   2.681   0.162  10.751 -0.3484 -0.2866  0.0385
  178SOPE   O1320239   2.640   0.297  10.705 -0.3820  0.3631  0.2956
  178SOPE   O1420240   2.614   0.050  10.679  0.3031 -0.1343 -0.1717
  178SOPE   O1220241   2.655   0.164  10.904 -0.3189  0.3982  0.5990
  178SOPE   O1120242   2.842   0.148  10.736 -0.5982 -0.3043  0.4632
  178SOPE    C120243   2.895   0.012  10.730 -0.1770 -0.0144 -0.7117
  178SOPE    HA20244   2.819  -0.068  10.740  0.0853 -0.5453 -2.6469
  178SOPE    HB20245   2.965   0.013  10.816  1.0441 -1.8177 -1.6464
  178SOPE    C220246   2.968  -0.014  10.596 -0.5549 -0.2293  0.2559
  178SOPE    HS20247   3.019  -0.113  10.595  0.2242  0.1590  1.0073
  178SOPE   O2120248   3.044   0.104  10.562 -0.0904 -0.4819 -0.0312
  178SOPE   C2120249   3.174   0.083  10.590  0.0814 -0.1358 -1.4480
  178SOPE   O2220250   3.220  -0.022  10.636 -0.2548  0.8464  0.0926
  178SOPE   C2220251   3.253   0.212  10.584  0.0006  0.0780  0.1806
  178SOPE   H2R20252   3.298   0.220  10.686  1.8707 -0.8903 -0.5295
  178SOPE   H2S20253   3.193   0.301  10.558 -0.6769 -0.5298 -0.3447
  178SOPE    C320254   2.863  -0.029  10.483  0.1123 -0.6108  0.2670
  178SOPE    HX20255   2.800   0.062  10.487  0.2873 -0.3590 -2.0840
  178SOPE    HY20256   2.794  -0.110  10.515 -0.0443 -0.6102 -0.0700
  178SOPE   O3120257   2.919  -0.071  10.357  0.2574 -0.7857  0.0841
  178SOPE   C3120258   2.947   0.023  10.267 -0.5555  0.8903 -0.5216
  178SOPE   O3220259   2.920   0.142  10.275  0.6036  0.5197 -0.2677
  178SOPE   C3220260   2.990  -0.052  10.139 -0.3502  0.0838  0.1575
  178SOPE   H2X20261   2.899  -0.106  10.104 -0.5024  0.9163 -0.7437
  178SOPE   H2Y20262   3.060  -0.130  10.175 -2.4735 -0.4052  3.3902
  178SOPE   C2320263   3.378   0.198  10.493 -0.9654  0.0974  0.1679
  178SOPE   H3R20264   3.439   0.111  10.526 -1.6698 -0.2299  0.6230
  178SOPE   H3S20265   3.446   0.286  10.497  0.6202 -1.0982  0.1485
  178SOPE   C2420266   3.347   0.199  10.341 -0.1921 -0.1538  0.2827
  178SOPE   H4R20267   3.310   0.100  10.307  0.9038 -0.2155 -0.7389
  178SOPE   H4S20268   3.271   0.278  10.322 -0.2877  0.0854  1.6036
  178SOPE   C2520269   3.473   0.244  10.270  0.0009  0.2670  0.3902
  178SOPE   H5R20270   3.478   0.354  10.281  2.4336  0.3625 -1.3323
  178SOPE   H5S20271   3.566   0.208  10.319  1.4822  3.0305 -0.3200
  178SOPE   C2620272   3.488   0.228  10.121 -0.7585 -0.4222 -0.6161
  178SOPE   H6R20273   3.591   0.250  10.085 -0.8409  1.5995  0.3195
  178SOPE   H6S20274   3.469   0.122  10.094 -1.0421 -0.6158  0.3237
  178SOPE   C2720275   3.389   0.302  10.028 -0.0638  0.2216  0.0653
  178SOPE   H7R20276   3.292   0.247  10.030 -0.3184  0.6841  0.3578
  178SOPE   H7S20277   3.380   0.405  10.067  1.5109  0.9923 -1.5453
  178SOPE   C2820278   3.423   0.299   9.877 -0.0354  0.5467  0.4405
  178SOPE   H8R20279   3.345   0.346   9.813 -0.1341 -1.2527 -0.8157
  178SOPE   H8S20280   3.518   0.356   9.873 -0.2511  0.8625 -0.4576
  178SOPE   C2920281   3.451   0.165   9.814 -0.3535 -0.4565 -0.6920
  178SOPE   H9120282   3.377   0.090   9.847  0.1249 -0.8117 -0.4203
  178SOPE  C21020283   3.553   0.124   9.732  0.2252  0.0222  0.2874
  178SOPE  H10120284   3.543   0.028   9.679  2.7609 -0.4391  0.5651
  178SOPE  C21120285   3.662   0.208   9.676 -0.1488 -0.1726  0.7555
  178SOPE  H11R20286   3.754   0.170   9.726  0.9011 -0.0329 -1.0035
  178SOPE  H11S20287   3.653   0.315   9.705 -2.1778 -0.2581  0.5221
  178SOPE  C21220288   3.685   0.205   9.523 -0.0716 -0.4953 -0.4938
  178SOPE  H12R20289   3.680   0.104   9.477 -0.4360  0.6151 -2.9948
  178SOPE  H12S20290   3.785   0.248   9.504  0.0239 -0.2669  0.5182
  178SOPE  C21320291   3.589   0.297   9.454  0.7176 -0.3573 -0.8699
  178SOPE  H13R20292   3.620   0.404   9.457 -1.5920  0.3617 -1.4293
  178SOPE  H13S20293   3.489   0.284   9.502  1.2311  0.0002  0.2909
  178SOPE  C21420294   3.569   0.249   9.307 -0.1385  1.0017 -0.2896
  178SOPE  H14R20295   3.550   0.140   9.314  0.9913  0.7787 -0.5285
  178SOPE  H14S20296   3.665   0.264   9.254 -1.1170  2.7470 -1.6059
  178SOPE  C21520297   3.460   0.315   9.227 -0.3364 -0.1224 -0.0850
  178SOPE  H15R20298   3.473   0.426   9.233  0.6038 -0.2216 -0.2845
  178SOPE  H15S20299   3.367   0.306   9.288  0.6952  0.3617  1.6057
  178SOPE  C21620300   3.458   0.264   9.087  0.1105  0.3625 -0.8305
  178SOPE  H16R20301   3.411   0.163   9.087 -1.7738  1.2142 -2.2702
  178SOPE  H16S20302   3.564   0.251   9.056  0.7064  2.3904  0.2849
  178SOPE  C21720303   3.392   0.360   8.984 -0.2324 -0.0293 -0.2881
  178SOPE  H17R20304   3.453   0.453   8.988 -0.2670 -0.0478  0.6656
  178SOPE  H17S20305   3.285   0.378   9.008 -0.2086  1.5265 -1.3142
  178SOPE  C21820306   3.401   0.305   8.832  0.4780  0.3897 -0.1425
  178SOPE  H18R20307   3.506   0.309   8.797 -0.1227  1.6301 -1.8712
  178SOPE  H18S20308   3.344   0.376   8.768  0.3966  1.5510  1.1916
  178SOPE  H18T20309   3.352   0.206   8.824  1.2275 -0.0086  0.1030
  178SOPE   C3320310   3.052   0.031  10.023 -0.1168 -0.2211 -0.9547
  178SOPE   H3X20311   3.153   0.063  10.056  0.1185  2.1582 -3.7811
  178SOPE   H3Y20312   2.996   0.125  10.003 -1.0274  0.0585  2.5749
  178SOPE   C3420313   3.073  -0.042   9.892 -0.0537 -0.0536 -0.0192
  178SOPE   H4X20314   3.130  -0.135   9.914 -1.1436 -0.3983  1.4277
  178SOPE   H4Y20315   3.137   0.008   9.816 -1.2237  0.2432 -0.8261
  178SOPE   C3520316   2.949  -0.075   9.808 -1.0098 -0.2150 -0.0221
  178SOPE   H5X20317   2.890   0.017   9.786 -0.1895  0.1166 -0.8826
  178SOPE   H5Y20318   2.871  -0.137   9.858  2.1694 -3.0831  1.5078
  178SOPE   C3620319   2.972  -0.143   9.672  0.6275 -0.5654 -0.4655
  178SOPE   H6X20320   2.874  -0.175   9.632 -0.3235 -0.2368  1.5528
  178SOPE   H6Y20321   3.043  -0.227   9.691 -3.1608 -3.5982  0.9601
  178SOPE   C3720322   3.028  -0.052   9.561 -0.0095 -0.5167  0.3172
  178SOPE   H7X20323   3.133  -0.027   9.588 -0.7824  3.4523 -0.0486
  178SOPE   H7Y20324   2.985   0.050   9.549 -0.5425 -0.9526 -1.6236
  178SOPE   C3820325   3.036  -0.109   9.414  0.4828  0.1150 -1.3397
  178SOPE   H8X20326   2.936  -0.152   9.390  1.0348 -1.7639 -0.3783
  178SOPE   H8Y20327   3.103  -0.197   9.410  1.9290  1.1859 -0.8685
  178SOPE   C3920328   3.076  -0.008   9.306 -0.0063  0.0947 -1.0264
  178SOPE   H9X20329   3.164   0.047   9.344 -0.1776 -1.2788  1.4558
  178SOPE   H9Y20330   2.996   0.068   9.292 -0.5844  0.4138  3.2863
  178SOPE  C31020331   3.107  -0.063   9.167  0.0323  0.5258  0.5431
  178SOPE  H10X20332   3.201  -0.123   9.168 -0.1526  0.2116 -0.5218
  178SOPE  H10Y20333   3.119   0.021   9.095 -0.4699  0.9316  0.9291
  178SOPE  C31120334   3.002  -0.159   9.117  0.1525  0.0931 -0.2223
  178SOPE  H11X20335   2.912  -0.115   9.164 -0.7562 -0.1734 -1.7113
  178SOPE  H11Y20336   3.023  -0.258   9.163 -0.1125 -0.1859 -0.7111
  178SOPE  C31220337   2.994  -0.166   8.959 -0.0258 -0.7492  0.0934
  178SOPE  H12X20338   2.991  -0.063   8.918 -0.0399  0.6192  3.3766
  178SOPE  H12Y20339   2.896  -0.213   8.936 -0.1252 -1.2214  1.4247
  178SOPE  C31320340   3.107  -0.245   8.900 -0.0737  0.6205 -0.6802
  178SOPE  H13X20341   3.104  -0.350   8.935 -0.4395  0.5458 -0.9357
  178SOPE  H13Y20342   3.201  -0.193   8.930  1.7443 -1.2879 -2.9060
  178SOPE  C31420343   3.107  -0.232   8.748  0.1029 -0.3460  0.2625
  178SOPE  H14X20344   3.029  -0.294   8.700  0.3340  0.4990 -1.2137
  178SOPE  H14Y20345   3.206  -0.275   8.723  0.5378  1.7619 -1.8418
  178SOPE  C31520346   3.097  -0.094   8.686 -0.2511  0.6269  0.0117
  178SOPE  H15X20347   3.137  -0.008   8.743  1.4317  1.0031 -1.6722
  178SOPE  H15Y20348   2.988  -0.076   8.682 -0.3932 -0.1079  0.4109
  178SOPE  C31620349   3.164  -0.090   8.545  0.1718 -0.2504  1.0244
  178SOPE  H16X20350   3.143  -0.186   8.492  2.3380 -0.4164  0.4480
  178SOPE  H16Y20351   3.272  -0.068   8.540  0.4774 -2.2032 -2.9865
  178SOPE  C31720352   3.099   0.015   8.456 -0.5717  0.0039  0.5360
  178SOPE  H17X20353   2.991  -0.008   8.452 -1.1074  2.5783 -0.9522
  178SOPE  H17Y20354   3.135  -0.003   8.352 -0.7244 -0.6066  0.5880
  178SOPE  C31820355   3.112   0.158   8.500  0.1502  0.8130  0.0725
  178SOPE  H18X20356   3.048   0.186   8.586 -1.9007 -2.0283 -0.4613
  178SOPE  H18Y20357   3.083   0.223   8.415 -0.3246 -0.8996 -1.1036
  178SOPE  H18Z20358   3.219   0.164   8.529 -0.2030 -1.5745  1.9880
  179SOPE     N20359   1.960   1.521   6.640  0.0024  1.2822  0.2174
  179SOPE   HN120360   1.966   1.434   6.696  0.6696 -0.0873 -1.9278
  179SOPE   HN220361   1.863   1.533   6.604 -0.8480 -0.2176  1.9236
  179SOPE   HN320362   2.023   1.505   6.559 -1.1263  0.8932 -0.5952
  179SOPE   C1220363   1.993   1.640   6.733  0.1726  0.0176 -0.2794
  179SOPE  H12A20364   2.093   1.634   6.783 -1.2848  0.0831  2.7881
  179SOPE  H12B20365   1.915   1.652   6.811 -1.2058 -1.1036 -1.4762
  179SOPE   C1120366   2.015   1.769   6.650  0.1740 -0.0235 -0.1784
  179SOPE  H11A20367   2.026   1.847   6.728 -0.7103 -0.4060  0.3430
  179SOPE  H11B20368   1.925   1.793   6.589 -0.1456 -0.0721  0.2708
  179SOPE     P20369   2.214   1.873   6.521 -0.1832  0.4442 -0.4631
  179SOPE   O1320370   2.133   1.956   6.427  0.2528  0.2915 -0.7819
  179SOPE   O1420371   2.342   1.818   6.480  0.3985  0.1182 -0.4244
  179SOPE   O1220372   2.124   1.755   6.563  0.1902  0.2926 -0.2873
  179SOPE   O1120373   2.243   1.953   6.656 -0.5130  0.0048  0.1426
  179SOPE    C120374   2.318   1.890   6.761  0.0707  0.0556 -0.2197
  179SOPE    HA20375   2.415   1.857   6.717  0.5207  2.3283 -0.9973
  179SOPE    HB20376   2.264   1.794   6.781  0.2483 -0.3096 -1.4579
  179SOPE    C220377   2.346   1.978   6.880 -0.8817  0.1080 -0.1426
  179SOPE    HS20378   2.401   1.914   6.952  1.5110 -0.5295 -2.4814
  179SOPE   O2120379   2.218   2.037   6.923  0.5813  0.5710 -0.5758
  179SOPE   C2120380   2.141   1.941   6.979 -0.0469  0.4814 -0.7277
  179SOPE   O2220381   2.187   1.832   7.001  0.6580  0.7188  0.0666
  179SOPE   C2220382   2.003   1.985   7.016 -0.1938  0.6881  0.3274
  179SOPE   H2R20383   1.970   2.050   6.932 -2.1019 -1.8644 -0.9498
  179SOPE   H2S20384   2.003   2.044   7.110 -1.3381 -0.6813  1.2088
  179SOPE    C320385   2.438   2.103   6.842  0.1675  0.3602 -0.1613
  179SOPE    HX20386   2.391   2.169   6.766 -0.1004  0.1928 -0.1419
  179SOPE    HY20387   2.533   2.063   6.801 -1.1013 -0.8239 -1.9771
  179SOPE   O3120388   2.458   2.180   6.959  1.0731  0.1219  0.3396
  179SOPE   C3120389   2.553   2.275   6.948 -0.0344 -0.2605  0.1723
  179SOPE   O3220390   2.626   2.288   6.852  0.1432  0.1115  1.3952
  179SOPE   C3220391   2.572   2.364   7.067 -0.1751 -0.2403 -0.6632
  179SOPE   H2X20392   2.515   2.454   7.037  1.8633  2.1434  2.2152
  179SOPE   H2Y20393   2.679   2.395   7.075 -0.5956  0.7579  1.5751
  179SOPE   C2320394   1.913   1.861   7.039 -0.0689  0.4668  0.0281
  179SOPE   H3R20395   1.937   1.769   6.982  0.2394  0.8053 -0.3828
  179SOPE   H3S20396   1.810   1.888   7.006 -0.8060 -2.4597 -0.1961
  179SOPE   C2420397   1.908   1.816   7.192 -0.7404  0.4346 -0.4155
  179SOPE   H4R20398   2.009   1.776   7.218 -0.4343  1.2924 -0.2585
  179SOPE   H4S20399   1.894   1.906   7.256 -1.0049  1.2345 -1.5918
  179SOPE   C2520400   1.800   1.720   7.219  0.0690  0.8156  0.4726
  179SOPE   H5R20401   1.787   1.697   7.327  1.3958 -3.6969 -0.2237
  179SOPE   H5S20402   1.704   1.754   7.175  0.5203  0.8375 -0.5053
  179SOPE   C2620403   1.824   1.582   7.148  0.2621  0.1142 -0.4412
  179SOPE   H6R20404   1.739   1.514   7.168  1.4755 -2.1269 -2.5762
  179SOPE   H6S20405   1.825   1.608   7.040  0.4914  0.6727 -0.3074
  179SOPE   C2720406   1.968   1.528   7.182 -0.9007 -0.2769  0.3258
  179SOPE   H7R20407   2.054   1.587   7.144 -2.0852  0.7961 -0.7287
  179SOPE   H7S20408   1.976   1.512   7.292  1.3532  0.3745  0.2653
  179SOPE   C2820409   1.994   1.390   7.116  0.3807  0.4191 -0.0659
  179SOPE   H8R20410   1.906   1.331   7.151  0.0075  0.2839 -1.2035
  179SOPE   H8S20411   1.972   1.402   7.007  0.5972  0.0260 -0.1550
  179SOPE   C2920412   2.124   1.320   7.132 -0.1857  0.7393  0.0096
  179SOPE   H9120413   2.200   1.342   7.056  0.6006  2.3515  1.2521
  179SOPE  C21020414   2.156   1.226   7.220  0.0051  0.8453  0.6128
  179SOPE  H10120415   2.253   1.175   7.216 -0.0630  0.9020 -3.9470
  179SOPE  C21120416   2.055   1.178   7.324 -0.1802 -0.0610 -0.7438
  179SOPE  H11R20417   2.049   1.067   7.322  1.8305 -0.2556  1.7084
  179SOPE  H11S20418   1.953   1.217   7.305  0.4974  0.6085 -3.2583
  179SOPE  C21220419   2.112   1.217   7.459 -0.6898  0.0886 -0.5362
  179SOPE  H12R20420   2.134   1.325   7.475  0.2131 -0.5811  3.1976
  179SOPE  H12S20421   2.193   1.148   7.492  0.6674  1.7142 -0.4010
  179SOPE  C21320422   2.003   1.189   7.570 -0.2825  0.1437 -0.4258
  179SOPE  H13R20423   1.968   1.083   7.567 -1.7650  0.6128 -0.0058
  179SOPE  H13S20424   1.916   1.254   7.547  1.4980  2.2102 -1.4838
  179SOPE  C21420425   2.054   1.234   7.704  0.1372  0.2245  0.1694
  179SOPE  H14R20426   2.139   1.174   7.743 -0.1382 -1.0702 -1.1911
  179SOPE  H14S20427   1.983   1.229   7.789 -0.0773  2.2497  0.1220
  179SOPE  C21520428   2.098   1.382   7.711 -0.0053 -0.3964 -0.2719
  179SOPE  H15R20429   2.031   1.453   7.658  2.2502  1.8272 -0.2274
  179SOPE  H15S20430   2.199   1.393   7.665 -0.7665  1.4381 -1.5587
  179SOPE  C21620431   2.131   1.433   7.851  0.4803  0.1730 -0.2522
  179SOPE  H16R20432   2.204   1.355   7.884 -0.0924 -1.2498 -2.2530
  179SOPE  H16S20433   2.041   1.434   7.917 -1.2352  0.9843 -2.5684
  179SOPE  C21720434   2.200   1.568   7.854  0.4628 -0.4041  0.4175
  179SOPE  H17R20435   2.125   1.644   7.826  1.5782  0.2621 -0.7909
  179SOPE  H17S20436   2.288   1.572   7.786  0.0611  1.9749 -0.0111
  179SOPE  C21820437   2.264   1.607   7.988  0.5567  0.8823  0.3298
  179SOPE  H18R20438   2.301   1.712   7.985  0.0520  1.0589  0.2697
  179SOPE  H18S20439   2.360   1.554   8.007  0.6168  0.9794  0.2949
  179SOPE  H18T20440   2.190   1.590   8.069  1.0295 -1.7636  0.2627
  179SOPE   C3320441   2.530   2.302   7.207  0.4303  0.4104 -0.3925
  179SOPE   H3X20442   2.457   2.222   7.185  1.4220 -0.8318  0.7614
  179SOPE   H3Y20443   2.475   2.385   7.257 -3.1348 -0.7423 -2.2368
  179SOPE   C3420444   2.640   2.253   7.296  0.5929 -0.0145  0.1648
  179SOPE   H4X20445   2.673   2.161   7.243 -1.0894 -1.8092  2.1543
  179SOPE   H4Y20446   2.598   2.204   7.386 -0.2186  3.8945  2.0072
  179SOPE   C3520447   2.747   2.353   7.324  0.2442 -0.0093 -0.3060
  179SOPE   H5X20448   2.796   2.400   7.236  0.0566 -1.9055 -1.4677
  179SOPE   H5Y20449   2.817   2.300   7.391 -0.0473 -0.3012 -0.2298
  179SOPE   C3620450   2.712   2.468   7.424  0.0325 -0.3674  0.2869
  179SOPE   H6X20451   2.627   2.526   7.384 -2.3104 -2.3258  2.2394
  179SOPE   H6Y20452   2.796   2.538   7.443 -1.9732  1.4837  2.7519
  179SOPE   C3720453   2.669   2.417   7.555 -0.3926 -0.6800  0.2171
  179SOPE   H7X20454   2.758   2.356   7.581 -0.6563 -1.2033 -0.0726
  179SOPE   H7Y20455   2.579   2.353   7.545  0.7768 -2.1295 -1.5323
  179SOPE   C3820456   2.620   2.533   7.647  0.1062  0.4758  0.0259
  179SOPE   H8X20457   2.533   2.583   7.598 -1.9107 -0.3404  2.6541
  179SOPE   H8Y20458   2.709   2.596   7.668 -0.0406  1.1871 -1.4142
  179SOPE   C3920459   2.569   2.463   7.784 -0.0655  0.3495  1.0545
  179SOPE   H9X20460   2.640   2.379   7.800 -1.3881 -1.0747 -0.4357
  179SOPE   H9Y20461   2.465   2.426   7.778 -0.3212  1.2601 -0.2319
  179SOPE  C31020462   2.596   2.556   7.905 -0.0876 -0.0363  0.5229
  179SOPE  H10X20463   2.558   2.657   7.879  0.0130  0.1117  0.9412
  179SOPE  H10Y20464   2.707   2.553   7.909  0.0543 -1.1871 -2.7993
  179SOPE  C31120465   2.537   2.503   8.040  0.3382 -0.4238 -0.1091
  179SOPE  H11X20466   2.596   2.415   8.073  1.6477  0.2527 -0.6125
  179SOPE  H11Y20467   2.435   2.467   8.014  0.5049 -1.5052  0.6755
  179SOPE  C31220468   2.527   2.595   8.153  0.0502  0.1207  0.5262
  179SOPE  H12X20469   2.466   2.550   8.235 -1.0462  0.9450  0.1814
  179SOPE  H12Y20470   2.477   2.691   8.130 -0.5429 -0.3022  0.0185
  179SOPE  C31320471   2.662   2.641   8.209  0.4092 -0.0914 -0.1438
  179SOPE  H13X20472   2.665   2.745   8.250  2.1087  0.2973 -1.1815
  179SOPE  H13Y20473   2.723   2.655   8.117 -0.2679 -0.1819 -0.6056
  179SOPE  C31420474   2.730   2.538   8.305  0.8074  0.0259  0.6724
  179SOPE  H14X20475   2.712   2.445   8.247 -1.8100  1.1540 -0.4357
  179SOPE  H14Y20476   2.681   2.527   8.404  3.4582  1.3503  2.1899
  179SOPE  C31520477   2.881   2.567   8.319  0.1658  0.6956  0.7972
  179SOPE  H15X20478   2.932   2.523   8.231 -0.8109 -0.5086  0.8239
  179SOPE  H15Y20479   2.919   2.488   8.388 -1.9027 -0.9713  0.0761
  179SOPE  C31620480   2.919   2.710   8.362 -0.2395  0.2766 -0.4915
  179SOPE  H16X20481   2.876   2.726   8.464  0.1810 -1.8343  0.0500
  179SOPE  H16Y20482   2.867   2.784   8.298  0.0629  0.9809  0.0666
  179SOPE  C31720483   3.071   2.745   8.362  0.7122  0.6111  0.4758
  179SOPE  H17X20484   3.082   2.837   8.425  1.6892  0.6067  0.3188
  179SOPE  H17Y20485   3.099   2.752   8.255 -1.4874 -2.2470 -0.3251
  179SOPE  C31820486   3.149   2.635   8.443  0.4924  0.8607  0.0533
  179SOPE  H18X20487   3.140   2.539   8.387  2.7364  0.2033  0.7567
  179SOPE  H18Y20488   3.103   2.636   8.544  1.5588 -2.4795  0.6417
  179SOPE  H18Z20489   3.255   2.665   8.453  0.5146  0.6193  0.5428
  180SOPE     N20490   1.837   2.169   6.372  0.1409  0.1503  0.8425
  180SOPE   HN120491   1.922   2.192   6.427 -0.6692 -0.4838  2.3744
  180SOPE   HN220492   1.826   2.212   6.278  1.9075  1.7838  1.3266
  180SOPE   HN320493   1.755   2.202   6.426 -2.2066 -0.0444 -2.4541
  180SOPE   C1220494   1.822   2.019   6.383 -0.2446  0.3207  0.3457
  180SOPE  H12A20495   1.845   1.990   6.488  0.5567  1.3689  0.4708
  180SOPE  H12B20496   1.904   1.970   6.326 -0.9099 -0.1338 -0.2202
  180SOPE   C1120497   1.680   1.975   6.331  0.5757  0.0399 -0.0478
  180SOPE  H11A20498   1.656   1.873   6.367 -3.3983  0.7568 -0.3772
  180SOPE  H11B20499   1.676   1.974   6.220 -0.8821 -0.7461  0.0031
  180SOPE     P20500   1.443   2.019   6.406  0.6531 -0.2892 -0.2196
  180SOPE   O1320501   1.399   1.938   6.289 -0.0111 -0.1492 -0.2111
  180SOPE   O1420502   1.362   2.135   6.446  0.3465  0.2745 -0.8349
  180SOPE   O1220503   1.589   2.070   6.385  0.2369  0.1705  0.3210
  180SOPE   O1120504   1.460   1.923   6.532 -0.4224 -0.1101  0.6252
  180SOPE    C120505   1.575   1.941   6.620  0.3519  0.8183 -0.7952
  180SOPE    HA20506   1.616   2.043   6.609  2.5189  0.3392  2.3765
  180SOPE    HB20507   1.654   1.870   6.589 -2.0455 -1.7479 -1.2610
  180SOPE    C220508   1.531   1.933   6.773 -0.0424  0.8356  0.1624
  180SOPE    HS20509   1.624   1.953   6.831 -0.5505  0.1418  1.2210
  180SOPE   O2120510   1.485   1.795   6.796 -0.4255  0.4433  0.1256
  180SOPE   C2120511   1.576   1.700   6.803 -0.7898  0.0030  0.0679
  180SOPE   O2220512   1.698   1.719   6.810 -0.2771 -0.1424 -0.5309
  180SOPE   C2220513   1.513   1.560   6.820  0.0223  0.7151 -0.0910
  180SOPE   H2R20514   1.595   1.491   6.848  0.4207  1.0178 -0.5080
  180SOPE   H2S20515   1.477   1.544   6.715  0.3709 -1.2565  0.0801
  180SOPE    C320516   1.411   2.035   6.803 -0.5587 -0.1161 -0.0771
  180SOPE    HX20517   1.340   2.031   6.717 -0.3428  1.9236 -0.3675
  180SOPE    HY20518   1.464   2.132   6.800 -1.1822  0.2173 -0.5316
  180SOPE   O3120519   1.348   2.028   6.927 -0.1084 -0.1618 -0.0081
  180SOPE   C3120520   1.220   1.997   6.930  0.2320  0.7975  0.5193
  180SOPE   O3220521   1.152   1.947   6.839 -0.0593  0.2407  0.1015
  180SOPE   C3220522   1.171   2.038   7.067  0.8432  0.0673 -0.2072
  180SOPE   H2X20523   1.091   2.113   7.048  2.5029  2.5411  2.1490
  180SOPE   H2Y20524   1.248   2.097   7.122  0.3141 -1.1233  1.8786
  180SOPE   C2320525   1.405   1.570   6.920  0.0233 -0.8698  1.4661
  180SOPE   H3R20526   1.342   1.478   6.911 -1.0014 -0.0527  0.1355
  180SOPE   H3S20527   1.333   1.647   6.886  1.7505  0.1789  0.1345
  180SOPE   C2420528   1.446   1.586   7.070  0.3642  0.1909 -0.1151
  180SOPE   H4R20529   1.530   1.515   7.084 -1.3028 -1.6466  0.7578
  180SOPE   H4S20530   1.493   1.685   7.090 -0.7303  0.9930 -1.3941
  180SOPE   C2520531   1.334   1.546   7.166  0.4540  1.0966 -0.3881
  180SOPE   H5R20532   1.256   1.625   7.171 -1.6392 -0.9187 -0.4084
  180SOPE   H5S20533   1.280   1.454   7.136  1.1427  0.8581 -0.9022
  180SOPE   C2620534   1.378   1.509   7.311  0.4795  0.7496 -0.0798
  180SOPE   H6R20535   1.299   1.463   7.375 -0.0516  2.0558  0.2017
  180SOPE   H6S20536   1.456   1.432   7.292  0.2940  0.4804  0.2573
  180SOPE   C2720537   1.448   1.612   7.396  0.2319  0.4342 -0.2496
  180SOPE   H7R20538   1.521   1.654   7.325  0.3264  1.6285  0.5491
  180SOPE   H7S20539   1.374   1.689   7.425 -0.1747 -0.5025  1.2845
  180SOPE   C2820540   1.504   1.558   7.530 -0.0304 -0.3532 -0.1458
  180SOPE   H8R20541   1.493   1.640   7.605 -0.4490  1.0967 -1.7646
  180SOPE   H8S20542   1.433   1.481   7.568 -0.0510  0.3493  1.3062
  180SOPE   C2920543   1.638   1.503   7.505 -0.1754  0.3051  0.6073
  180SOPE   H9120544   1.648   1.431   7.422 -0.9229  2.2238 -1.2016
  180SOPE  C21020545   1.755   1.549   7.555  0.1809 -0.5077 -0.2236
  180SOPE  H10120546   1.844   1.503   7.510  0.5429  0.8960 -0.9958
  180SOPE  C21120547   1.779   1.661   7.654  0.2540  0.2777 -0.4696
  180SOPE  H11R20548   1.715   1.748   7.630 -0.4361 -0.7845 -2.6250
  180SOPE  H11S20549   1.881   1.702   7.639 -0.6465  2.0211 -2.1365
  180SOPE  C21220550   1.774   1.620   7.806  0.0671 -0.5583  0.1194
  180SOPE  H12R20551   1.827   1.704   7.855 -1.6518  1.9049 -2.0526
  180SOPE  H12S20552   1.829   1.524   7.808  0.2343 -0.5979 -2.9610
  180SOPE  C21320553   1.636   1.594   7.859  0.0736 -0.6609 -0.0007
  180SOPE  H13R20554   1.604   1.488   7.846  2.9419 -1.4776 -0.8357
  180SOPE  H13S20555   1.569   1.657   7.797  2.6979  1.9822 -0.2208
  180SOPE  C21420556   1.615   1.640   8.005 -0.2323 -0.1792  0.4591
  180SOPE  H14R20557   1.513   1.676   8.030  0.9895  2.0020  2.4167
  180SOPE  H14S20558   1.679   1.728   8.024 -1.3808  0.6741  0.4407
  180SOPE  C21520559   1.655   1.530   8.100 -0.4682  0.4797  0.0891
  180SOPE  H15R20560   1.753   1.493   8.064 -0.2446 -0.6422  1.7758
  180SOPE  H15S20561   1.589   1.442   8.083  0.2964 -0.2881  1.0108
  180SOPE  C21620562   1.651   1.573   8.249  0.0320 -0.1307  0.0590
  180SOPE  H16R20563   1.541   1.567   8.262 -0.1568 -0.9573 -1.8049
  180SOPE  H16S20564   1.679   1.680   8.248  0.4631 -0.2424 -1.1960
  180SOPE  C21720565   1.739   1.488   8.342 -0.0161 -0.7138 -0.7041
  180SOPE  H17R20566   1.759   1.541   8.438 -0.1426 -0.3163 -0.8972
  180SOPE  H17S20567   1.838   1.494   8.292 -0.4355  1.7334 -1.3229
  180SOPE  C21820568   1.693   1.346   8.371  0.9420 -0.3734 -0.4289
  180SOPE  H18R20569   1.695   1.297   8.272 -0.1237  0.9986 -1.1498
  180SOPE  H18S20570   1.599   1.341   8.430  1.2570 -0.4442  0.0772
  180SOPE  H18T20571   1.778   1.299   8.426 -0.1619 -0.1534  1.5293
  180SOPE   C3320572   1.125   1.918   7.148  0.2172 -0.2382 -0.4476
  180SOPE   H3X20573   1.206   1.841   7.143 -0.0938 -0.5388 -0.9472
  180SOPE   H3Y20574   1.033   1.883   7.095 -1.1121 -0.8338  2.1881
  180SOPE   C3420575   1.097   1.955   7.294  0.3139 -0.1315  0.0625
  180SOPE   H4X20576   1.029   1.879   7.337  0.7716  0.3532  1.6974
  180SOPE   H4Y20577   1.040   2.049   7.304  1.2859  0.5415 -0.6005
  180SOPE   C3520578   1.218   1.966   7.390  0.1400 -0.3281  0.6395
  180SOPE   H5X20579   1.306   2.030   7.366  1.0169 -0.2893  3.8213
  180SOPE   H5Y20580   1.275   1.870   7.396  2.4508  1.0475  1.2647
  180SOPE   C3620581   1.176   1.989   7.531  0.0594 -0.2485 -0.2102
  180SOPE   H6X20582   1.103   2.072   7.534 -0.6736 -0.8820 -0.3492
  180SOPE   H6Y20583   1.263   2.022   7.591  0.0045  0.2866 -0.4164
  180SOPE   C3720584   1.117   1.862   7.593 -0.0473 -0.3398 -0.3071
  180SOPE   H7X20585   1.197   1.785   7.603  1.6490  1.5559  1.2381
  180SOPE   H7Y20586   1.042   1.825   7.521  0.4470 -0.7635 -0.6058
  180SOPE   C3820587   1.043   1.880   7.722 -0.2331  0.6908  0.2725
  180SOPE   H8X20588   0.971   1.798   7.744  0.1027  0.7838  1.8023
  180SOPE   H8Y20589   0.979   1.970   7.712 -0.2226  0.6598 -0.0838
  180SOPE   C3920590   1.132   1.908   7.850  0.1179 -0.4429  0.6144
  180SOPE   H9X20591   1.202   1.993   7.835 -0.1492 -0.2459  0.4799
  180SOPE   H9Y20592   1.186   1.815   7.877  0.2063 -1.1325 -1.8271
  180SOPE  C31020593   1.048   1.952   7.973 -0.5788  0.7647  0.1860
  180SOPE  H10X20594   0.962   1.882   7.975  1.8836 -2.3232  1.8563
  180SOPE  H10Y20595   1.006   2.052   7.950 -0.6057  0.4413 -1.2271
  180SOPE  C31120596   1.120   1.944   8.105 -0.8776 -0.1072 -0.3206
  180SOPE  H11X20597   1.226   1.975   8.096  0.0080 -2.0836  2.5649
  180SOPE  H11Y20598   1.121   1.839   8.141 -1.4431 -0.5241 -1.4906
  180SOPE  C31220599   1.057   2.025   8.213 -0.6938 -0.2838 -0.1470
  180SOPE  H12X20600   1.054   2.133   8.185  0.2163 -0.2836 -0.2569
  180SOPE  H12Y20601   1.114   2.010   8.307 -2.1830 -0.5897  0.7260
  180SOPE  C31320602   0.908   1.986   8.249 -0.1254  0.9683  1.2623
  180SOPE  H13X20603   0.849   1.983   8.154 -1.2624  0.4682  1.9643
  180SOPE  H13Y20604   0.867   2.074   8.303 -0.8030  0.0090  2.3217
  180SOPE  C31420605   0.890   1.862   8.341  0.2000 -0.3194 -0.0473
  180SOPE  H14X20606   0.790   1.863   8.389 -1.2152 -0.4892 -2.8818
  180SOPE  H14Y20607   0.961   1.861   8.426  1.2439 -2.9043 -0.9102
  180SOPE  C31520608   0.891   1.725   8.272  0.6902 -0.1913 -0.4453
  180SOPE  H15X20609   0.982   1.710   8.210  0.8686  1.8380 -0.7193
  180SOPE  H15Y20610   0.816   1.720   8.190  1.4620  1.4752 -1.2945
  180SOPE  C31620611   0.867   1.609   8.372  0.4068  0.5821  0.1223
  180SOPE  H16X20612   0.775   1.623   8.434  1.0419  1.7903  0.8083
  180SOPE  H16Y20613   0.955   1.598   8.439  2.6943  2.9543 -2.3839
  180SOPE  C31720614   0.865   1.473   8.298  0.5601  0.1268  0.1578
  180SOPE  H17X20615   0.963   1.448   8.250  0.5376 -0.0289  0.1931
  180SOPE  H17Y20616   0.793   1.482   8.214 -1.8420  1.5745  2.3255
  180SOPE  C31820617   0.827   1.360   8.388  0.2640 -0.4786 -0.0303
  180SOPE  H18X20618   0.900   1.331   8.467  0.2104 -0.2140  0.1144
  180SOPE  H18Y20619   0.812   1.276   8.317 -3.4965  0.3692 -0.3828
  180SOPE  H18Z20620   0.729   1.393   8.429  1.6547  3.6209  0.2178
  181SOPE     N20621   0.419   6.253   5.762  0.0605 -0.4350  0.7253
  181SOPE   HN120622   0.397   6.307   5.676 -0.5131  1.1272  1.8268
  181SOPE   HN220623   0.431   6.316   5.844  0.6842 -1.6559  1.5936
  181SOPE   HN320624   0.511   6.205   5.757 -0.1923 -0.8827  0.2905
  181SOPE   C1220625   0.324   6.140   5.789 -0.3798 -1.1601 -0.2247
  181SOPE  H12A20626   0.359   6.050   5.735  2.8022  0.4926 -1.0851
  181SOPE  H12B20627   0.223   6.172   5.756 -0.3486 -0.8239  0.0021
  181SOPE   C1120628   0.313   6.110   5.938  0.0821  0.5641  0.0999
  181SOPE  H11A20629   0.415   6.086   5.976  0.1560 -1.8402 -1.5343
  181SOPE  H11B20630   0.239   6.027   5.942 -0.0269  0.5370 -1.9811
  181SOPE     P20631   0.349   6.317   6.087  0.0673 -0.3505 -0.4386
  181SOPE   O1320632   0.276   6.433   6.134  0.0249 -0.8824  0.6947
  181SOPE   O1420633   0.448   6.372   5.993 -0.2789 -0.2592 -0.4633
  181SOPE   O1220634   0.253   6.214   6.010 -0.4596 -0.1029 -0.1530
  181SOPE   O1120635   0.413   6.236   6.205 -0.5765 -0.4548  0.4807
  181SOPE    C120636   0.332   6.162   6.293  0.8246  0.6198 -0.0563
  181SOPE    HA20637   0.371   6.061   6.316 -2.4074 -0.4080  1.2359
  181SOPE    HB20638   0.238   6.134   6.240  1.9424 -0.3800 -1.5513
  181SOPE    C220639   0.310   6.234   6.432  0.3688 -0.8842 -0.0996
  181SOPE    HS20640   0.279   6.339   6.412 -0.1661 -0.8509  0.8599
  181SOPE   O2120641   0.429   6.214   6.511  0.2004  0.4784 -0.4646
  181SOPE   C2120642   0.481   6.310   6.579 -0.6538  0.4953 -0.0227
  181SOPE   O2220643   0.431   6.421   6.584  0.0484  0.2285 -0.0868
  181SOPE   C2220644   0.608   6.253   6.646 -0.3334 -0.7163  0.7841
  181SOPE   H2R20645   0.688   6.318   6.603 -0.0896 -0.2958  1.8570
  181SOPE   H2S20646   0.624   6.148   6.613 -0.4778 -1.0645  1.8250
  181SOPE    C320647   0.187   6.176   6.498 -0.4475 -0.5435 -0.4567
  181SOPE    HX20648   0.189   6.068   6.525  2.2667 -0.3670  0.1210
  181SOPE    HY20649   0.103   6.175   6.425 -1.2622  0.8590  0.4405
  181SOPE   O3120650   0.143   6.255   6.613  0.3610 -0.3537 -0.6721
  181SOPE   C3120651   0.092   6.376   6.594  0.3867  0.3568 -0.1821
  181SOPE   O3220652   0.076   6.434   6.482  0.0778  0.7474 -0.3186
  181SOPE   C3220653   0.060   6.441   6.731  0.4717  0.2908 -0.5144
  181SOPE   H2X20654   0.137   6.409   6.804  1.3933  1.6286 -0.8876
  181SOPE   H2Y20655  -0.042   6.409   6.763  1.4442  0.1321  2.5477
  181SOPE   C2320656   0.609   6.248   6.799 -0.4226  0.1691 -1.1571
  181SOPE   H3R20657   0.540   6.325   6.841  0.1110  0.0800 -0.1020
  181SOPE   H3S20658   0.715   6.259   6.829 -0.2450 -2.0361 -0.8865
  181SOPE   C2420659   0.561   6.111   6.861 -0.2084 -0.7665 -0.4330
  181SOPE   H4R20660   0.631   6.034   6.821  0.9745  0.0541  0.0154
  181SOPE   H4S20661   0.573   6.133   6.969 -1.9170  1.2096 -0.6322
  181SOPE   C2520662   0.415   6.079   6.824 -0.8905  0.1775  0.6068
  181SOPE   H5R20663   0.404   6.063   6.714 -0.7995  2.6810  0.2004
  181SOPE   H5S20664   0.382   5.983   6.868 -1.4656 -0.9619 -2.1775
  181SOPE   C2620665   0.314   6.192   6.875 -0.9602  0.2111  0.2139
  181SOPE   H6R20666   0.338   6.294   6.837  1.9750 -0.4770  0.1087
  181SOPE   H6S20667   0.217   6.163   6.830  0.0708 -0.8067 -1.4495
  181SOPE   C2720668   0.307   6.194   7.029 -0.2218  0.3198  0.4234
  181SOPE   H7R20669   0.280   6.099   7.079  0.7924 -0.1779  0.0481
  181SOPE   H7S20670   0.411   6.222   7.059 -0.9954  2.5805  1.1077
  181SOPE   C2820671   0.216   6.314   7.076 -0.5581 -0.0951  0.2462
  181SOPE   H8R20672   0.262   6.343   7.173 -0.0488  0.4433 -0.1569
  181SOPE   H8S20673   0.220   6.397   7.002 -0.9289 -1.9508 -1.9118
  181SOPE   C2920674   0.068   6.286   7.103 -0.7112  0.0391  0.1778
  181SOPE   H9120675   0.006   6.299   7.013  2.0744  0.4039 -1.7975
  181SOPE  C21020676   0.016   6.243   7.220 -0.7249  0.6221  0.0428
  181SOPE  H10120677  -0.090   6.215   7.229 -0.6209  0.3852  0.5401
  181SOPE  C21120678   0.098   6.212   7.347  0.6928  0.1295 -0.2122
  181SOPE  H11R20679   0.207   6.205   7.327  0.4074  0.6497 -2.0005
  181SOPE  H11S20680   0.064   6.116   7.393 -1.2612  0.3940 -1.0407
  181SOPE  C21220681   0.086   6.316   7.462  0.4582  0.9214 -0.2817
  181SOPE  H12R20682   0.145   6.408   7.438 -0.6815  2.3794  2.2775
  181SOPE  H12S20683   0.140   6.288   7.555  1.2974  2.3369 -0.3158
  181SOPE  C21320684  -0.060   6.363   7.498 -0.0936 -0.8054 -0.2829
  181SOPE  H13R20685  -0.118   6.269   7.508 -0.7942 -0.5995 -2.2596
  181SOPE  H13S20686  -0.109   6.412   7.411  0.6004  3.1104  1.4131
  181SOPE  C21420687  -0.068   6.444   7.624  0.1000 -0.4960 -0.1724
  181SOPE  H14R20688  -0.171   6.477   7.646  0.1382 -1.0859  0.9665
  181SOPE  H14S20689  -0.019   6.542   7.609 -1.7459  1.0721  3.4293
  181SOPE  C21520690  -0.028   6.382   7.760 -0.0674 -0.3831  0.1672
  181SOPE  H15R20691  -0.073   6.452   7.834 -1.8126  0.1007 -1.3043
  181SOPE  H15S20692   0.081   6.398   7.769  0.1915 -2.0005  0.0251
  181SOPE  C21620693  -0.075   6.234   7.799  0.1806  1.0272  0.2166
  181SOPE  H16R20694  -0.057   6.211   7.906 -0.9162 -0.7609  0.0265
  181SOPE  H16S20695  -0.014   6.162   7.741 -0.6307  0.1859  0.4080
  181SOPE  C21720696  -0.223   6.201   7.771  0.1974 -0.4434  0.0915
  181SOPE  H17R20697  -0.241   6.093   7.784 -0.4688 -0.4075 -0.5585
  181SOPE  H17S20698  -0.235   6.225   7.663 -3.2133 -0.6806  0.3705
  181SOPE  C21820699  -0.327   6.278   7.853  0.2729  0.7119  0.2119
  181SOPE  H18R20700  -0.319   6.389   7.860 -3.4598  1.1038 -0.7320
  181SOPE  H18S20701  -0.319   6.259   7.962  0.4773 -0.5349 -0.0156
  181SOPE  H18T20702  -0.433   6.253   7.829 -0.0102 -0.9326  3.0298
  181SOPE   C3320703   0.044   6.598   6.721 -0.7972 -0.0574  0.6949
  181SOPE   H3X20704  -0.024   6.634   6.800 -2.7862 -0.5630 -0.7580
  181SOPE   H3Y20705  -0.015   6.618   6.629  2.3687  1.4708 -1.1036
  181SOPE   C3420706   0.171   6.682   6.708 -0.0244 -0.2024 -0.4456
  181SOPE   H4X20707   0.154   6.783   6.665 -1.5726 -0.2793 -0.0247
  181SOPE   H4Y20708   0.252   6.640   6.644  1.5345  0.0096  1.3350
  181SOPE   C3520709   0.232   6.686   6.852  0.6564 -0.0985  0.6577
  181SOPE   H5X20710   0.175   6.616   6.916  0.0941  0.1246  0.3990
  181SOPE   H5Y20711   0.220   6.788   6.894  1.9601  0.8171 -1.1010
  181SOPE   C3620712   0.384   6.644   6.850  0.2682 -0.7744 -0.3367
  181SOPE   H6X20713   0.440   6.712   6.783  0.5035  0.1464  0.7752
  181SOPE   H6Y20714   0.390   6.545   6.799  0.2288 -1.9111  1.7987
  181SOPE   C3720715   0.444   6.628   6.988 -0.5129 -0.9654 -0.2365
  181SOPE   H7X20716   0.404   6.533   7.030  0.2605 -1.5973 -0.9070
  181SOPE   H7Y20717   0.392   6.711   7.041 -0.9505 -1.9004  0.8454
  181SOPE   C3820718   0.596   6.621   6.984 -0.3735  0.1622 -0.0403
  181SOPE   H8X20719   0.626   6.708   6.920  2.2348 -0.7672 -0.1458
  181SOPE   H8Y20720   0.637   6.536   6.925 -2.1552 -0.3289 -0.5931
  181SOPE   C3920721   0.660   6.613   7.124 -0.2598  0.3120  0.1125
  181SOPE   H9X20722   0.603   6.691   7.178 -1.0943  0.1788 -0.5563
  181SOPE   H9Y20723   0.764   6.651   7.116 -0.7337  1.7071  0.4322
  181SOPE  C31020724   0.661   6.476   7.194 -0.5196  0.5781  0.1955
  181SOPE  H10X20725   0.768   6.449   7.210  0.0470  1.7482 -1.5259
  181SOPE  H10Y20726   0.616   6.407   7.119  0.5897  0.1981 -0.1305
  181SOPE  C31120727   0.591   6.465   7.334  0.3360 -0.2801  0.2255
  181SOPE  H11X20728   0.498   6.524   7.320  0.0067 -0.6598  0.7980
  181SOPE  H11Y20729   0.657   6.508   7.412  1.2011 -2.2335  0.5864
  181SOPE  C31220730   0.534   6.325   7.378  0.0984  0.1852 -0.4355
  181SOPE  H12X20731   0.624   6.271   7.413  0.9041  1.3613 -0.6296
  181SOPE  H12Y20732   0.492   6.266   7.295 -0.3085  1.5879 -1.2368
  181SOPE  C31320733   0.438   6.329   7.493  0.4051  0.2578 -0.0074
  181SOPE  H13X20734   0.419   6.226   7.528  0.3194  0.4054  0.3831
  181SOPE  H13Y20735   0.348   6.388   7.463  0.8135  0.8980  0.0060
  181SOPE  C31420736   0.485   6.413   7.618  0.1613  0.4981 -0.0723
  181SOPE  H14X20737   0.491   6.521   7.591 -1.2378  0.9371  1.3268
  181SOPE  H14Y20738   0.585   6.380   7.651 -0.1197 -2.2114 -1.7658
  181SOPE  C31520739   0.394   6.400   7.747 -0.1922  0.1082 -0.3611
  181SOPE  H15X20740   0.374   6.292   7.762  0.7126 -0.1188 -0.7346
  181SOPE  H15Y20741   0.298   6.455   7.735  0.6936  1.6050 -0.7121
  181SOPE  C31620742   0.465   6.460   7.867 -0.4906  0.1241  0.3270
  181SOPE  H16X20743   0.496   6.561   7.833 -1.4443  0.0088 -0.9172
  181SOPE  H16Y20744   0.552   6.400   7.901  1.1763  1.4981 -1.4165
  181SOPE  C31720745   0.363   6.475   7.979 -0.5856  0.2880 -0.2464
  181SOPE  H17X20746   0.329   6.372   8.000  2.0287 -0.8157 -1.2151
  181SOPE  H17Y20747   0.279   6.529   7.930 -0.6872  0.4111  0.0634
  181SOPE  C31820748   0.430   6.545   8.092 -0.4097  0.0324 -0.0882
  181SOPE  H18X20749   0.358   6.586   8.166 -1.1281  0.4560 -0.9961
  181SOPE  H18Y20750   0.484   6.637   8.059 -0.9038  0.0072 -0.9788
  181SOPE  H18Z20751   0.508   6.483   8.141 -2.5391 -1.9761  0.7998
  182SOPE     N20752   1.238   1.511   6.471  0.0800 -0.0589  0.0623
  182SOPE   HN120753   1.146   1.463   6.479 -0.2323  0.1023 -2.1967
  182SOPE   HN220754   1.314   1.461   6.521 -0.5927 -1.1945 -0.0330
  182SOPE   HN320755   1.245   1.605   6.514 -1.3375  0.4152 -0.7128
  182SOPE   C1220756   1.270   1.529   6.325  0.0991 -0.1288  0.4767
  182SOPE  H12A20757   1.198   1.605   6.287 -1.1058 -0.5560  1.8803
  182SOPE  H12B20758   1.272   1.426   6.284 -0.2495  1.2733 -3.3205
  182SOPE   C1120759   1.408   1.594   6.326 -0.4320  0.3458  0.5025
  182SOPE  H11A20760   1.390   1.690   6.379 -1.0707 -0.8418  2.4698
  182SOPE  H11B20761   1.439   1.623   6.223 -2.0096  1.4791  0.3193
  182SOPE     P20762   1.652   1.535   6.401 -0.4335  0.0877 -0.0099
  182SOPE   O1320763   1.727   1.560   6.525 -0.2231  0.2701 -0.1665
  182SOPE   O1420764   1.689   1.611   6.284 -0.0736  0.6416  0.0565
  182SOPE   O1220765   1.496   1.520   6.414 -0.0852  0.3582  0.0963
  182SOPE   O1120766   1.669   1.379   6.372 -1.3010 -0.1382  0.0501
  182SOPE    C120767   1.713   1.290   6.473 -0.2172 -1.2109 -0.4469
  182SOPE    HA20768   1.816   1.318   6.505 -0.4497  0.3803 -1.0663
  182SOPE    HB20769   1.727   1.188   6.431 -1.2631 -2.2774  1.7241
  182SOPE    C220770   1.611   1.261   6.587  0.9393  0.3047  0.8558
  182SOPE    HS20771   1.563   1.346   6.640 -0.5384 -0.9127  1.5076
  182SOPE   O2120772   1.670   1.164   6.678  0.5870 -0.1639 -0.0778
  182SOPE   C2120773   1.742   1.226   6.771  0.6304  0.0136 -0.3404
  182SOPE   O2220774   1.796   1.335   6.761  0.0277  0.2424  0.8180
  182SOPE   C2220775   1.742   1.145   6.900 -0.0075  0.1260  0.1506
  182SOPE   H2R20776   1.827   1.186   6.958  1.1924 -0.2068 -1.3517
  182SOPE   H2S20777   1.774   1.043   6.873 -1.0024 -0.6391  1.7685
  182SOPE    C320778   1.484   1.187   6.528  0.8785  0.0286  0.2483
  182SOPE    HX20779   1.535   1.106   6.471 -0.5559 -2.4609  2.3970
  182SOPE    HY20780   1.438   1.253   6.451  0.4799 -0.5776 -0.0374
  182SOPE   O3120781   1.388   1.130   6.623 -0.0993 -0.2522 -0.7783
  182SOPE   C3120782   1.300   1.213   6.685  0.3298  0.8341  0.0545
  182SOPE   O3220783   1.296   1.332   6.665 -0.0390 -1.0085 -0.0097
  182SOPE   C3220784   1.222   1.129   6.790  0.1083  0.9647  0.1220
  182SOPE   H2X20785   1.286   1.102   6.876 -1.2258  0.7384  1.0503
  182SOPE   H2Y20786   1.184   1.031   6.753  0.3604  0.7531  0.4212
  182SOPE   C2320787   1.607   1.145   6.979  0.0352 -0.3594  0.8568
  182SOPE   H3R20788   1.533   1.079   6.929  2.0023 -3.0514  1.3161
  182SOPE   H3S20789   1.565   1.247   6.984  0.8284 -0.0705  1.7736
  182SOPE   C2420790   1.643   1.091   7.114  0.5398 -0.0369 -0.7294
  182SOPE   H4R20791   1.709   1.002   7.110 -1.5611 -1.6379 -0.7022
  182SOPE   H4S20792   1.709   1.165   7.164  0.5357 -1.2847  1.2093
  182SOPE   C2520793   1.514   1.063   7.199  0.9435  0.5806 -0.0270
  182SOPE   H5R20794   1.455   1.157   7.206  1.2295  0.8955 -1.6756
  182SOPE   H5S20795   1.460   0.985   7.142  1.5372 -0.7473  1.2041
  182SOPE   C2620796   1.540   1.011   7.346 -0.2883  0.2248 -0.5900
  182SOPE   H6R20797   1.452   0.950   7.377  0.8328 -0.2592  1.7185
  182SOPE   H6S20798   1.626   0.941   7.334 -1.4953 -1.5986  1.1040
  182SOPE   C2720799   1.576   1.117   7.442 -0.3729 -0.2149  0.1952
  182SOPE   H7R20800   1.664   1.176   7.407 -2.1140  2.4930  0.2269
  182SOPE   H7S20801   1.498   1.194   7.424  0.8378  1.0320  0.1579
  182SOPE   C2820802   1.581   1.059   7.582  0.0776  1.0110  0.0500
  182SOPE   H8R20803   1.479   1.033   7.619  0.4610 -0.5690  0.0580
  182SOPE   H8S20804   1.634   0.962   7.575  0.5718  1.3011 -0.2472
  182SOPE   C2920805   1.642   1.160   7.673  0.5515  0.4896  0.8708
  182SOPE   H9120806   1.743   1.179   7.633  0.8776 -1.4860  0.6973
  182SOPE  C21020807   1.601   1.205   7.789 -0.4488 -0.0321  0.5487
  182SOPE  H10120808   1.647   1.298   7.824 -1.1413  0.4914  0.0665
  182SOPE  C21120809   1.470   1.164   7.862 -0.7060  0.1496  0.3744
  182SOPE  H11R20810   1.449   1.056   7.849  1.2788  0.0131 -2.1934
  182SOPE  H11S20811   1.385   1.213   7.811 -1.1657  0.2737  1.2468
  182SOPE  C21220812   1.468   1.201   8.009  1.0299  0.1611 -0.1041
  182SOPE  H12R20813   1.467   1.312   8.016 -2.4758  0.2019 -0.1067
  182SOPE  H12S20814   1.561   1.163   8.057  0.7219 -1.8329 -1.0230
  182SOPE  C21320815   1.351   1.135   8.089 -0.6050  0.9008 -0.0502
  182SOPE  H13R20816   1.351   1.027   8.064  1.3954  0.7770  0.3720
  182SOPE  H13S20817   1.248   1.166   8.064 -0.2754  1.6828 -0.4562
  182SOPE  C21420818   1.375   1.155   8.240 -0.3450 -0.1854  0.0433
  182SOPE  H14R20819   1.369   1.265   8.255  0.6238 -0.2136  0.7419
  182SOPE  H14S20820   1.477   1.120   8.268 -1.6810 -2.3576  2.4160
  182SOPE  C21520821   1.278   1.081   8.329 -0.2805  0.3622 -0.5538
  182SOPE  H15R20822   1.296   0.976   8.298  0.2833  0.2701  0.0717
  182SOPE  H15S20823   1.177   1.107   8.291  0.4947  2.6531 -1.1477
  182SOPE  C21620824   1.320   1.102   8.473 -0.5492 -0.2855  0.1676
  182SOPE  H16R20825   1.332   1.210   8.499 -1.8105  0.1414 -0.9424
  182SOPE  H16S20826   1.417   1.050   8.483 -0.8345 -0.5273  1.7373
  182SOPE  C21720827   1.222   1.050   8.585  0.6721 -0.6825  0.8782
  182SOPE  H17R20828   1.260   1.060   8.689 -0.9033  0.8179  1.3419
  182SOPE  H17S20829   1.194   0.945   8.561 -1.5398  0.7574 -3.3383
  182SOPE  C21820830   1.093   1.135   8.591  0.9170 -0.2586  0.1423
  182SOPE  H18R20831   1.030   1.101   8.507 -0.8523  2.2204  0.4276
  182SOPE  H18S20832   1.118   1.240   8.565  0.9612 -0.2508  0.2152
  182SOPE  H18T20833   1.021   1.128   8.676 -0.3438  0.2997 -0.8614
  182SOPE   C3320834   1.111   1.217   6.850 -0.4021  0.3997  0.2712
  182SOPE   H3X20835   1.035   1.235   6.771  0.8053  0.2275 -0.9514
  182SOPE   H3Y20836   1.142   1.320   6.877 -1.8460  1.2188 -1.0398
  182SOPE   C3420837   1.045   1.159   6.979  0.2304 -0.1364 -0.0669
  182SOPE   H4X20838   1.006   1.063   6.938  4.2004 -0.9990 -2.0165
  182SOPE   H4Y20839   0.958   1.221   7.007 -1.0519 -1.5554 -0.8226
  182SOPE   C3520840   1.143   1.149   7.096  0.2654 -0.0820 -0.2126
  182SOPE   H5X20841   1.208   1.239   7.103 -0.8320  0.8076 -1.2084
  182SOPE   H5Y20842   1.214   1.066   7.072  0.4193 -0.1322  0.4255
  182SOPE   C3620843   1.077   1.114   7.226 -0.2237 -0.1530  0.4237
  182SOPE   H6X20844   1.010   1.026   7.210 -1.5775  0.8053  0.7383
  182SOPE   H6Y20845   1.011   1.197   7.259 -0.7441  0.0996 -1.2165
  182SOPE   C3720846   1.169   1.078   7.341 -1.2938  0.5718 -0.5109
  182SOPE   H7X20847   1.230   1.170   7.362 -1.6950  0.4821  1.1473
  182SOPE   H7Y20848   1.216   0.981   7.315 -0.2214 -0.0160  3.3562
  182SOPE   C3820849   1.090   1.051   7.470  0.0773 -0.0325 -0.4859
  182SOPE   H8X20850   1.029   0.961   7.452  0.5717 -0.6521  0.9042
  182SOPE   H8Y20851   1.043   1.147   7.500  0.3940  0.0472 -0.2403
  182SOPE   C3920852   1.188   1.014   7.580  0.2448  0.8554  0.3540
  182SOPE   H9X20853   1.239   1.110   7.604  0.4561  1.1096 -1.0521
  182SOPE   H9Y20854   1.263   0.943   7.540  0.1529  0.4694  0.8603
  182SOPE  C31020855   1.120   0.954   7.696  0.0413 -0.1298 -0.1186
  182SOPE  H10X20856   1.191   0.948   7.781 -0.7304 -1.1519  0.4627
  182SOPE  H10Y20857   1.092   0.848   7.680  2.2851 -0.7324 -0.2607
  182SOPE  C31120858   1.001   1.036   7.748  0.3725  0.0159 -0.3025
  182SOPE  H11X20859   0.934   1.038   7.660  0.9287  1.4857 -0.7087
  182SOPE  H11Y20860   1.026   1.141   7.774 -2.5129  0.4399  0.9588
  182SOPE  C31220861   0.927   0.975   7.866 -0.1005  0.1351 -0.3154
  182SOPE  H12X20862   0.982   0.964   7.962 -1.1894  2.5547  0.6362
  182SOPE  H12Y20863   0.887   0.876   7.836  0.3112  0.2054 -1.1184
  182SOPE  C31320864   0.799   1.057   7.897  1.0858  0.6537 -0.6608
  182SOPE  H13X20865   0.730   1.064   7.810 -1.8034  0.7614  1.5418
  182SOPE  H13Y20866   0.824   1.161   7.924  1.2424  0.5543 -0.4204
  182SOPE  C31420867   0.726   0.995   8.025 -0.3645  0.5242  0.3019
  182SOPE  H14X20868   0.788   1.001   8.117  0.1734  0.0053 -0.0194
  182SOPE  H14Y20869   0.697   0.894   7.990  0.6900  0.5277 -0.6045
  182SOPE  C31520870   0.612   1.086   8.068 -0.4669  0.1822  0.3982
  182SOPE  H15X20871   0.528   1.083   7.995 -0.5238 -2.2006  0.5205
  182SOPE  H15Y20872   0.647   1.192   8.065 -1.5595  0.5089 -1.4480
  182SOPE  C31620873   0.553   1.042   8.203 -0.1913  0.2728 -0.0805
  182SOPE  H16X20874   0.524   1.137   8.252  1.9655  1.1784 -0.4818
  182SOPE  H16Y20875   0.634   1.003   8.268  0.8304 -0.4674 -1.7494
  182SOPE  C31720876   0.442   0.939   8.194 -0.1736 -0.1013  0.7049
  182SOPE  H17X20877   0.495   0.842   8.184 -0.0307  0.1778 -1.5336
  182SOPE  H17Y20878   0.377   0.960   8.106 -1.2788 -2.5891  0.9014
  182SOPE  C31820879   0.362   0.927   8.323 -0.0545 -0.3600 -0.1629
  182SOPE  H18X20880   0.432   0.910   8.407  0.1583  0.1088 -0.2463
  182SOPE  H18Y20881   0.295   0.839   8.314  1.5776 -1.3113 -3.9700
  182SOPE  H18Z20882   0.302   1.019   8.340 -0.3612 -0.5495 -0.2108
  183SOPE     N20883   3.787   6.125   6.329  0.4823  0.0056  0.0740
  183SOPE   HN120884   3.882   6.128   6.285  0.4610  0.8642  0.0876
  183SOPE   HN220885   3.766   6.201   6.396  0.0850  0.6816 -0.8113
  183SOPE   HN320886   3.787   6.036   6.383 -0.2340  0.3407  0.6294
  183SOPE   C1220887   3.686   6.124   6.219 -0.1132 -0.4871 -0.2079
  183SOPE  H12A20888   3.708   6.050   6.140 -1.7143 -1.0348 -0.1505
  183SOPE  H12B20889   3.686   6.225   6.172 -0.0538  0.4852  1.8317
  183SOPE   C1120890   3.545   6.088   6.266 -0.2847  0.0220 -0.2242
  183SOPE  H11A20891   3.480   6.103   6.177  0.5128 -2.8584 -1.3210
  183SOPE  H11B20892   3.518   6.156   6.350 -0.3166 -0.8270  0.4519
  183SOPE     P20893   3.472   5.832   6.269  0.7674  0.2333 -0.2175
  183SOPE   O1320894   3.518   5.783   6.140  0.2964  0.2228 -0.8565
  183SOPE   O1420895   3.326   5.862   6.281  0.1760  0.2003  0.0547
  183SOPE   O1220896   3.554   5.958   6.320 -0.4486 -0.4612  0.2168
  183SOPE   O1120897   3.501   5.717   6.378 -0.1912  0.1273 -0.1529
  183SOPE    C120898   3.610   5.716   6.472  0.0809 -0.3113 -1.2840
  183SOPE    HA20899   3.701   5.752   6.421  0.7443 -1.2283 -0.7674
  183SOPE    HB20900   3.633   5.614   6.509 -0.9667  0.0510  0.4281
  183SOPE    C220901   3.582   5.818   6.594  0.2663 -0.4395  0.4349
  183SOPE    HS20902   3.595   5.921   6.556 -0.0335  0.2580  2.1898
  183SOPE   O2120903   3.677   5.781   6.692 -0.3434  0.1219 -0.2348
  183SOPE   C2120904   3.717   5.897   6.757  0.5455 -0.2027  0.2510
  183SOPE   O2220905   3.683   6.011   6.734  0.7608 -0.1288 -0.3202
  183SOPE   C2220906   3.825   5.864   6.858 -0.4452  0.6197 -0.2404
  183SOPE   H2R20907   3.916   5.918   6.825  2.1919 -1.9077  2.5060
  183SOPE   H2S20908   3.834   5.753   6.860  0.2020  0.6327 -2.0907
  183SOPE    C320909   3.428   5.805   6.643  0.8392 -0.0234 -0.3985
  183SOPE    HX20910   3.413   5.695   6.653 -1.0303  0.3629  1.3551
  183SOPE    HY20911   3.360   5.820   6.556 -1.0076 -0.3467  0.9545
  183SOPE   O3120912   3.386   5.866   6.772 -0.1054 -0.7771  0.0248
  183SOPE   C3120913   3.349   5.991   6.749  0.3079 -0.2573  0.5887
  183SOPE   O3220914   3.329   6.041   6.640 -0.6961  0.5170 -0.7866
  183SOPE   C3220915   3.350   6.070   6.881 -0.1927  0.4961  0.4325
  183SOPE   H2X20916   3.355   6.174   6.843  1.7242  1.0115  1.9724
  183SOPE   H2Y20917   3.440   6.051   6.944  0.1077  0.9203  0.1310
  183SOPE   C2320918   3.782   5.919   6.993  0.0591 -1.1284 -0.6349
  183SOPE   H3R20919   3.783   6.030   6.990 -3.5212 -1.0798 -1.8057
  183SOPE   H3S20920   3.866   5.896   7.062 -0.0101  0.7206  0.0888
  183SOPE   C2420921   3.652   5.865   7.053  0.0925  0.1496  0.1948
  183SOPE   H4R20922   3.582   5.857   6.968 -2.0317  1.3379  1.7917
  183SOPE   H4S20923   3.669   5.759   7.078  3.4389  0.1390 -1.6900
  183SOPE   C2520924   3.580   5.954   7.156 -0.6872  0.3663  0.2716
  183SOPE   H5R20925   3.567   6.060   7.124  2.4239  1.1140  1.2485
  183SOPE   H5S20926   3.479   5.909   7.160 -1.6232  2.1790 -1.4825
  183SOPE   C2620927   3.647   5.954   7.295 -0.3556  0.6361 -0.4858
  183SOPE   H6R20928   3.663   5.848   7.322  0.4721  0.5691 -1.2118
  183SOPE   H6S20929   3.742   6.010   7.282 -0.3638  0.3110 -1.9789
  183SOPE   C2720930   3.568   6.024   7.401 -0.0844 -0.3083 -1.1466
  183SOPE   H7R20931   3.505   6.105   7.357 -0.8887 -0.0108  0.5053
  183SOPE   H7S20932   3.499   5.945   7.436 -0.9994  1.3241  0.8494
  183SOPE   C2820933   3.654   6.074   7.518 -1.0127  0.2608  0.3193
  183SOPE   H8R20934   3.714   6.157   7.475  2.7402 -2.2770  0.4648
  183SOPE   H8S20935   3.591   6.137   7.586 -0.3828  0.8423  0.3727
  183SOPE   C2920936   3.730   5.957   7.588 -0.3511 -0.2993 -0.6141
  183SOPE   H9120937   3.808   5.913   7.525  1.1116  1.9084 -0.3903
  183SOPE  C21020938   3.720   5.908   7.709 -0.1614 -0.3477 -0.1431
  183SOPE  H10120939   3.783   5.820   7.733  0.6684 -0.3654 -2.2450
  183SOPE  C21120940   3.619   5.955   7.805  0.5616 -0.3152  0.1828
  183SOPE  H11R20941   3.564   5.877   7.862 -0.8427  0.2107 -0.4207
  183SOPE  H11S20942   3.535   6.007   7.753  0.6835  1.0694  1.3525
  183SOPE  C21220943   3.687   6.050   7.898  0.2875 -0.0310 -0.3213
  183SOPE  H12R20944   3.736   6.128   7.836  2.0881  1.4323  2.7838
  183SOPE  H12S20945   3.758   5.996   7.964  0.5762 -0.7124 -1.1908
  183SOPE  C21320946   3.585   6.117   7.992 -0.2672  0.1768 -0.1139
  183SOPE  H13R20947   3.508   6.040   8.014 -0.1076  0.1142  0.2309
  183SOPE  H13S20948   3.528   6.194   7.937 -0.7466 -0.0833  0.0229
  183SOPE  C21420949   3.640   6.179   8.119 -0.3041 -0.5789 -0.0044
  183SOPE  H14R20950   3.722   6.245   8.084 -1.9990  0.5197 -1.9391
  183SOPE  H14S20951   3.681   6.102   8.188  0.6795 -0.6598 -0.6782
  183SOPE  C21520952   3.531   6.264   8.195  0.0754  0.1749  0.3340
  183SOPE  H15R20953   3.466   6.211   8.268  0.6810 -0.1423  0.6470
  183SOPE  H15S20954   3.466   6.323   8.128  2.4521  1.8964 -0.5059
  183SOPE  C21620955   3.606   6.380   8.274  0.1149  0.1169 -0.0275
  183SOPE  H16R20956   3.698   6.400   8.217 -0.1031  0.1787 -0.3588
  183SOPE  H16S20957   3.632   6.354   8.379  0.2253 -0.1084 -0.1117
  183SOPE  C21720958   3.533   6.518   8.275  0.0675  0.2257  0.0581
  183SOPE  H17R20959   3.531   6.556   8.171  2.1946  1.9177  0.6049
  183SOPE  H17S20960   3.603   6.583   8.331 -0.6649  0.7392  0.3928
  183SOPE  C21820961   3.393   6.509   8.338  0.5109 -0.0773 -0.3650
  183SOPE  H18R20962   3.404   6.456   8.435  2.4902 -0.8523 -0.9889
  183SOPE  H18S20963   3.315   6.456   8.280 -1.3137 -0.5048  2.3751
  183SOPE  H18T20964   3.363   6.615   8.354  1.1300  0.2157 -1.1164
  183SOPE   C3320965   3.233   6.036   6.976  0.4995 -0.1613 -0.0310
  183SOPE   H3X20966   3.248   5.933   7.014  0.7835 -0.8069 -1.8122
  183SOPE   H3Y20967   3.137   6.030   6.921 -0.8840  0.4826  2.2844
  183SOPE   C3420968   3.232   6.133   7.099  0.9162 -0.2527  0.2381
  183SOPE   H4X20969   3.194   6.230   7.061  1.7965 -0.3815 -0.9957
  183SOPE   H4Y20970   3.337   6.136   7.132  0.8079 -0.6343  0.6293
  183SOPE   C3520971   3.154   6.078   7.220  0.3530 -0.7701  0.7365
  183SOPE   H5X20972   3.178   5.973   7.247 -1.6894 -1.1969  0.9513
  183SOPE   H5Y20973   3.046   6.075   7.194 -0.1204 -0.0770  2.5592
  183SOPE   C3620974   3.193   6.145   7.347  0.0695  0.8039 -0.4144
  183SOPE   H6X20975   3.160   6.251   7.350 -0.3988  0.6187  1.9455
  183SOPE   H6Y20976   3.304   6.146   7.356  0.0955 -1.0149 -0.4165
  183SOPE   C3720977   3.151   6.074   7.469  0.3469 -0.4956  0.3196
  183SOPE   H7X20978   3.167   5.965   7.462  0.4572 -0.3184 -2.5341
  183SOPE   H7Y20979   3.042   6.085   7.488  0.0212  0.7753 -2.0472
  183SOPE   C3820980   3.218   6.124   7.594 -0.3805 -0.1809  0.4801
  183SOPE   H8X20981   3.190   6.229   7.614 -1.0114 -0.3057  0.2673
  183SOPE   H8Y20982   3.328   6.122   7.587 -0.3338 -4.2136  0.8770
  183SOPE   C3920983   3.163   6.049   7.720  0.2030  0.0289 -0.4867
  183SOPE   H9X20984   3.198   5.944   7.705  1.2702  0.3113 -0.0588
  183SOPE   H9Y20985   3.052   6.044   7.721  0.1648  0.9344 -0.2167
  183SOPE  C31020986   3.195   6.114   7.852  0.0176 -0.8785  0.6805
  183SOPE  H10X20987   3.158   6.217   7.871  1.7001 -0.1861  0.3348
  183SOPE  H10Y20988   3.306   6.117   7.849  0.0447 -2.6629 -0.9945
  183SOPE  C31120989   3.157   6.021   7.967  0.5459 -0.2931  0.3283
  183SOPE  H11X20990   3.230   5.937   7.963  0.1505 -0.6972  1.4564
  183SOPE  H11Y20991   3.055   5.980   7.955  0.4804 -0.1769  0.4944
  183SOPE  C31220992   3.174   6.101   8.101 -0.4056  0.7182  0.2439
  183SOPE  H12X20993   3.103   6.186   8.095 -4.0340 -2.1581  0.6347
  183SOPE  H12Y20994   3.278   6.142   8.097 -0.8976  1.8097 -1.9491
  183SOPE  C31320995   3.144   6.017   8.230 -0.6148  0.5270 -0.0328
  183SOPE  H13X20996   3.225   5.941   8.221 -0.7421  0.5232 -1.2252
  183SOPE  H13Y20997   3.045   5.967   8.234 -0.0269 -0.5630  2.1521
  183SOPE  C31420998   3.157   6.087   8.366 -0.5918  0.6776 -0.3550
  183SOPE  H14X20999   3.080   6.167   8.367  0.8871  2.1226  1.7614
  183SOPE  H14Y21000   3.246   6.153   8.368  1.6931 -2.2535 -1.2776
  183SOPE  C31521001   3.137   5.983   8.480 -0.7107 -0.0396  0.7636
  183SOPE  H15X21002   3.216   5.906   8.471 -0.9842 -0.2065 -0.3735
  183SOPE  H15Y21003   3.039   5.932   8.471  0.0018 -1.2807 -0.0624
  183SOPE  C31621004   3.150   6.051   8.619 -0.4346  0.5901 -0.0234
  183SOPE  H16X21005   3.062   6.118   8.628  0.1900  1.3182  0.7476
  183SOPE  H16Y21006   3.243   6.109   8.635  1.0768 -1.2695 -1.9488
  183SOPE  C31721007   3.150   5.946   8.734  0.3081  0.0892  1.1855
  183SOPE  H17X21008   3.227   5.871   8.706  0.7078  0.8596  0.2043
  183SOPE  H17Y21009   3.058   5.885   8.740  1.0763 -0.9844  2.2250
  183SOPE  C31821010   3.195   5.999   8.877  1.0170 -0.3735  0.2899
  183SOPE  H18X21011   3.297   6.044   8.873  0.7046  0.2048 -1.5677
  183SOPE  H18Y21012   3.206   5.923   8.957 -3.1770 -0.2460  1.0743
  183SOPE  H18Z21013   3.124   6.076   8.913 -1.4508 -0.9323 -3.1400
  184SOPE     N21014   3.236   6.767   6.223 -0.1146  0.2012  0.2861
  184SOPE   HN121015   3.322   6.824   6.211 -0.9289  0.9400 -2.4456
  184SOPE   HN221016   3.155   6.827   6.250  0.0208 -0.0513  1.2756
  184SOPE   HN321017   3.248   6.715   6.312 -1.9017 -0.6790  0.0308
  184SOPE   C1221018   3.209   6.664   6.110  0.5017  0.3608 -0.2627
  184SOPE  H12A21019   3.267   6.575   6.141  0.9986  0.7680 -0.0235
  184SOPE  H12B21020   3.255   6.716   6.024  0.9400  0.0893 -0.1912
  184SOPE   C1121021   3.060   6.655   6.082 -0.3776 -0.2243 -0.1360
  184SOPE  H11A21022   3.044   6.583   5.999  0.2404  0.0214 -0.4717
  184SOPE  H11B21023   3.032   6.754   6.041  0.2579 -0.1611 -0.4221
  184SOPE     P21024   2.961   6.472   6.249 -0.3418  0.3642  0.1925
  184SOPE   O1321025   3.089   6.396   6.275  0.2000  0.4355  0.7088
  184SOPE   O1421026   2.868   6.415   6.149  0.2839 -0.1078 -0.4116
  184SOPE   O1221027   2.991   6.622   6.201 -0.1052 -0.1833 -0.1412
  184SOPE   O1121028   2.885   6.491   6.381  0.0989  0.3656  0.3245
  184SOPE    C121029   2.898   6.604   6.463  0.0957  0.0876  0.4268
  184SOPE    HA21030   2.800   6.634   6.506 -0.4502 -1.9936  0.6440
  184SOPE    HB21031   2.939   6.694   6.413  0.5552 -0.1327  0.4062
  184SOPE    C221032   2.996   6.578   6.576 -0.1895  0.0072  0.3842
  184SOPE    HS21033   3.094   6.555   6.530 -1.8022 -3.0188 -1.8001
  184SOPE   O2121034   2.960   6.462   6.656  0.7600 -0.2522 -0.3890
  184SOPE   C2121035   3.048   6.416   6.741  0.0141  0.3295 -0.0386
  184SOPE   O2221036   3.160   6.465   6.762 -0.5240 -0.2961  0.0418
  184SOPE   C2221037   2.994   6.291   6.807 -0.1386  0.3684 -0.2772
  184SOPE   H2R21038   3.076   6.241   6.863  0.8835 -0.0102 -2.0725
  184SOPE   H2S21039   2.945   6.212   6.746 -0.1605 -0.0035  0.2154
  184SOPE    C321040   3.010   6.714   6.663 -0.2867  0.1410  0.5052
  184SOPE    HX21041   3.051   6.792   6.596 -0.5634 -0.4031 -0.3079
  184SOPE    HY21042   3.085   6.698   6.744  1.1789 -0.8806 -1.0057
  184SOPE   O3121043   2.876   6.747   6.719  0.1989  0.6065 -0.0986
  184SOPE   C3121044   2.823   6.861   6.682  0.4456  0.5657  0.2116
  184SOPE   O3221045   2.875   6.934   6.601 -0.7119  0.2748  0.5896
  184SOPE   C3221046   2.689   6.890   6.747  0.1353 -0.4580 -0.0739
  184SOPE   H2X21047   2.628   6.938   6.667  0.3431 -1.4507 -0.8314
  184SOPE   H2Y21048   2.693   6.964   6.829 -4.0567  0.6495 -0.7286
  184SOPE   C2321049   2.887   6.328   6.920  0.0506 -0.0533 -0.1797
  184SOPE   H3R21050   2.876   6.233   6.978  1.2399 -0.5278 -0.7099
  184SOPE   H3S21051   2.795   6.357   6.865  1.8180 -0.4726 -3.4823
  184SOPE   C2421052   2.928   6.432   7.015 -0.3475 -0.4308 -0.7553
  184SOPE   H4R21053   3.033   6.431   7.052  0.1096  2.2963 -1.8392
  184SOPE   H4S21054   2.937   6.528   6.960 -0.1538 -1.3360 -2.3142
  184SOPE   C2521055   2.827   6.460   7.123  0.1387 -0.3391  1.1047
  184SOPE   H5R21056   2.835   6.557   7.177 -2.2577 -1.2713  3.2168
  184SOPE   H5S21057   2.730   6.459   7.068  0.8874 -1.8431 -0.2249
  184SOPE   C2621058   2.799   6.350   7.233 -0.9862 -0.7329  0.6484
  184SOPE   H6R21059   2.756   6.261   7.182  0.3908 -1.4878  0.7770
  184SOPE   H6S21060   2.898   6.328   7.278 -1.6315 -1.9790  1.5018
  184SOPE   C2721061   2.706   6.407   7.342 -0.5144  0.0389 -0.4715
  184SOPE   H7R21062   2.735   6.512   7.366  2.9489 -0.9130 -0.1849
  184SOPE   H7S21063   2.602   6.408   7.302 -0.3813  2.5459 -0.8085
  184SOPE   C2821064   2.702   6.308   7.465 -0.2625 -0.2161 -0.0966
  184SOPE   H8R21065   2.613   6.338   7.525  0.1584  0.0196  0.4171
  184SOPE   H8S21066   2.684   6.206   7.426 -0.8747 -0.5987  1.1438
  184SOPE   C2921067   2.835   6.308   7.542  0.0199 -0.0527 -0.0792
  184SOPE   H9121068   2.918   6.254   7.494 -0.4136 -1.6697  0.9330
  184SOPE  C21021069   2.854   6.346   7.670 -0.0113 -0.2268  0.1335
  184SOPE  H10121070   2.952   6.320   7.715 -0.4648 -2.0077  0.1310
  184SOPE  C21121071   2.751   6.394   7.771  0.0816 -0.6423  0.0195
  184SOPE  H11R21072   2.667   6.442   7.718  1.7176  2.2311 -0.0438
  184SOPE  H11S21073   2.806   6.459   7.843 -0.5115 -0.6804  0.5138
  184SOPE  C21221074   2.688   6.271   7.853  0.6038 -0.1767  0.2148
  184SOPE  H12R21075   2.768   6.226   7.916 -0.4657 -1.0702  0.9572
  184SOPE  H12S21076   2.653   6.187   7.790  0.6785 -1.8417  2.3229
  184SOPE  C21321077   2.580   6.310   7.959 -0.3703 -0.0420 -0.3992
  184SOPE  H13R21078   2.530   6.220   8.000  0.0783  0.0311  0.3200
  184SOPE  H13S21079   2.499   6.372   7.914 -1.0432 -0.8083 -0.2461
  184SOPE  C21421080   2.638   6.405   8.072  0.4212 -0.2097 -0.7334
  184SOPE  H14R21081   2.668   6.507   8.038 -0.4879  0.1568 -0.4379
  184SOPE  H14S21082   2.728   6.357   8.117 -0.0497 -0.7221 -0.3386
  184SOPE  C21521083   2.528   6.418   8.185  0.1829 -0.0807 -0.2241
  184SOPE  H15R21084   2.514   6.325   8.243  1.8399 -0.8963 -1.1043
  184SOPE  H15S21085   2.432   6.437   8.133  1.5108  1.1788 -2.3186
  184SOPE  C21621086   2.557   6.521   8.295 -0.2020  0.3775 -0.8320
  184SOPE  H16R21087   2.557   6.628   8.267  0.2799  0.5049 -0.3408
  184SOPE  H16S21088   2.661   6.492   8.322 -0.4836 -0.8364 -0.9944
  184SOPE  C21721089   2.476   6.504   8.432 -0.5042  0.0654 -0.3682
  184SOPE  H17R21090   2.457   6.396   8.449  1.2294 -0.4271 -1.4797
  184SOPE  H17S21091   2.379   6.559   8.426 -1.1521 -1.0012  0.1934
  184SOPE  C21821092   2.546   6.562   8.560 -0.3463 -0.4970 -0.3917
  184SOPE  H18R21093   2.456   6.571   8.625  0.4686  0.3726  0.6350
  184SOPE  H18S21094   2.587   6.665   8.551 -0.1583 -0.4315  1.1093
  184SOPE  H18T21095   2.616   6.490   8.608 -0.5657 -1.1782 -1.0845
  184SOPE   C3321096   2.626   6.756   6.793 -0.0330  0.6774 -0.1671
  184SOPE   H3X21097   2.695   6.717   6.871  2.1427  1.5812 -1.5848
  184SOPE   H3Y21098   2.616   6.683   6.710  1.4824  1.0290 -0.6657
  184SOPE   C3421099   2.489   6.776   6.866  0.8186  0.2130  0.3832
  184SOPE   H4X21100   2.417   6.823   6.794  0.8628  0.7614  0.6938
  184SOPE   H4Y21101   2.511   6.857   6.939  1.1588  0.4614  0.0067
  184SOPE   C3521102   2.435   6.652   6.941 -0.5282 -1.1911  0.6861
  184SOPE   H5X21103   2.505   6.569   6.919  0.2448 -0.7689  1.5243
  184SOPE   H5Y21104   2.330   6.633   6.908 -0.8744 -0.1101  1.1286
  184SOPE   C3621105   2.432   6.681   7.091  0.1549  0.2618 -0.0035
  184SOPE   H6X21106   2.351   6.755   7.104  0.0967  0.5535 -1.8569
  184SOPE   H6Y21107   2.533   6.700   7.133 -0.2393  0.6976  0.7595
  184SOPE   C3721108   2.387   6.555   7.171 -0.0510 -0.0696 -0.3358
  184SOPE   H7X21109   2.458   6.471   7.152 -3.1189 -2.8524 -0.0266
  184SOPE   H7Y21110   2.284   6.533   7.135 -0.1254 -0.1342 -0.0877
  184SOPE   C3821111   2.391   6.597   7.318 -0.6773 -0.6848  0.7480
  184SOPE   H8X21112   2.331   6.690   7.321  0.6747  0.2582 -0.5723
  184SOPE   H8Y21113   2.496   6.617   7.348  0.4651 -2.9414 -1.5179
  184SOPE   C3921114   2.329   6.500   7.422  0.4593  0.5349  0.3377
  184SOPE   H9X21115   2.402   6.415   7.423  1.9747  1.8173  0.9294
  184SOPE   H9Y21116   2.227   6.465   7.396 -0.8739  3.2801  1.6846
  184SOPE  C31021117   2.333   6.565   7.566  0.5490 -0.6064  0.4093
  184SOPE  H10X21118   2.276   6.661   7.566  3.7147  1.3564  0.3920
  184SOPE  H10Y21119   2.439   6.587   7.593  0.6764  0.9603 -1.2938
  184SOPE  C31121120   2.274   6.471   7.681  0.7891  0.6996 -0.1369
  184SOPE  H11X21121   2.332   6.376   7.684 -1.1928 -0.5848 -1.0330
  184SOPE  H11Y21122   2.174   6.430   7.656  0.5053  1.1791  0.2228
  184SOPE  C31221123   2.246   6.542   7.812  0.2822  0.0261 -0.3279
  184SOPE  H12X21124   2.182   6.633   7.805  1.9600  1.1139 -1.8682
  184SOPE  H12Y21125   2.343   6.565   7.862  1.0950 -0.0786 -1.8261
  184SOPE  C31321126   2.170   6.445   7.904 -0.2426  0.3641  0.1850
  184SOPE  H13X21127   2.231   6.359   7.940 -0.3870  0.4195  0.5645
  184SOPE  H13Y21128   2.084   6.399   7.850  0.4727 -2.4500  1.3424
  184SOPE  C31421129   2.108   6.505   8.034  0.1790 -0.1095  0.7350
  184SOPE  H14X21130   2.041   6.588   8.004  0.2685 -0.1848  0.3256
  184SOPE  H14Y21131   2.195   6.547   8.088 -0.0342  0.5406  0.5731
  184SOPE  C31521132   2.051   6.403   8.134  0.0238  0.0054  0.0221
  184SOPE  H15X21133   2.049   6.438   8.239  3.1065  2.3113 -0.6348
  184SOPE  H15Y21134   2.126   6.321   8.135 -1.1787 -1.1582 -1.2235
  184SOPE  C31621135   1.915   6.342   8.091  0.2004 -0.3147 -0.1981
  184SOPE  H16X21136   1.919   6.236   8.124 -2.1311  0.0778  1.4987
  184SOPE  H16Y21137   1.893   6.323   7.984 -1.5169 -0.9241  0.2398
  184SOPE  C31721138   1.799   6.415   8.160  0.1891  0.1711  0.0233
  184SOPE  H17X21139   1.808   6.518   8.121 -1.5659 -0.1962 -1.4423
  184SOPE  H17Y21140   1.810   6.426   8.270  2.9406 -1.7159  0.0028
  184SOPE  C31821141   1.662   6.352   8.136 -0.3599  0.1624 -0.1079
  184SOPE  H18X21142   1.589   6.426   8.175  1.3806  1.5507  0.5586
  184SOPE  H18Y21143   1.644   6.256   8.188  1.0240 -1.0264 -1.7649
  184SOPE  H18Z21144   1.649   6.336   8.027  1.0372  0.1050 -0.2726
  185SAPI   C1221145   5.966   3.073  11.147 -0.3016 -0.4330 -0.2741
  185SAPI    H221146   6.059   3.016  11.169 -0.1244  0.2126  0.6740
  185SAPI    O221147   5.908   3.029  11.027  0.5234  0.8282 -0.0921
  185SAPI   HO221148   5.878   2.938  11.035 -2.4305  1.6902 -0.5557
  185SAPI   C1321149   5.860   3.053  11.259 -0.1653  0.1462  0.2673
  185SAPI    H321150   5.911   3.076  11.356 -0.8769 -2.5443  1.3248
  185SAPI    O321151   5.818   2.917  11.269  0.5903 -0.3084  0.2685
  185SAPI   HO321152   5.725   2.912  11.292  0.3789  0.2305 -0.4561
  185SAPI   C1421153   5.751   3.151  11.236  0.4885 -0.7934 -0.3648
  185SAPI    H421154   5.690   3.119  11.148 -0.9733 -1.4808  0.8592
  185SAPI    O421155   5.657   3.150  11.356 -0.4263  0.4754  0.3677
  185SAPI   HO421156   5.566   3.136  11.329 -1.3658  2.1801  2.5429
  185SAPI   C1521157   5.799   3.285  11.218  0.1539 -0.4223  0.1656
  185SAPI    H521158   5.857   3.319  11.306  0.2218 -2.1655  0.8128
  185SAPI    O521159   5.691   3.378  11.207  0.1485 -0.4494 -0.1872
  185SAPI   HO521160   5.728   3.467  11.206 -4.7801  1.7815 -0.2838
  185SAPI   C1621161   5.890   3.296  11.093  0.5150 -0.0020 -0.0713
  185SAPI    H621162   5.842   3.257  11.001 -1.2947  0.8512  0.4855
  185SAPI    O621163   5.929   3.435  11.071 -0.0116  0.0515  0.2198
  185SAPI   HO621164   5.973   3.429  10.986 -3.0683 -1.4919 -1.3159
  185SAPI   C1121165   6.013   3.213  11.125 -0.3073  0.3592 -0.6907
  185SAPI    H121166   6.053   3.261  11.217 -0.6426 -1.7527  0.5832
  185SAPI     P21167   6.273   3.181  11.046  0.0843 -0.3724 -0.4072
  185SAPI   O1321168   6.300   3.037  11.062 -0.3471 -0.0994  0.5907
  185SAPI   O1421169   6.320   3.273  11.153 -0.6946 -0.4057  0.4202
  185SAPI   O1221170   6.112   3.217  11.017 -0.8493 -0.5652 -0.1142
  185SAPI   O1121171   6.361   3.230  10.916  0.5238 -0.7311  0.0333
  185SAPI    C121172   6.322   3.363  10.873  0.0586  0.0921 -0.5890
  185SAPI    HA21173   6.273   3.433  10.944  1.7153  0.1302  0.5318
  185SAPI    HB21174   6.416   3.418  10.847 -0.4064  0.1581 -2.1936
  185SAPI    C221175   6.235   3.370  10.740  0.0217  0.2693 -0.0317
  185SAPI    HS21176   6.137   3.320  10.751 -0.4222  0.9717 -0.6949
  185SAPI   O2121177   6.318   3.330  10.631 -0.5288 -0.6381  0.3265
  185SAPI   C2121178   6.295   3.206  10.587  0.0137 -0.1309 -0.0220
  185SAPI   O2221179   6.223   3.123  10.646  0.2579 -1.1288 -0.0184
  185SAPI   C2221180   6.337   3.201  10.444 -0.5537  0.2046  0.5542
  185SAPI   H2R21181   6.294   3.290  10.393 -0.0519 -0.2490 -0.7012
  185SAPI   H2S21182   6.447   3.212  10.430 -0.4896 -3.8841 -3.2885
  185SAPI    C321183   6.207   3.521  10.709  0.1005 -0.4022 -0.4488
  185SAPI    HX21184   6.297   3.585  10.717  1.9415 -3.0077  0.3921
  185SAPI    HY21185   6.140   3.552  10.791  0.6640 -0.1162 -0.0983
  185SAPI   O3121186   6.140   3.538  10.583  0.2966  0.0163  0.4698
  185SAPI   C3121187   6.015   3.510  10.580  0.6551 -0.1662  0.7982
  185SAPI   O3221188   5.949   3.469  10.671  0.0548  0.1190 -0.0205
  185SAPI   C3221189   5.962   3.526  10.439  1.2414 -0.1639 -0.5432
  185SAPI   H2X21190   5.915   3.626  10.427 -0.5592 -1.0144 -0.6494
  185SAPI   H2Y21191   5.887   3.444  10.435 -1.2956  1.9917  1.5480
  185SAPI   C2321192   6.303   3.073  10.373 -0.3893  0.4766  0.0525
  185SAPI   H3R21193   6.195   3.076  10.347 -0.2810  1.5379 -0.3062
  185SAPI   H3S21194   6.327   2.986  10.438  0.2462  0.4677 -0.1970
  185SAPI   C2421195   6.383   3.067  10.241 -0.4431  0.0499  0.1124
  185SAPI   H4R21196   6.377   2.969  10.188 -0.2101 -0.1921  0.5367
  185SAPI   H4S21197   6.491   3.082  10.257 -0.1346 -1.9078  0.0442
  185SAPI   C2521198   6.329   3.169  10.141  0.4494 -0.3019  0.0396
  185SAPI   H5R21199   6.249   3.229  10.186  1.2809  0.8254  0.0287
  185SAPI   C2621200   6.367   3.196  10.015  0.0755  0.6340  0.0701
  185SAPI   H6R21201   6.333   3.294   9.980  1.4225  1.8997  2.1393
  185SAPI   C2721202   6.472   3.124   9.937 -0.2523 -0.3453  0.2981
  185SAPI   H7R21203   6.467   3.145   9.828 -0.4840 -1.4593  0.0865
  185SAPI   H7S21204   6.449   3.016   9.949  0.4531 -0.2461  2.8988
  185SAPI   C2821205   6.609   3.145   9.998 -0.3547  0.0851  0.2970
  185SAPI   H8R21206   6.630   3.120  10.103 -2.2027  0.5242  0.7964
  185SAPI   C2921207   6.716   3.206   9.942 -1.0141 -0.5831  0.7263
  185SAPI   H9R21208   6.803   3.227  10.006 -1.0380  0.5503  0.3941
  185SAPI  C21021209   6.714   3.255   9.797 -0.3398  0.4567  0.6636
  185SAPI  H10R21210   6.803   3.315   9.772 -0.4971  0.7049  0.7008
  185SAPI  H10S21211   6.623   3.316   9.775  1.3098  2.3637 -1.0733
  185SAPI  C21121212   6.714   3.142   9.698 -0.2743  0.6265 -0.2758
  185SAPI  H11R21213   6.725   3.038   9.728 -0.3881  0.9843  1.0156
  185SAPI  C21221214   6.716   3.156   9.566 -0.1745  0.4158  0.7747
  185SAPI  H12R21215   6.705   3.068   9.500  0.7147  0.3089  0.7586
  185SAPI  C21321216   6.716   3.287   9.494  0.0349  0.5232 -0.2237
  185SAPI  H13R21217   6.761   3.369   9.554  1.1788 -0.4726  0.3166
  185SAPI  H13S21218   6.611   3.310   9.467 -0.4814  0.0676  1.3514
  185SAPI  C21421219   6.795   3.295   9.371 -0.2784  0.3772  0.2721
  185SAPI  H14R21220   6.897   3.334   9.386  0.0074  0.3305 -1.4275
  185SAPI  C21521221   6.755   3.244   9.254 -0.6187 -0.4170  0.0031
  185SAPI  H15R21222   6.825   3.239   9.169 -0.3104 -1.2449  0.2997
  185SAPI  C21621223   6.627   3.170   9.214 -0.0969  0.0275 -0.0396
  185SAPI  H16R21224   6.558   3.235   9.157  0.0414 -0.0482 -0.2942
  185SAPI  H16S21225   6.581   3.130   9.306 -0.6887  0.0002 -0.3471
  185SAPI  C21721226   6.643   3.041   9.132 -0.5585  0.4971  0.0061
  185SAPI  H17R21227   6.728   2.985   9.177 -0.4460 -0.2276 -1.1000
  185SAPI  H17S21228   6.675   3.073   9.031 -0.0900 -0.2714 -0.0910
  185SAPI  C21821229   6.518   2.958   9.134  0.3808  0.1434 -0.7315
  185SAPI  H18R21230   6.428   3.021   9.117 -0.1182 -0.2417  0.3798
  185SAPI  H18S21231   6.496   2.914   9.234  2.1354 -0.1788 -0.4708
  185SAPI  C21921232   6.523   2.857   9.016  0.0475  1.3900  0.5586
  185SAPI  H19R21233   6.612   2.791   9.023  0.2126  1.7642  2.0619
  185SAPI  H19S21234   6.544   2.927   8.933  1.0678  0.5692  0.1109
  185SAPI  C22021235   6.394   2.781   9.010 -0.0433  0.0987 -0.1443
  185SAPI  H20R21236   6.387   2.710   9.095  2.7303  1.4106  1.2670
  185SAPI  H20S21237   6.396   2.714   8.921  1.0969  0.7214 -0.5941
  185SAPI  H20T21238   6.308   2.851   9.013  0.0266  0.1616  0.4742
  185SAPI   C3321239   6.065   3.520  10.322 -0.2158  0.2384 -0.0882
  185SAPI   H3X21240   6.106   3.417  10.318 -0.9594 -0.0675  0.1913
  185SAPI   H3Y21241   6.151   3.588  10.340 -0.0535 -0.6483  2.6460
  185SAPI   C3421242   5.999   3.556  10.184 -0.1067 -0.2906 -0.7220
  185SAPI   H4X21243   5.948   3.655  10.181  1.3074  0.4647 -0.6064
  185SAPI   H4Y21244   5.921   3.479  10.170  1.2676 -1.5613 -1.5406
  185SAPI   C3521245   6.098   3.547  10.070 -0.5522 -0.5797 -0.0931
  185SAPI   H5X21246   6.145   3.447  10.063  0.5403 -0.2490  2.3936
  185SAPI   H5Y21247   6.170   3.628  10.095  1.3983 -1.4995 -2.4855
  185SAPI   C3621248   6.023   3.583   9.941  0.2576 -0.4033  0.3442
  185SAPI   H6X21249   5.964   3.674   9.966 -1.2099 -1.2759  0.0995
  185SAPI   H6Y21250   5.951   3.501   9.920  2.6932 -2.6091  0.2959
  185SAPI   C3721251   6.110   3.595   9.821 -0.8431  0.1381  0.0296
  185SAPI   H7X21252   6.147   3.492   9.801 -0.9635  0.1014 -0.0038
  185SAPI   H7Y21253   6.189   3.666   9.850 -2.3859  1.8546  0.1239
  185SAPI   C3821254   6.028   3.639   9.701  0.2511  0.2166 -0.5089
  185SAPI   H8X21255   5.985   3.740   9.717 -0.8034  0.0451 -2.1320
  185SAPI   H8Y21256   5.950   3.561   9.686  0.1747  0.0963  0.5049
  185SAPI   C3921257   6.106   3.649   9.574 -0.0842  0.4922  1.1386
  185SAPI   H9X21258   6.141   3.546   9.551  3.6027  1.7814  0.5628
  185SAPI   H9Y21259   6.189   3.715   9.608  0.4636  1.3154 -1.6992
  185SAPI  C31021260   6.025   3.701   9.457 -0.0415  0.3620 -0.9451
  185SAPI  H10X21261   5.977   3.797   9.487  1.0875  0.7990 -0.5177
  185SAPI  H10Y21262   5.942   3.630   9.438 -0.3548  0.2817  0.6800
  185SAPI  C31121263   6.118   3.730   9.340 -0.0655 -0.1711 -0.2690
  185SAPI  H11X21264   6.215   3.778   9.366  1.0276 -2.9179  0.8486
  185SAPI  H11Y21265   6.071   3.809   9.277 -1.4225 -0.4498  0.3879
  185SAPI  C31221266   6.142   3.611   9.247  0.5245 -0.5156  0.5083
  185SAPI  H12X21267   6.042   3.581   9.210 -0.1094  1.3215  0.6830
  185SAPI  H12Y21268   6.174   3.529   9.316  0.1847 -0.6407  0.5167
  185SAPI  C31321269   6.234   3.624   9.125  0.0552  0.0647 -0.2069
  185SAPI  H13X21270   6.333   3.666   9.150 -0.3165  1.4879 -1.0390
  185SAPI  H13Y21271   6.183   3.705   9.067  0.4800  1.3627  1.2100
  185SAPI  C31421272   6.266   3.492   9.058 -0.3509 -0.0746 -0.5064
  185SAPI  H14X21273   6.168   3.446   9.035  0.6969 -2.6471  0.0203
  185SAPI  H14Y21274   6.328   3.432   9.128  1.4971  0.9911 -1.1867
  185SAPI  C31521275   6.343   3.521   8.932 -0.6567  0.1893  0.0198
  185SAPI  H15X21276   6.431   3.582   8.962  3.1367 -2.4451 -4.8641
  185SAPI  H15Y21277   6.278   3.573   8.859 -1.3757  2.1485  2.0096
  185SAPI  C31621278   6.415   3.405   8.865  0.3558 -0.3991 -0.0406
  185SAPI  H16X21279   6.337   3.326   8.860  0.7638 -0.7131 -2.0197
  185SAPI  H16Y21280   6.491   3.364   8.934  0.8890  0.5669 -0.0435
  185SAPI  C31721281   6.467   3.434   8.726  0.3481 -0.6908 -0.6700
  185SAPI  H17X21282   6.565   3.486   8.732  0.1150 -0.5399  2.3197
  185SAPI  H17Y21283   6.406   3.509   8.669 -0.7121 -0.3173  0.9308
  185SAPI  C31821284   6.488   3.306   8.647 -0.2849  0.4734 -0.5438
  185SAPI  H18X21285   6.547   3.315   8.554 -2.5071  0.4217 -2.0057
  185SAPI  H18Y21286   6.387   3.270   8.616 -0.0367 -0.3198 -0.4487
  185SAPI  H18Z21287   6.539   3.230   8.709  0.6036  1.6559  0.1911
  186SAPI   C1221288   5.885   0.910  11.124 -0.3124  0.2345  0.2760
  186SAPI    H221289   5.913   1.018  11.130 -1.7442  0.7002 -0.9872
  186SAPI    O221290   5.967   0.839  11.211  0.2794  0.3708  0.1179
  186SAPI   HO221291   6.044   0.892  11.228  0.4038  0.5154 -0.8373
  186SAPI   C1321292   5.741   0.891  11.151 -0.0143 -0.5353  0.2672
  186SAPI    H321293   5.680   0.944  11.075 -2.0070 -2.5782  0.3964
  186SAPI    O321294   5.710   0.960  11.274  0.0844  0.0903 -0.4158
  186SAPI   HO321295   5.763   0.908  11.336  0.2964  1.7871  0.8550
  186SAPI   C1421296   5.703   0.749  11.143 -0.1369  0.2592 -0.9205
  186SAPI    H421297   5.771   0.691  11.209 -2.1484 -2.6627 -1.3266
  186SAPI    O421298   5.568   0.724  11.192  0.4364  0.5464  0.1042
  186SAPI   HO421299   5.572   0.718  11.288 -1.1660 -1.5763  0.0722
  186SAPI   C1521300   5.725   0.699  11.000 -0.7030  0.7950  0.3197
  186SAPI    H521301   5.673   0.769  10.931 -2.2712 -1.6714 -1.0357
  186SAPI    O521302   5.682   0.563  10.981 -0.1388  0.2505 -0.3562
  186SAPI   HO521303   5.671   0.554  10.886  2.2135  0.9616 -0.7276
  186SAPI   C1621304   5.877   0.712  10.961  0.0855  0.0117  0.0080
  186SAPI    H621305   5.931   0.655  11.039 -1.5147 -0.5290  0.7507
  186SAPI    O621306   5.902   0.661  10.827  0.6238  0.4468  0.2883
  186SAPI   HO621307   5.947   0.731  10.778 -0.5491 -0.2142 -1.7746
  186SAPI   C1121308   5.920   0.855  10.979 -0.3026 -0.1953  0.8191
  186SAPI    H121309   5.861   0.917  10.908  1.7542 -0.2984 -1.0506
  186SAPI     P21310   6.115   0.944  10.816 -0.1150 -0.1942  0.1814
  186SAPI   O1321311   6.267   0.944  10.817 -0.6822 -0.2882  0.4159
  186SAPI   O1421312   6.046   1.072  10.811  0.0031 -0.3523  0.6873
  186SAPI   O1221313   6.060   0.872  10.954 -0.1813 -0.4291 -0.5491
  186SAPI   O1121314   6.061   0.846  10.703  0.0625  0.2585  0.0318
  186SAPI    C121315   6.127   0.736  10.638  0.2606 -0.1364 -0.3683
  186SAPI    HA21316   6.192   0.678  10.706  0.1723  0.2212  0.0192
  186SAPI    HB21317   6.061   0.656  10.599 -1.6933  0.5550  1.4549
  186SAPI    C221318   6.247   0.780  10.539  0.1282  0.9392  0.3700
  186SAPI    HS21319   6.330   0.795  10.612 -2.5621 -1.4737  4.1812
  186SAPI   O2121320   6.207   0.911  10.482 -0.2594  0.4422 -0.6549
  186SAPI   C2121321   6.299   1.004  10.485 -0.2807 -0.3505  0.5910
  186SAPI   O2221322   6.412   0.987  10.519 -0.6406 -0.3359  0.2947
  186SAPI   C2221323   6.236   1.139  10.439  0.1575 -0.0780 -0.0474
  186SAPI   H2R21324   6.135   1.118  10.400 -1.1220  1.5330  2.2967
  186SAPI   H2S21325   6.213   1.187  10.537 -0.8455  3.2061 -1.8315
  186SAPI    C321326   6.273   0.672  10.428 -0.4785  0.4089  0.0811
  186SAPI    HX21327   6.168   0.655  10.395  0.6658 -1.4732 -2.8966
  186SAPI    HY21328   6.322   0.579  10.463  0.4203  1.2704  1.1408
  186SAPI   O3121329   6.337   0.721  10.311  0.1690  0.4894 -0.5951
  186SAPI   C3121330   6.468   0.728  10.334 -0.7289 -0.5348  0.1203
  186SAPI   O3221331   6.529   0.682  10.428  0.2021 -0.8403 -0.1987
  186SAPI   C3221332   6.536   0.813  10.232  0.0895  0.8988  0.4785
  186SAPI   H2X21333   6.640   0.773  10.237 -0.9068 -1.7462  1.3180
  186SAPI   H2Y21334   6.532   0.921  10.255 -0.1240  1.2010 -0.9145
  186SAPI   C2321335   6.326   1.235  10.352 -0.0721 -1.3317  0.0732
  186SAPI   H3R21336   6.430   1.215  10.388 -0.5546 -1.7073  1.2951
  186SAPI   H3S21337   6.297   1.339  10.379  0.0805 -1.3468  0.3011
  186SAPI   C2421338   6.308   1.205  10.201  0.4587  0.3490  0.0638
  186SAPI   H4R21339   6.330   1.098  10.181  1.5688  0.5897 -0.0415
  186SAPI   H4S21340   6.375   1.272  10.143  3.4939 -1.7598  1.0515
  186SAPI   C2521341   6.170   1.248  10.149  0.1767  0.7478 -0.3940
  186SAPI   H5R21342   6.106   1.316  10.206  1.1140  0.1577  1.4139
  186SAPI   C2621343   6.136   1.207  10.024  0.8793 -0.1235 -0.1199
  186SAPI   H6R21344   6.033   1.223   9.987  0.9753 -0.2474 -0.4496
  186SAPI   C2721345   6.215   1.125   9.923  0.4144  0.0787 -0.2716
  186SAPI   H7R21346   6.206   1.016   9.944 -0.9430  0.0822 -0.7590
  186SAPI   H7S21347   6.322   1.146   9.943  0.2008 -0.0294  1.0627
  186SAPI   C2821348   6.174   1.152   9.783 -0.3702 -0.0799 -0.2388
  186SAPI   H8R21349   6.069   1.184   9.778 -0.3063  0.1236 -0.2565
  186SAPI   C2921350   6.235   1.128   9.667 -0.2605 -0.4880  0.4771
  186SAPI   H9R21351   6.184   1.150   9.572 -0.5360  1.2923  1.0021
  186SAPI  C21021352   6.376   1.073   9.651  0.2131 -0.6402 -0.4958
  186SAPI  H10R21353   6.382   0.992   9.575 -1.2528 -0.4451 -0.8393
  186SAPI  H10S21354   6.393   1.016   9.745  0.3869 -1.0309 -0.7617
  186SAPI  C21121355   6.475   1.188   9.631  0.6784  0.6067 -0.3502
  186SAPI  H11R21356   6.502   1.263   9.708  1.3076  0.7925 -0.7460
  186SAPI  C21221357   6.508   1.238   9.512  0.0350  0.4354  0.4612
  186SAPI  H12R21358   6.596   1.305   9.511  2.4068 -2.5686  0.0962
  186SAPI  C21321359   6.468   1.194   9.377  0.1665 -0.7956 -0.1208
  186SAPI  H13R21360   6.401   1.105   9.385  0.6331 -1.0239  1.3358
  186SAPI  H13S21361   6.554   1.152   9.321 -0.7798 -1.0302 -1.4362
  186SAPI  C21421362   6.410   1.306   9.295 -0.4039 -0.2207  0.5027
  186SAPI  H14R21363   6.432   1.404   9.339  0.9053 -0.4600  0.4167
  186SAPI  C21521364   6.342   1.290   9.179  0.4321  0.7045 -0.1665
  186SAPI  H15R21365   6.325   1.384   9.124  3.0784  1.0702 -0.4312
  186SAPI  C21621366   6.324   1.155   9.117 -0.4324 -0.8140 -0.2922
  186SAPI  H16R21367   6.343   1.079   9.196  1.4880 -0.0517 -0.0124
  186SAPI  H16S21368   6.388   1.142   9.028  1.1560 -0.9805  0.8559
  186SAPI  C21721369   6.175   1.135   9.087 -0.0453 -0.5536 -0.7840
  186SAPI  H17R21370   6.104   1.147   9.171  0.0358 -0.4820 -0.7264
  186SAPI  H17S21371   6.154   1.030   9.059  0.6358 -1.5643  2.3538
  186SAPI  C21821372   6.113   1.214   8.967  0.7920  0.4312 -0.5831
  186SAPI  H18R21373   6.096   1.318   9.002 -2.8847  0.5136 -2.3195
  186SAPI  H18S21374   6.010   1.175   8.949  1.1802 -0.1721 -1.5765
  186SAPI  C21921375   6.194   1.198   8.836  0.1457  0.4643 -0.1492
  186SAPI  H19R21376   6.219   1.091   8.817  2.2289  0.5138  2.1171
  186SAPI  H19S21377   6.290   1.253   8.844 -0.1356  0.9487 -0.0907
  186SAPI  C22021378   6.123   1.271   8.717 -0.0972  0.7251  0.4309
  186SAPI  H20R21379   6.135   1.380   8.729 -1.8371  1.0084 -0.1745
  186SAPI  H20S21380   6.016   1.245   8.730  0.0798  0.3098  1.0887
  186SAPI  H20T21381   6.157   1.246   8.614 -3.9657  0.6959 -0.9312
  186SAPI   C3321382   6.485   0.778  10.090  0.7914  0.0936 -0.0856
  186SAPI   H3X21383   6.378   0.797  10.068  0.4320 -0.5367  1.0799
  186SAPI   H3Y21384   6.508   0.670  10.080  0.1520 -0.2479  1.8264
  186SAPI   C3421385   6.578   0.844   9.991  0.3142  0.4577  0.2171
  186SAPI   H4X21386   6.683   0.833  10.026  1.0694  2.7233 -1.2920
  186SAPI   H4Y21387   6.565   0.953  10.002 -1.8361  0.2318  0.3098
  186SAPI   C3521388   6.565   0.787   9.844  0.2548 -0.8536  0.6135
  186SAPI   H5X21389   6.462   0.800   9.803  0.9869  0.0249 -0.9844
  186SAPI   H5Y21390   6.594   0.680   9.837  0.2858 -0.9182  1.6806
  186SAPI   C3621391   6.656   0.852   9.741 -0.2485 -0.0853  0.1395
  186SAPI   H6X21392   6.749   0.863   9.801  0.0887  0.1219 -0.4135
  186SAPI   H6Y21393   6.625   0.956   9.719 -2.1384 -1.1041 -2.2462
  186SAPI   C3721394   6.683   0.761   9.621  0.0223  0.2033 -0.1917
  186SAPI   H7X21395   6.587   0.731   9.573 -0.5811  0.3356  0.9119
  186SAPI   H7Y21396   6.731   0.665   9.649  1.0272  0.4456 -1.0523
  186SAPI   C3821397   6.759   0.838   9.514 -0.2319  0.1659  0.4001
  186SAPI   H8X21398   6.860   0.866   9.549  1.1610 -3.5154 -0.4073
  186SAPI   H8Y21399   6.693   0.924   9.488 -1.0029 -0.3008  0.7700
  186SAPI   C3921400   6.771   0.744   9.392 -0.2182  0.3748  0.2490
  186SAPI   H9X21401   6.666   0.706   9.386 -0.4124  0.7258  1.2079
  186SAPI   H9Y21402   6.831   0.652   9.410 -0.5543 -0.1652 -1.2898
  186SAPI  C31021403   6.802   0.814   9.262  0.3811 -0.4264  0.3950
  186SAPI  H10X21404   6.908   0.846   9.268  1.3194 -3.5737  2.1043
  186SAPI  H10Y21405   6.736   0.903   9.252 -0.7391 -1.1780  0.8953
  186SAPI  C31121406   6.789   0.725   9.134 -0.3607  0.0991  0.6117
  186SAPI  H11X21407   6.680   0.705   9.125 -0.1249 -2.6123  3.0945
  186SAPI  H11Y21408   6.830   0.627   9.167  0.9127  0.6221  0.6125
  186SAPI  C31221409   6.838   0.785   9.003 -0.2276 -0.0422 -0.2231
  186SAPI  H12X21410   6.949   0.786   9.006 -0.2419 -0.6285  0.7547
  186SAPI  H12Y21411   6.796   0.888   9.000 -2.2281 -0.8761 -1.9062
  186SAPI  C31321412   6.787   0.710   8.885  0.0058  0.4018  0.0950
  186SAPI  H13X21413   6.676   0.702   8.892  0.0804  0.5517  1.5945
  186SAPI  H13Y21414   6.824   0.606   8.891  1.2825  0.6126 -2.9618
  186SAPI  C31421415   6.836   0.758   8.744 -0.2303 -0.0282  0.7694
  186SAPI  H14X21416   6.789   0.696   8.665 -0.4250  0.5420  0.4293
  186SAPI  H14Y21417   6.947   0.756   8.747 -0.1107  0.8421 -1.6280
  186SAPI  C31521418   6.801   0.904   8.714 -0.0148  0.6061 -0.1039
  186SAPI  H15X21419   6.845   0.973   8.789 -0.9566  1.5206 -0.3825
  186SAPI  H15Y21420   6.690   0.911   8.721 -0.2143 -0.1857 -2.1809
  186SAPI  C31621421   6.848   0.950   8.572  0.8350  0.0499 -0.1097
  186SAPI  H16X21422   6.796   0.887   8.496 -1.2000  0.3578  0.9948
  186SAPI  H16Y21423   6.958   0.933   8.574  0.7074 -0.6881  0.6932
  186SAPI  C31721424   6.810   1.093   8.548  0.1288 -0.0395  0.0352
  186SAPI  H17X21425   6.859   1.120   8.452 -1.4292 -1.1559 -1.1069
  186SAPI  H17Y21426   6.855   1.153   8.630 -0.0594 -1.8722  1.5268
  186SAPI  C31821427   6.660   1.128   8.530  0.6178 -0.0333 -0.5016
  186SAPI  H18X21428   6.622   1.074   8.441 -3.1786 -1.3595  1.7933
  186SAPI  H18Y21429   6.660   1.239   8.518 -3.3173  0.2217  0.9652
  186SAPI  H18Z21430   6.602   1.098   8.620 -2.2702  0.1496 -2.2443
  187SAPI   C1221431   4.981   2.150   6.321  0.2614  0.4664 -0.0184
  187SAPI    H221432   4.870   2.152   6.334  0.1072 -0.8952 -0.9679
  187SAPI    O221433   5.042   2.152   6.445 -0.3200  0.1389  0.2868
  187SAPI   HO221434   5.027   2.243   6.471  1.4129  0.6647 -0.4822
  187SAPI   C1321435   5.000   2.020   6.248  0.1158  0.3557 -0.2221
  187SAPI    H321436   4.955   2.030   6.147  0.5137  0.3643 -0.3984
  187SAPI    O321437   4.950   1.914   6.332  0.4704  0.1153  0.1421
  187SAPI   HO321438   5.023   1.883   6.387 -0.4302 -3.1439 -0.3785
  187SAPI   C1421439   5.145   1.997   6.225  0.1918 -0.3288  0.1776
  187SAPI    H421440   5.199   2.016   6.321 -0.1802 -0.2747  0.3736
  187SAPI    O421441   5.177   1.863   6.186  0.7273  0.2766  0.0027
  187SAPI   HO421442   5.242   1.824   6.245  0.5634 -0.1796 -0.1157
  187SAPI   C1521443   5.202   2.114   6.135  0.3319  0.8975  1.0573
  187SAPI    H521444   5.138   2.121   6.044 -2.1753 -0.0688  2.7018
  187SAPI    O521445   5.338   2.092   6.091  0.1097 -0.1080  0.0946
  187SAPI   HO521446   5.394   2.081   6.169 -0.2082  1.6136  0.5830
  187SAPI   C1621447   5.179   2.243   6.202  0.0838  0.0652 -0.0481
  187SAPI    H621448   5.237   2.237   6.296 -0.5168 -2.7885  0.1776
  187SAPI    O621449   5.224   2.354   6.128  0.1912  0.1310  0.2643
  187SAPI   HO621450   5.304   2.379   6.175 -0.8590 -0.4276  2.3990
  187SAPI   C1121451   5.027   2.264   6.232 -0.3020  0.2114  0.5825
  187SAPI    H121452   4.983   2.263   6.130 -0.6051  0.6412  0.7063
  187SAPI     P21453   4.846   2.455   6.297 -0.0301 -0.1789  0.1534
  187SAPI   O1321454   4.779   2.453   6.164  0.1800 -0.5037  0.4498
  187SAPI   O1421455   4.846   2.583   6.372 -0.2654  0.4684  0.4340
  187SAPI   O1221456   5.001   2.393   6.298  0.1454  0.0598 -0.3139
  187SAPI   O1121457   4.770   2.351   6.387 -0.6727 -0.4539 -0.3571
  187SAPI    C121458   4.628   2.333   6.372 -0.6418 -0.4851 -0.0989
  187SAPI    HA21459   4.574   2.426   6.345 -1.5110 -0.3998  1.8695
  187SAPI    HB21460   4.618   2.254   6.294 -0.9071 -1.3099  0.7639
  187SAPI    C221461   4.568   2.295   6.508 -0.1553 -0.1446 -0.2751
  187SAPI    HS21462   4.596   2.377   6.578  1.0469  0.4017 -1.3638
  187SAPI   O2121463   4.623   2.173   6.561 -0.5671  0.0116 -0.7733
  187SAPI   C2121464   4.743   2.171   6.621  0.2086  0.6760 -0.0230
  187SAPI   O2221465   4.805   2.272   6.657 -0.4505  0.1884 -0.0007
  187SAPI   C2221466   4.789   2.026   6.643 -0.1369  0.9457 -0.4207
  187SAPI   H2R21467   4.745   1.966   6.560 -1.0882  0.8729  0.1373
  187SAPI   H2S21468   4.899   2.015   6.627 -0.2764 -0.9021 -0.2872
  187SAPI    C321469   4.415   2.288   6.498 -0.4141  0.2364  0.3897
  187SAPI    HX21470   4.384   2.258   6.395  2.9479 -0.0185 -0.6297
  187SAPI    HY21471   4.379   2.393   6.495  0.3414  0.4902  0.0550
  187SAPI   O3121472   4.353   2.211   6.604 -0.4124 -0.5911  0.0850
  187SAPI   C3121473   4.317   2.271   6.716  0.0095  0.1241  0.1097
  187SAPI   O3221474   4.339   2.388   6.744 -0.2526  0.1988 -0.1474
  187SAPI   C3221475   4.224   2.168   6.784 -0.2713  0.7861 -0.4837
  187SAPI   H2X21476   4.288   2.080   6.806 -0.9303  0.5976  0.7573
  187SAPI   H2Y21477   4.148   2.131   6.713  1.1733 -1.5924 -0.8742
  187SAPI   C2321478   4.754   1.969   6.785 -0.4124  0.5893  1.0199
  187SAPI   H3R21479   4.791   2.040   6.862 -0.0847  2.3520 -0.7419
  187SAPI   H3S21480   4.807   1.871   6.783  1.8255  1.7698  0.0083
  187SAPI   C2421481   4.600   1.944   6.808 -0.7822 -0.4548  0.4467
  187SAPI   H4R21482   4.554   1.904   6.715  2.8773 -1.4355 -1.0034
  187SAPI   H4S21483   4.557   2.047   6.808  1.3117  0.4542 -0.1308
  187SAPI   C2521484   4.554   1.876   6.929  0.6930 -0.6371  0.1211
  187SAPI   H5R21485   4.514   1.775   6.910  1.1861 -0.9982  0.9625
  187SAPI   C2621486   4.539   1.928   7.047  1.2278 -0.1719 -0.1551
  187SAPI   H6R21487   4.509   1.867   7.134  2.6441  0.5186  0.8327
  187SAPI   C2721488   4.574   2.066   7.093  0.4027  0.3289  0.0154
  187SAPI   H7R21489   4.630   2.126   7.018 -0.6968  0.1406 -0.9853
  187SAPI   H7S21490   4.639   2.059   7.182 -1.2968 -0.5290  1.2118
  187SAPI   C2821491   4.445   2.139   7.144 -0.1001 -0.1681 -0.2917
  187SAPI   H8R21492   4.420   2.217   7.070 -0.3304  0.0868  0.0505
  187SAPI   C2921493   4.366   2.121   7.251 -0.0995 -0.9725  0.6824
  187SAPI   H9R21494   4.280   2.189   7.260  1.4890  1.2817 -0.5661
  187SAPI  C21021495   4.392   2.019   7.358  0.0170 -0.0456  0.0399
  187SAPI  H10R21496   4.497   1.984   7.349  0.3232  0.2594  2.0107
  187SAPI  H10S21497   4.331   1.930   7.335 -0.4025  0.4510 -0.7529
  187SAPI  C21121498   4.357   2.059   7.500  0.4776 -0.3339 -0.1694
  187SAPI  H11R21499   4.441   2.104   7.557  0.3233  0.3227 -0.4618
  187SAPI  C21221500   4.237   2.040   7.563  0.0860  0.4095 -0.1476
  187SAPI  H12R21501   4.230   2.063   7.670  0.6878  0.3755 -0.1013
  187SAPI  C21321502   4.115   1.971   7.507  0.4147  0.1447 -0.1177
  187SAPI  H13R21503   4.147   1.914   7.417 -2.3626 -1.5869 -0.0685
  187SAPI  H13S21504   4.036   2.042   7.473  2.0721  2.2311  0.3251
  187SAPI  C21421505   4.055   1.876   7.612  0.2227 -0.2079  0.1516
  187SAPI  H14R21506   4.125   1.823   7.678 -0.0410 -0.1650  0.4687
  187SAPI  C21521507   3.928   1.870   7.650 -0.3056  0.2004 -0.4331
  187SAPI  H15R21508   3.909   1.810   7.740  1.6786  0.2101  0.0328
  187SAPI  C21621509   3.807   1.944   7.612  0.1229  0.1525 -0.0890
  187SAPI  H16R21510   3.770   1.895   7.520  0.2158 -0.4266  0.1802
  187SAPI  H16S21511   3.826   2.050   7.585  1.4492 -0.2920 -0.9667
  187SAPI  C21721512   3.694   1.951   7.721 -0.4673  0.1955 -0.1504
  187SAPI  H17R21513   3.688   1.847   7.761  0.5835 -0.5944 -1.9925
  187SAPI  H17S21514   3.602   1.991   7.675 -0.6967  0.0937  0.2147
  187SAPI  C21821515   3.730   2.031   7.849  0.4530  0.4027  0.4098
  187SAPI  H18R21516   3.731   2.139   7.822 -0.9413  0.1792 -0.5783
  187SAPI  H18S21517   3.833   1.997   7.874  0.1002 -3.3150 -2.7276
  187SAPI  C21921518   3.648   2.000   7.976  0.7221 -0.9520  0.0918
  187SAPI  H19R21519   3.664   2.094   8.033  1.3650 -0.4404 -0.9193
  187SAPI  H19S21520   3.686   1.907   8.025  0.7282 -0.0394  1.8744
  187SAPI  C22021521   3.498   2.002   7.946  0.4675  0.2320  0.2197
  187SAPI  H20R21522   3.447   1.987   8.044  1.7867 -2.1858  0.5790
  187SAPI  H20S21523   3.465   1.908   7.897  2.6798 -1.4006  1.7368
  187SAPI  H20T21524   3.465   2.092   7.890  1.8669  2.4843  2.9015
  187SAPI   C3321525   4.161   2.220   6.910  0.4432  0.0625  0.2123
  187SAPI   H3X21526   4.102   2.312   6.892  1.6043  0.5864 -1.0409
  187SAPI   H3Y21527   4.234   2.234   6.993  1.3249 -0.4464 -0.4675
  187SAPI   C3421528   4.077   2.111   6.976 -0.0990  0.1842 -0.2427
  187SAPI   H4X21529   4.143   2.028   7.007  0.0213  0.0747 -0.7836
  187SAPI   H4Y21530   4.014   2.062   6.898  0.9891 -0.7953 -0.5106
  187SAPI   C3521531   3.996   2.186   7.087  0.7267 -0.2199 -0.1468
  187SAPI   H5X21532   3.945   2.272   7.041  1.2316 -0.2706 -0.8143
  187SAPI   H5Y21533   4.056   2.205   7.179 -2.1234  2.7543  1.1761
  187SAPI   C3621534   3.891   2.093   7.146 -0.1227 -0.3726 -0.5773
  187SAPI   H6X21535   3.928   2.001   7.197 -0.3291 -0.5438 -0.7316
  187SAPI   H6Y21536   3.828   2.056   7.062 -0.4558  0.6371 -0.7678
  187SAPI   C3721537   3.806   2.173   7.252 -0.5012  0.3024  0.1834
  187SAPI   H7X21538   3.783   2.274   7.214  1.4049  0.7680  0.1998
  187SAPI   H7Y21539   3.866   2.194   7.344  1.8630 -0.2300 -1.1765
  187SAPI   C3821540   3.675   2.093   7.289  0.0550 -0.7050 -0.4898
  187SAPI   H8X21541   3.704   1.993   7.327 -2.2541 -0.9148  0.8381
  187SAPI   H8Y21542   3.612   2.068   7.201 -1.5643  1.4021  0.0335
  187SAPI   C3921543   3.592   2.162   7.399 -0.1911  0.2581 -0.2111
  187SAPI   H9X21544   3.563   2.264   7.364 -3.2801 -0.1467  0.9889
  187SAPI   H9Y21545   3.644   2.182   7.496 -0.9549 -0.4102  0.3451
  187SAPI  C31021546   3.450   2.105   7.430  0.0068  0.4269  0.4056
  187SAPI  H10X21547   3.459   2.004   7.477  0.1173  0.1267 -0.2614
  187SAPI  H10Y21548   3.386   2.093   7.340  0.3337 -1.3423  0.3986
  187SAPI  C31121549   3.365   2.190   7.530  0.3151  0.0300  0.5450
  187SAPI  H11X21550   3.346   2.290   7.485 -2.7622 -0.2392  1.1055
  187SAPI  H11Y21551   3.425   2.196   7.623 -0.2430  0.6338  0.8757
  187SAPI  C31221552   3.235   2.124   7.570 -0.5002  0.2203  0.3107
  187SAPI  H12X21553   3.239   2.013   7.576  1.2931  0.0250 -2.9586
  187SAPI  H12Y21554   3.163   2.146   7.489 -0.7593  0.1017  0.5080
  187SAPI  C31321555   3.182   2.172   7.706  0.2740  0.3911 -0.3968
  187SAPI  H13X21556   3.154   2.279   7.711 -0.1322  0.2669  0.0059
  187SAPI  H13Y21557   3.264   2.171   7.781 -0.3386  0.0831  0.2710
  187SAPI  C31421558   3.069   2.082   7.763 -0.3530  0.2313 -0.1005
  187SAPI  H14X21559   3.109   1.978   7.760 -0.5580  0.1840 -1.4169
  187SAPI  H14Y21560   2.977   2.081   7.700  1.2277 -0.2168 -2.4322
  187SAPI  C31521561   3.031   2.110   7.902  0.5239 -0.7451 -0.0144
  187SAPI  H15X21562   3.116   2.079   7.965  0.2925  2.4595  1.9597
  187SAPI  H15Y21563   2.945   2.049   7.936  0.9345 -0.3234  1.7992
  187SAPI  C31621564   2.983   2.255   7.927 -0.7650  0.0195 -0.5627
  187SAPI  H16X21565   2.922   2.282   7.839 -1.4288 -0.8025 -0.3661
  187SAPI  H16Y21566   3.071   2.322   7.932 -0.9210  0.1136  1.4026
  187SAPI  C31721567   2.899   2.277   8.054  0.0104  0.3241  0.3065
  187SAPI  H17X21568   2.814   2.205   8.053 -0.0475  0.3949 -0.4099
  187SAPI  H17Y21569   2.850   2.376   8.055 -0.6409  0.0016  0.8014
  187SAPI  C31821570   2.980   2.255   8.180 -0.7549 -0.2148 -0.4787
  187SAPI  H18X21571   3.034   2.158   8.178 -0.0675  0.1423  0.7339
  187SAPI  H18Y21572   2.915   2.264   8.269  1.8849 -1.5457  1.6673
  187SAPI  H18Z21573   3.057   2.334   8.195 -0.1144 -1.2149  1.6808
  188SAPI   C1221574   4.538   5.598   6.527  0.0079 -0.0996 -0.1787
  188SAPI    H221575   4.530   5.524   6.610 -0.3845 -0.9449 -0.9634
  188SAPI    O221576   4.408   5.635   6.501  0.2051 -0.5739  0.2640
  188SAPI   HO221577   4.353   5.556   6.498 -0.5641 -0.1637  2.5157
  188SAPI   C1321578   4.630   5.719   6.574 -0.5525  0.0673 -0.0083
  188SAPI    H321579   4.731   5.678   6.597 -1.3989 -0.5546  2.7834
  188SAPI    O321580   4.568   5.786   6.680 -0.3096  0.5113  0.2591
  188SAPI   HO321581   4.475   5.765   6.664 -0.2030 -1.3415  1.8505
  188SAPI   C1421582   4.648   5.807   6.456  0.3842 -0.3732  0.6417
  188SAPI    H421583   4.550   5.847   6.422  0.3976 -0.7080  0.1989
  188SAPI    O421584   4.730   5.918   6.507  0.1360  0.4505  0.1680
  188SAPI   HO421585   4.677   5.996   6.519 -2.1148 -1.2247  1.5817
  188SAPI   C1521586   4.717   5.746   6.337 -0.0858 -0.8028  0.6663
  188SAPI    H521587   4.815   5.710   6.375 -0.0569  0.8726  2.2230
  188SAPI    O521588   4.739   5.834   6.225 -0.0712  0.1576  0.9341
  188SAPI   HO521589   4.652   5.871   6.212 -1.0592 -1.5349  2.4754
  188SAPI   C1621590   4.634   5.620   6.297  0.4823 -0.5235 -0.2390
  188SAPI    H621591   4.542   5.651   6.244  0.3528  1.5918  1.1680
  188SAPI    O621592   4.705   5.555   6.188  0.0253  0.1652 -0.2625
  188SAPI   HO621593   4.646   5.554   6.112  2.0685  0.1099 -1.8746
  188SAPI   C1121594   4.609   5.530   6.411  0.2101  0.0993 -0.6632
  188SAPI    H121595   4.711   5.514   6.453 -0.6610 -2.5575  0.5463
  188SAPI     P21596   4.615   5.257   6.397  0.0854  0.3387 -0.2918
  188SAPI   O1321597   4.757   5.261   6.394 -0.4850 -0.6917 -0.7081
  188SAPI   O1421598   4.539   5.157   6.318 -0.1723  0.4349  0.3243
  188SAPI   O1221599   4.542   5.406   6.385  0.1714  0.0438  0.4448
  188SAPI   O1121600   4.585   5.233   6.555  0.6446 -0.7001 -0.1293
  188SAPI    C121601   4.454   5.186   6.589  0.6262  0.1583  0.1166
  188SAPI    HA21602   4.376   5.262   6.567  1.8454  0.8444 -1.9707
  188SAPI    HB21603   4.431   5.099   6.524  0.7326  2.4054 -3.0332
  188SAPI    C221604   4.455   5.135   6.742  1.0316 -0.3551  0.0405
  188SAPI    HS21605   4.348   5.140   6.773  1.0062 -1.6049  0.1663
  188SAPI   O2121606   4.532   5.221   6.825 -0.2232  0.4747  0.5194
  188SAPI   C2121607   4.485   5.345   6.838 -0.5560 -0.4668  0.4061
  188SAPI   O2221608   4.369   5.376   6.809  0.1870  0.0403  0.2509
  188SAPI   C2221609   4.593   5.435   6.902 -0.2060  0.0140  0.0145
  188SAPI   H2R21610   4.680   5.375   6.936  2.0674  2.7972 -0.7530
  188SAPI   H2S21611   4.635   5.498   6.821 -2.0787  0.4930 -0.6141
  188SAPI    C321612   4.511   4.986   6.750 -0.5376  0.2677  0.2202
  188SAPI    HX21613   4.609   4.983   6.697  0.1009 -0.3068  1.3917
  188SAPI    HY21614   4.441   4.925   6.690 -1.4560  2.0634 -0.5587
  188SAPI   O3121615   4.513   4.929   6.886 -0.3690 -0.4201  0.4187
  188SAPI   C3121616   4.622   4.940   6.960 -0.4846  0.2264  0.2794
  188SAPI   O3221617   4.731   4.974   6.911 -0.3241  0.6527  0.3253
  188SAPI   C3221618   4.595   4.908   7.109  0.5561 -0.8506 -0.6757
  188SAPI   H2X21619   4.548   4.809   7.129 -0.0522 -0.2884  0.7593
  188SAPI   H2Y21620   4.512   4.979   7.129  0.5817 -0.4073 -2.0629
  188SAPI   C2321621   4.542   5.527   7.018  0.1446 -0.6813  0.8876
  188SAPI   H3R21622   4.492   5.611   6.965  1.1530 -1.5962 -1.5544
  188SAPI   H3S21623   4.620   5.571   7.084 -0.8491  0.2687  1.4565
  188SAPI   C2421624   4.435   5.460   7.113 -0.0146  0.6270 -0.0001
  188SAPI   H4R21625   4.343   5.432   7.057 -1.2654  1.0118  1.8529
  188SAPI   H4S21626   4.398   5.530   7.191 -0.2872  2.4147 -1.6902
  188SAPI   C2521627   4.501   5.338   7.170  0.8573 -0.6394  0.5755
  188SAPI   H5R21628   4.529   5.264   7.094 -1.3092 -1.4533  0.5510
  188SAPI   C2621629   4.514   5.308   7.298  0.4259 -0.3794  0.0235
  188SAPI   H6R21630   4.569   5.217   7.326  1.6686  0.5956  0.7998
  188SAPI   C2721631   4.472   5.392   7.415 -0.5074  0.2780  0.1558
  188SAPI   H7R21632   4.476   5.337   7.512  1.2929  0.7893  0.3904
  188SAPI   H7S21633   4.367   5.429   7.408 -1.3083 -0.8723  4.4514
  188SAPI   C2821634   4.552   5.521   7.426 -0.5171  0.2472 -0.0910
  188SAPI   H8R21635   4.607   5.565   7.341 -0.7071  1.1147  0.2268
  188SAPI   C2921636   4.562   5.593   7.538  0.1618  0.1557 -0.2025
  188SAPI   H9R21637   4.611   5.691   7.544 -1.0465  0.7205  0.8492
  188SAPI  C21021638   4.511   5.563   7.675  0.6066  0.0880 -0.0959
  188SAPI  H10R21639   4.433   5.485   7.663  1.3758 -0.3914 -2.3874
  188SAPI  H10S21640   4.451   5.645   7.720  0.0702 -0.4518  0.1667
  188SAPI  C21121641   4.620   5.513   7.768  0.2864  0.9423 -0.5083
  188SAPI  H11R21642   4.698   5.456   7.715 -1.2204 -1.6805  0.0461
  188SAPI  C21221643   4.635   5.525   7.903 -0.2498 -0.2091  0.0679
  188SAPI  H12R21644   4.728   5.483   7.944  0.4037  2.0984  0.9825
  188SAPI  C21321645   4.542   5.601   7.997 -0.3113 -0.3264 -0.0360
  188SAPI  H13R21646   4.523   5.702   7.955  3.2164  0.2362 -0.4662
  188SAPI  H13S21647   4.593   5.612   8.095  0.5427 -1.7292 -0.3066
  188SAPI  C21421648   4.405   5.525   8.012  0.9262  0.0444  0.0238
  188SAPI  H14R21649   4.343   5.517   7.922  0.6473  0.9832  0.1250
  188SAPI  C21521650   4.372   5.450   8.124  0.3197 -0.0688  0.0673
  188SAPI  H15R21651   4.271   5.406   8.122 -0.1987  1.0540  0.9900
  188SAPI  C21621652   4.438   5.427   8.255  0.1089  0.7190  0.2703
  188SAPI  H16R21653   4.530   5.488   8.274  1.4465 -1.1261 -0.1896
  188SAPI  H16S21654   4.474   5.322   8.260 -1.7415  0.0908  0.8243
  188SAPI  C21721655   4.352   5.460   8.373  0.2003  0.1235 -0.2208
  188SAPI  H17R21656   4.261   5.397   8.363 -0.2810  0.9152 -0.9526
  188SAPI  H17S21657   4.312   5.564   8.368  1.4886  0.5658 -1.3993
  188SAPI  C21821658   4.412   5.438   8.517  0.2754 -0.2581 -0.6753
  188SAPI  H18R21659   4.497   5.507   8.534  0.2373 -0.7532  1.6458
  188SAPI  H18S21660   4.448   5.332   8.514  1.7480  0.2256 -0.4924
  188SAPI  C21921661   4.300   5.441   8.621 -0.9762  1.0204 -1.1759
  188SAPI  H19R21662   4.206   5.385   8.604 -1.2233  0.7815  0.8471
  188SAPI  H19S21663   4.276   5.545   8.651 -2.5368 -0.2188  2.0697
  188SAPI  C22021664   4.348   5.382   8.758 -0.2187  0.3268 -0.8417
  188SAPI  H20R21665   4.427   5.444   8.806 -1.5159  0.7062  0.8435
  188SAPI  H20S21666   4.374   5.275   8.749 -0.0384  0.3430 -0.5302
  188SAPI  H20T21667   4.267   5.403   8.832  0.0559  0.8831 -0.6960
  188SAPI   C3321668   4.712   4.935   7.204  0.1403 -0.1279 -0.1435
  188SAPI   H3X21669   4.763   5.033   7.194  0.5418 -0.3974 -0.8034
  188SAPI   H3Y21670   4.789   4.856   7.188  1.4860  0.8261  1.4238
  188SAPI   C3421671   4.668   4.929   7.352 -0.1737  0.5459 -0.2152
  188SAPI   H4X21672   4.671   4.822   7.382  0.7104  1.0869  1.7186
  188SAPI   H4Y21673   4.564   4.965   7.366  0.4105  1.5023  1.9883
  188SAPI   C3521674   4.749   5.019   7.446 -0.2629 -0.3425  0.1391
  188SAPI   H5X21675   4.753   5.124   7.411  0.3070 -0.4245 -0.0458
  188SAPI   H5Y21676   4.855   4.987   7.447 -0.5400 -1.2829  2.3400
  188SAPI   C3621677   4.692   5.023   7.589  0.6059 -0.3378  0.6115
  188SAPI   H6X21678   4.687   4.925   7.641  2.8163 -0.8402 -0.0809
  188SAPI   H6Y21679   4.586   5.049   7.567 -0.3141 -3.7571  0.6895
  188SAPI   C3721680   4.757   5.130   7.678 -0.3070 -0.4861 -0.6456
  188SAPI   H7X21681   4.769   5.232   7.636  0.6918 -1.1571 -2.0319
  188SAPI   H7Y21682   4.855   5.105   7.725 -0.4524 -0.7761 -0.4954
  188SAPI   C3821683   4.672   5.152   7.802 -0.2017 -0.2426 -0.2912
  188SAPI   H8X21684   4.613   5.059   7.816 -0.8816  0.1400 -0.5649
  188SAPI   H8Y21685   4.601   5.235   7.782 -1.0471 -1.2647 -1.5860
  188SAPI   C3921686   4.758   5.184   7.931  0.3134  0.0257  0.1861
  188SAPI   H9X21687   4.778   5.293   7.920  2.0088 -0.2591  0.3267
  188SAPI   H9Y21688   4.851   5.125   7.942  1.0846  1.3324  0.8628
  188SAPI  C31021689   4.680   5.156   8.059 -0.7877 -0.0777 -0.4007
  188SAPI  H10X21690   4.671   5.047   8.080  0.2098  0.2221  1.7298
  188SAPI  H10Y21691   4.579   5.202   8.054  0.4662  2.8902  0.3202
  188SAPI  C31121692   4.754   5.205   8.184  0.4595  0.1751  1.0746
  188SAPI  H11X21693   4.750   5.316   8.189  0.0673  0.1166  2.1727
  188SAPI  H11Y21694   4.857   5.165   8.170 -0.4107 -1.5279 -0.7453
  188SAPI  C31221695   4.701   5.149   8.319  0.0483  0.0019 -0.0776
  188SAPI  H12X21696   4.709   5.038   8.320 -0.4963 -0.0448  2.4571
  188SAPI  H12Y21697   4.595   5.173   8.338 -0.0467  0.4685 -1.1945
  188SAPI  C31321698   4.787   5.213   8.430 -0.3621 -0.0677 -0.7035
  188SAPI  H13X21699   4.762   5.320   8.443  0.8707 -0.0433  1.7566
  188SAPI  H13Y21700   4.891   5.198   8.394 -0.6699 -1.2787 -1.1152
  188SAPI  C31421701   4.780   5.126   8.560 -0.5651  0.3207  0.3010
  188SAPI  H14X21702   4.880   5.128   8.608 -1.0256  1.7842  1.2349
  188SAPI  H14Y21703   4.786   5.019   8.530 -0.4921  0.3437  0.2379
  188SAPI  C31521704   4.668   5.158   8.651 -0.2958 -0.4987  0.2578
  188SAPI  H15X21705   4.575   5.171   8.591 -0.0325 -0.5784 -0.1705
  188SAPI  H15Y21706   4.682   5.254   8.704 -1.8663 -1.3882  2.3465
  188SAPI  C31621707   4.650   5.054   8.764 -0.2801 -0.0494  0.5477
  188SAPI  H16X21708   4.566   5.091   8.827 -0.0967  1.3171 -0.0008
  188SAPI  H16Y21709   4.742   5.039   8.824  1.0082 -0.7800 -1.5431
  188SAPI  C31721710   4.600   4.921   8.716 -0.1909 -0.0034  0.2242
  188SAPI  H17X21711   4.650   4.884   8.625 -4.7720 -3.2415 -1.1986
  188SAPI  H17Y21712   4.491   4.923   8.693 -0.0678 -3.0983 -0.9136
  188SAPI  C31821713   4.620   4.809   8.822 -0.1759 -0.5471  0.1365
  188SAPI  H18X21714   4.728   4.786   8.817 -0.2732 -0.6824 -1.8438
  188SAPI  H18Y21715   4.557   4.718   8.817 -0.0284 -0.5989 -0.7382
  188SAPI  H18Z21716   4.607   4.852   8.924  1.4016 -0.7947  0.4437
  189POPC     N21717   5.131   0.023  11.330  0.5670 -0.3883  0.2455
  189POPC   C1221718   5.116  -0.007  11.182 -0.3738 -0.1954 -0.4593
  189POPC  H12A21719   5.033  -0.074  11.168  0.8095 -1.4570 -1.7367
  189POPC  H12B21720   5.201  -0.069  11.154 -0.3033 -1.6027  2.6344
  189POPC   C1321721   5.260   0.093  11.360  0.3315 -0.4179  0.5470
  189POPC  H13A21722   5.331   0.013  11.368  0.4375 -0.7771 -2.9315
  189POPC  H13B21723   5.290   0.178  11.300 -1.6432  0.4318  0.6999
  189POPC  H13C21724   5.262   0.132  11.461  3.8136  0.1826  0.2924
  189POPC   C1421725   5.015   0.097  11.380  0.3983 -0.2155  0.1048
  189POPC  H14A21726   5.030   0.107  11.487  0.2943 -2.6680  0.3641
  189POPC  H14B21727   5.004   0.190  11.326  2.3579 -0.0928 -0.1206
  189POPC  H14C21728   4.925   0.040  11.365  0.9813 -0.8879 -0.9265
  189POPC   C1521729   5.134  -0.106  11.398 -0.6326  0.6665 -0.2951
  189POPC  H15A21730   5.145  -0.101  11.506  0.9414  1.9713 -0.4926
  189POPC  H15B21731   5.216  -0.165  11.361  0.5301 -0.7185  4.1284
  189POPC  H15C21732   5.037  -0.153  11.396 -1.0655  1.4979  0.2726
  189POPC   C1121733   5.110   0.117  11.089 -0.2202  0.6788 -0.0164
  189POPC  H11A21734   5.106   0.091  10.981  1.6489 -1.0541  0.3070
  189POPC  H11B21735   5.193   0.184  11.120 -0.2303 -0.0963  1.7436
  189POPC     P21736   4.847   0.158  11.075  0.1696 -0.1906 -0.1342
  189POPC   O1321737   4.743   0.248  11.135  0.1253  0.0801  0.7384
  189POPC   O1421738   4.827   0.013  11.094 -0.4322  0.2942  0.5870
  189POPC   O1221739   4.992   0.198  11.119  0.2328  0.2155  0.4915
  189POPC   O1121740   4.845   0.186  10.918 -0.7585  0.3566  0.5449
  189POPC    C121741   4.806   0.310  10.867  0.4524 -0.2965  0.1407
  189POPC    HA21742   4.814   0.403  10.928 -0.3757  0.6472 -1.1517
  189POPC    HB21743   4.699   0.299  10.839  0.2632  1.3328  0.1577
  189POPC    C221744   4.883   0.336  10.734  0.5917  1.2224 -0.3652
  189POPC    HS21745   4.844   0.431  10.692 -0.7445  0.9469  0.2537
  189POPC   O2121746   4.871   0.229  10.644 -0.5503 -0.4642  0.3710
  189POPC   C2121747   4.750   0.231  10.584  0.0749 -0.4535  0.3346
  189POPC   O2221748   4.663   0.312  10.609 -0.2246  0.0610  0.1650
  189POPC   C2221749   4.739   0.129  10.471  0.3827  0.1708  0.4227
  189POPC   H2R21750   4.694   0.042  10.524 -0.1103 -0.0975 -0.4198
  189POPC   H2S21751   4.836   0.094  10.430 -0.8360  0.0911 -2.5427
  189POPC    C321752   5.037   0.355  10.774 -0.0432 -0.0433  0.5301
  189POPC    HX21753   5.080   0.253  10.775 -0.9271 -0.4282  0.3451
  189POPC    HY21754   5.041   0.394  10.878 -1.9982 -0.2884  0.7223
  189POPC   O3121755   5.104   0.425  10.670 -0.1125  0.4565  0.3557
  189POPC   C3121756   5.153   0.537  10.705  0.5093 -0.1466 -0.4419
  189POPC   O3221757   5.165   0.582  10.819 -0.3634 -0.0225 -0.1002
  189POPC   C3221758   5.205   0.622  10.589 -0.2810 -0.9130 -0.1086
  189POPC   H2X21759   5.316   0.616  10.578 -0.1581  1.4389 -0.4827
  189POPC   H2Y21760   5.177   0.720  10.634  5.4267  0.1982  1.4925
  189POPC   C2321761   4.640   0.166  10.354  0.2123  0.5286  0.3597
  189POPC   H3R21762   4.679   0.254  10.298 -0.4363  0.5884 -0.0017
  189POPC   H3S21763   4.546   0.200  10.401  0.0470 -2.4509  2.2961
  189POPC   C2421764   4.624   0.048  10.265 -0.1050 -0.2063 -0.0394
  189POPC   H4R21765   4.559  -0.017  10.327  1.4880 -1.2684  0.5434
  189POPC   H4S21766   4.717  -0.012  10.254 -0.2485 -0.8558  2.0914
  189POPC   C2521767   4.551   0.085  10.130 -0.1289 -0.1632 -0.4140
  189POPC   H5R21768   4.608   0.153  10.063  0.0053 -0.1898 -0.3249
  189POPC   H5S21769   4.453   0.132  10.157  0.7796  1.0105  0.9214
  189POPC   C2621770   4.528  -0.048  10.057 -0.5584  0.5540 -0.0678
  189POPC   H6R21771   4.461  -0.115  10.114 -1.4449  0.5199 -1.1348
  189POPC   H6S21772   4.625  -0.103  10.049 -0.6834  0.1002  1.4026
  189POPC   C2721773   4.466  -0.044   9.914 -0.2027  0.4670 -0.3404
  189POPC   H7R21774   4.527   0.021   9.847 -0.0406 -0.7194 -1.3664
  189POPC   H7S21775   4.369   0.010   9.917 -0.8759 -0.4117 -3.7143
  189POPC   C2821776   4.433  -0.185   9.852 -0.7275 -0.1970  0.3697
  189POPC   H8R21777   4.391  -0.171   9.750  0.0320  0.3701  0.1242
  189POPC   H8S21778   4.351  -0.215   9.919  0.3935 -0.7599  1.5126
  189POPC   C2921779   4.545  -0.282   9.853 -0.1529  0.2268 -0.4484
  189POPC   H9121780   4.547  -0.327   9.954 -1.7586  2.1728  0.4784
  189POPC  C21021781   4.607  -0.341   9.749  0.3325 -0.3924  0.1328
  189POPC  H10121782   4.682  -0.421   9.757 -1.8579 -2.4235  0.6876
  189POPC  C21121783   4.593  -0.289   9.607 -0.7588 -0.1363 -0.3567
  189POPC  H11R21784   4.494  -0.244   9.586 -0.9197 -1.2417 -2.0825
  189POPC  H11S21785   4.603  -0.382   9.547 -0.7098 -1.0020  0.9557
  189POPC  C21221786   4.694  -0.185   9.559  1.2160 -0.1033 -0.1352
  189POPC  H12R21787   4.794  -0.210   9.601  1.0588  0.9799  0.9084
  189POPC  H12S21788   4.669  -0.081   9.589  1.2573 -0.2884  0.5545
  189POPC  C21321789   4.690  -0.195   9.402 -0.2133 -0.1724 -0.5086
  189POPC  H13R21790   4.706  -0.299   9.367  0.0225 -0.4374  0.3860
  189POPC  H13S21791   4.761  -0.127   9.349  1.5115 -3.5475 -2.6731
  189POPC  C21421792   4.552  -0.167   9.336  0.0867  1.2151  0.0684
  189POPC  H14R21793   4.514  -0.072   9.379  0.8234  1.5592 -0.0311
  189POPC  H14S21794   4.489  -0.254   9.364 -0.4412 -0.2789 -5.2331
  189POPC  C21521795   4.554  -0.170   9.181 -1.1802 -0.4329 -0.1892
  189POPC  H15R21796   4.598  -0.267   9.147  1.2323  0.6735 -0.2977
  189POPC  H15S21797   4.623  -0.092   9.142 -0.7408 -0.2948  0.8615
  189POPC  C21621798   4.413  -0.170   9.118  0.0509 -0.1742 -0.4390
  189POPC  H16R21799   4.365  -0.074   9.150  2.8733  1.0806  0.2253
  189POPC  H16S21800   4.348  -0.251   9.156 -2.9239  2.1810 -0.2402
  189POPC  C21721801   4.422  -0.157   8.969  0.2229 -0.1873 -0.2699
  189POPC  H17R21802   4.481  -0.244   8.932  0.2487  0.1640 -1.0820
  189POPC  H17S21803   4.487  -0.070   8.944  2.9872 -2.2549 -0.4571
  189POPC  C21821804   4.281  -0.164   8.908 -0.8573  0.0460  0.6631
  189POPC  H18R21805   4.291  -0.185   8.799  0.6973  1.3728  0.5292
  189POPC  H18S21806   4.233  -0.064   8.913 -4.3934 -1.5008 -0.4752
  189POPC  H18T21807   4.215  -0.245   8.946 -0.5250 -1.3387 -1.5788
  189POPC   C3321808   5.125   0.592  10.461 -0.6225  0.2586  0.1833
  189POPC   H3X21809   5.120   0.482  10.445  1.3407  0.1744  0.0138
  189POPC   H3Y21810   5.167   0.635  10.368 -0.9119  0.6748  0.2449
  189POPC   C3421811   4.975   0.636  10.465 -0.2559 -0.2586  0.2758
  189POPC   H4X21812   4.987   0.733  10.519  0.5318 -1.2197  1.8853
  189POPC   H4Y21813   4.922   0.568  10.534 -0.9139 -0.8515 -0.8107
  189POPC   C3521814   4.902   0.643  10.335  0.2317 -0.1693 -0.4086
  189POPC   H5X21815   4.936   0.714  10.256  3.4870  0.3018  1.3071
  189POPC   H5Y21816   4.798   0.678  10.351  0.0895 -0.6011 -0.3955
  189POPC   C3621817   4.900   0.500  10.272  0.3587 -0.6244  0.2953
  189POPC   H6X21818   4.879   0.434  10.359 -0.4453 -1.2484 -0.3570
  189POPC   H6Y21819   5.001   0.480  10.232  1.3129 -0.5991  2.6089
  189POPC   C3721820   4.789   0.471  10.175  0.6158 -0.1939  0.1826
  189POPC   H7X21821   4.693   0.506  10.217  1.6793  2.2238  0.6434
  189POPC   H7Y21822   4.783   0.360  10.164 -0.3755 -0.3350  1.9885
  189POPC   C3821823   4.800   0.547  10.039 -0.0319  0.0952  0.6001
  189POPC   H8X21824   4.789   0.658  10.045  4.4846  0.7028 -0.1243
  189POPC   H8Y21825   4.711   0.507   9.986 -1.0894  0.4229  2.0925
  189POPC   C3921826   4.933   0.515   9.974  0.0982 -0.7164 -0.0906
  189POPC   H9X21827   4.965   0.416  10.011 -2.5590 -1.0467  1.4540
  189POPC   H9Y21828   5.015   0.583  10.005  1.9371 -2.0103 -1.9781
  189POPC  C31021829   4.919   0.497   9.823  0.0686  0.6126  0.5701
  189POPC  H10X21830   4.859   0.403   9.821  0.2165  0.5373 -0.9055
  189POPC  H10Y21831   5.020   0.472   9.784  0.6737  1.2445  1.7031
  189POPC  C31121832   4.845   0.603   9.740  0.4498 -0.8240 -1.0649
  189POPC  H11X21833   4.911   0.693   9.738  0.6486 -0.9304  0.2593
  189POPC  H11Y21834   4.741   0.615   9.777  0.8096  0.5855 -0.4905
  189POPC  C31221835   4.835   0.556   9.594  0.1181  0.2827 -0.3534
  189POPC  H12X21836   4.768   0.468   9.585 -1.6825  1.1066  3.6357
  189POPC  H12Y21837   4.941   0.532   9.572  0.0913  2.5057 -3.2012
  189POPC  C31321838   4.783   0.660   9.497 -0.6126  0.0210 -0.0148
  189POPC  H13X21839   4.847   0.750   9.511  0.2220 -0.7851  1.4541
  189POPC  H13Y21840   4.681   0.689   9.528  0.0337  1.9053  0.4075
  189POPC  C31421841   4.790   0.633   9.350 -0.2936  0.3840 -0.1525
  189POPC  H14X21842   4.733   0.541   9.327  0.1971 -0.1787  0.8172
  189POPC  H14Y21843   4.887   0.602   9.307 -0.6662 -0.1615 -0.5962
  189POPC  C31521844   4.743   0.758   9.270 -0.5935  0.1598  0.2960
  189POPC  H15X21845   4.817   0.837   9.294 -0.8634  1.2195 -2.1999
  189POPC  H15Y21846   4.644   0.796   9.301 -0.0057 -0.2968  2.7975
  189POPC  C31621847   4.737   0.732   9.121 -0.5027  1.2987 -0.4573
  189POPC  H16X21848   4.709   0.817   9.055 -0.1449  1.7356 -0.0529
  189POPC  H16Y21849   4.650   0.665   9.107  0.5036 -0.3656  1.0479
  189POPC  H16Z21850   4.827   0.675   9.089 -0.9218  1.2056 -1.4840
  190POPC     N21851   0.030   3.349  11.248 -0.0528  0.2927 -0.0596
  190POPC   C1221852  -0.104   3.401  11.196  0.5034 -0.3950 -0.3856
  190POPC  H12A21853  -0.096   3.509  11.196 -0.6566 -0.2961  0.3499
  190POPC  H12B21854  -0.178   3.378  11.272  1.0289  1.5417  0.7491
  190POPC   C1321855   0.036   3.204  11.230 -0.5721  0.7273  0.8407
  190POPC  H13A21856  -0.041   3.148  11.282 -1.0625  1.7825  1.2626
  190POPC  H13B21857   0.019   3.184  11.125  1.3234  0.4800  0.5656
  190POPC  H13C21858   0.126   3.154  11.261  0.9440  0.5606 -3.5062
  190POPC   C1421859   0.139   3.398  11.167  0.0461  0.2539  0.1138
  190POPC  H14A21860   0.174   3.497  11.193  0.0702 -0.4553  2.9011
  190POPC  H14B21861   0.217   3.324  11.168 -1.1823 -1.0868 -1.0874
  190POPC  H14C21862   0.095   3.401  11.068 -1.6626  3.6759  0.9069
  190POPC   C1521863   0.036   3.381  11.393  0.0558  0.0978 -0.1275
  190POPC  H15A21864   0.025   3.486  11.418 -0.7883 -0.4460  1.8701
  190POPC  H15B21865   0.133   3.355  11.433 -0.8905  0.9771  2.9285
  190POPC  H15C21866  -0.040   3.323  11.443 -0.3526 -0.3935 -1.3022
  190POPC   C1121867  -0.160   3.353  11.052 -0.3005  0.1690 -0.1898
  190POPC  H11A21868  -0.261   3.399  11.041 -0.2780  0.5448  1.1460
  190POPC  H11B21869  -0.182   3.245  11.064 -0.5560  0.2247 -0.1502
  190POPC     P21870  -0.050   3.516  10.882 -0.0901 -0.3884 -0.0659
  190POPC   O1321871   0.093   3.533  10.910 -0.5369 -0.2290  0.7083
  190POPC   O1421872  -0.144   3.617  10.932  0.1980  0.5452  0.6216
  190POPC   O1221873  -0.073   3.380  10.950 -0.4248 -0.1400 -0.3050
  190POPC   O1121874  -0.070   3.487  10.729 -0.5184 -0.2871  0.0052
  190POPC    C121875  -0.099   3.358  10.688 -0.3993  0.3987 -0.3528
  190POPC    HA21876  -0.208   3.334  10.685 -0.2484 -0.6664  1.9182
  190POPC    HB21877  -0.050   3.285  10.755 -0.4484 -0.4284 -1.2107
  190POPC    C221878  -0.047   3.335  10.548 -0.6867 -0.3766 -0.3093
  190POPC    HS21879   0.051   3.382  10.529 -1.6297  2.1152  0.8496
  190POPC   O2121880  -0.143   3.372  10.448 -0.1930  0.2994  0.1825
  190POPC   C2121881  -0.175   3.497  10.429  0.1667 -0.5858  0.2589
  190POPC   O2221882  -0.114   3.597  10.463 -0.1768  0.3456 -0.2582
  190POPC   C2221883  -0.287   3.494  10.335 -0.1671 -0.3305  0.3375
  190POPC   H2R21884  -0.383   3.503  10.390  0.7923  3.0044  1.5661
  190POPC   H2S21885  -0.305   3.398  10.283 -1.1290 -0.0559  0.1460
  190POPC    C321886  -0.011   3.180  10.533  0.3595  0.1222 -0.6964
  190POPC    HX21887  -0.109   3.134  10.555 -0.0341  1.4725  0.4346
  190POPC    HY21888   0.062   3.148  10.610 -0.1343  0.7298  0.0302
  190POPC   O3121889   0.033   3.140  10.397 -0.0706 -0.1148 -0.5079
  190POPC   C3121890   0.150   3.172  10.363 -0.4532  0.1885  0.1126
  190POPC   O3221891   0.227   3.243  10.433  0.2385  0.1363  0.2710
  190POPC   C3221892   0.183   3.133  10.220 -0.2509 -0.3034  0.4369
  190POPC   H2X21893   0.190   3.227  10.161  2.2097 -0.2601  0.7695
  190POPC   H2Y21894   0.112   3.059  10.176 -0.0375 -0.3873  0.2404
  190POPC   C2321895  -0.301   3.628  10.249  0.1392  0.5920 -0.3478
  190POPC   H3R21896  -0.272   3.713  10.314 -3.1555  0.6526  1.1465
  190POPC   H3S21897  -0.409   3.646  10.229  0.1958  0.2393 -0.9801
  190POPC   C2421898  -0.230   3.615  10.118  0.0957  0.6673  0.6105
  190POPC   H4R21899  -0.131   3.568  10.136  0.3696 -0.5184 -3.4779
  190POPC   H4S21900  -0.203   3.719  10.092 -0.2185  0.6841  0.3592
  190POPC   C2521901  -0.307   3.539  10.012 -0.5291 -1.1302  0.3430
  190POPC   H5R21902  -0.414   3.567  10.008  0.4493  2.8483 -1.1165
  190POPC   H5S21903  -0.297   3.429  10.025 -0.6293 -1.5295 -2.6067
  190POPC   C2621904  -0.266   3.578   9.864 -0.4024 -0.1997  0.2633
  190POPC   H6R21905  -0.335   3.518   9.802 -1.0558 -0.8650  1.6069
  190POPC   H6S21906  -0.160   3.554   9.842 -0.5432 -1.9341  1.3758
  190POPC   C2721907  -0.277   3.726   9.820 -0.1846 -0.2662 -0.2330
  190POPC   H7R21908  -0.183   3.774   9.853 -0.3285  0.6965 -1.1912
  190POPC   H7S21909  -0.353   3.791   9.869  2.2606  2.0143  0.6692
  190POPC   C2821910  -0.288   3.732   9.664  0.1743  0.0707 -0.1512
  190POPC   H8R21911  -0.289   3.839   9.633  0.2879  0.6502  1.7745
  190POPC   H8S21912  -0.378   3.673   9.635  0.9720 -1.7356  0.9660
  190POPC   C2921913  -0.165   3.683   9.603  0.7955  0.3559 -0.4247
  190POPC   H9121914  -0.078   3.656   9.666 -0.5109 -1.9243  0.4733
  190POPC  C21021915  -0.152   3.675   9.472  0.1363 -0.5088 -0.5891
  190POPC  H10121916  -0.054   3.652   9.428  1.2369  1.0313  0.9728
  190POPC  C21121917  -0.262   3.720   9.376 -0.5138 -0.5084 -0.5372
  190POPC  H11R21918  -0.308   3.811   9.420  0.7730 -0.8018  1.5425
  190POPC  H11S21919  -0.339   3.641   9.369  0.1011 -1.3115  1.4815
  190POPC  C21221920  -0.200   3.745   9.234  0.1722 -0.6475  0.2883
  190POPC  H12R21921  -0.124   3.825   9.240 -0.8997  0.2563  2.1067
  190POPC  H12S21922  -0.278   3.784   9.165 -0.2714 -1.7672  0.1348
  190POPC  C21321923  -0.125   3.624   9.172 -0.4666 -0.4547  0.1128
  190POPC  H13R21924  -0.193   3.536   9.167 -0.8788 -0.1316 -0.0910
  190POPC  H13S21925  -0.038   3.603   9.236 -0.0783  1.4946  0.2661
  190POPC  C21421926  -0.062   3.640   9.033 -0.1120 -0.8456 -0.6805
  190POPC  H14R21927  -0.149   3.638   8.964 -0.2463  0.1821 -0.5446
  190POPC  H14S21928  -0.007   3.547   9.005  1.8009  0.5517 -1.7063
  190POPC  C21521929   0.025   3.765   9.014 -0.7438  0.3834 -0.8698
  190POPC  H15R21930   0.114   3.764   9.081 -0.1173 -1.1155 -1.6983
  190POPC  H15S21931  -0.043   3.850   9.037 -0.2449  0.0446  2.0116
  190POPC  C21621932   0.067   3.788   8.870  0.1228  0.3954 -0.0076
  190POPC  H16R21933  -0.012   3.825   8.802  1.4975  0.5772 -1.5343
  190POPC  H16S21934   0.112   3.699   8.822  1.9753  0.9151  0.6953
  190POPC  C21721935   0.161   3.911   8.848 -0.0336  0.1848 -0.5374
  190POPC  H17R21936   0.266   3.889   8.876  0.4240  1.2961 -1.3483
  190POPC  H17S21937   0.129   4.001   8.904 -0.3006  0.0157 -0.4190
  190POPC  C21821938   0.169   3.954   8.698 -0.0297  0.1689  0.5082
  190POPC  H18R21939   0.230   3.876   8.647 -0.2585  1.5307 -1.9263
  190POPC  H18S21940   0.221   4.052   8.700  1.6439 -0.6229 -1.4283
  190POPC  H18T21941   0.073   3.974   8.647 -0.3747 -1.4103  0.5088
  190POPC   C3321942   0.321   3.065  10.203 -0.1480 -0.8108  0.0106
  190POPC   H3X21943   0.368   3.034  10.298  0.9603  1.7970  0.3744
  190POPC   H3Y21944   0.390   3.147  10.173 -1.1622  0.0003 -0.1455
  190POPC   C3421945   0.328   2.964  10.088  0.9551 -0.4093 -0.2407
  190POPC   H4X21946   0.245   2.893  10.107  1.7760 -1.3576 -0.1528
  190POPC   H4Y21947   0.426   2.911  10.098  1.5389  0.4108 -1.5354
  190POPC   C3521948   0.310   3.035   9.949  0.3986  0.4357  0.0542
  190POPC   H5X21949   0.397   3.102   9.936 -1.2233  2.6946  0.5179
  190POPC   H5Y21950   0.221   3.101   9.949  1.5035  1.9551 -0.4304
  190POPC   C3621951   0.297   2.938   9.829  0.4463 -0.1878  0.0895
  190POPC   H6X21952   0.216   2.863   9.844  1.0141 -0.5323  1.4642
  190POPC   H6Y21953   0.395   2.886   9.825 -0.3357 -1.6350 -1.0447
  190POPC   C3721954   0.271   3.007   9.695 -0.0364  0.2170  0.4471
  190POPC   H7X21955   0.325   3.104   9.691 -1.2406  0.8517 -0.7040
  190POPC   H7Y21956   0.163   3.030   9.693  0.0837  0.8505  1.0701
  190POPC   C3821957   0.291   2.915   9.574 -0.6025  0.0766  0.2068
  190POPC   H8X21958   0.233   2.820   9.577 -1.1229  0.3426 -0.8998
  190POPC   H8Y21959   0.400   2.896   9.564 -0.6009  0.7966 -1.4018
  190POPC   C3921960   0.247   2.984   9.445 -0.4766 -0.4912  0.5764
  190POPC   H9X21961   0.284   3.087   9.466  0.1907 -0.9655  1.7978
  190POPC   H9Y21962   0.140   2.963   9.427 -0.3491 -0.0953 -0.6752
  190POPC  C31021963   0.312   2.928   9.319 -0.3678 -0.0807  0.1732
  190POPC  H10X21964   0.293   2.819   9.309 -0.3922 -0.2956  2.3246
  190POPC  H10Y21965   0.416   2.954   9.349 -0.8017  0.4048  1.2993
  190POPC  C31121966   0.285   3.021   9.196 -0.6702 -0.8807 -0.4130
  190POPC  H11X21967   0.313   3.124   9.226 -1.9913 -0.4387 -0.6394
  190POPC  H11Y21968   0.180   3.024   9.159 -0.6420  0.9563 -0.3707
  190POPC  C31221969   0.375   2.977   9.078 -0.3791 -0.7218 -0.0197
  190POPC  H12X21970   0.483   2.977   9.105  0.0089  1.1724 -1.4884
  190POPC  H12Y21971   0.357   3.046   8.994  1.4234 -0.4627 -0.2112
  190POPC  C31321972   0.349   2.836   9.026 -0.3406 -0.8414 -0.6850
  190POPC  H13X21973   0.245   2.798   9.036 -0.0748 -1.0858  1.3966
  190POPC  H13Y21974   0.401   2.773   9.101 -0.6500  0.5956  0.7543
  190POPC  C31421975   0.394   2.806   8.881 -0.1051  0.0730  0.5244
  190POPC  H14X21976   0.504   2.791   8.878 -0.2074 -0.8089  0.8182
  190POPC  H14Y21977   0.362   2.884   8.809  0.3068 -0.7209 -0.5369
  190POPC  C31521978   0.324   2.681   8.830  0.4988  0.1267 -0.8178
  190POPC  H15X21979   0.349   2.676   8.722 -1.4980  1.5255 -1.3848
  190POPC  H15Y21980   0.214   2.696   8.834  0.4068 -0.7398  0.0002
  190POPC  C31621981   0.359   2.554   8.904  0.1286  0.1901  0.0071
  190POPC  H16X21982   0.349   2.463   8.841 -0.9350  2.1707 -2.8019
  190POPC  H16Y21983   0.298   2.543   8.996 -1.4242  2.0137 -0.7580
  190POPC  H16Z21984   0.462   2.564   8.944  0.2105  0.0803 -0.1716
  191POPC     N21985   0.421   4.213   6.138  0.6123  0.4828  0.9134
  191POPC   C1221986   0.364   4.234   6.280 -0.2275 -0.1171 -0.2112
  191POPC  H12A21987   0.265   4.276   6.277 -0.9818 -1.6257  2.3902
  191POPC  H12B21988   0.409   4.313   6.337 -1.5653 -0.5737  1.5141
  191POPC   C1321989   0.387   4.075   6.083  0.1034  0.1222  0.1508
  191POPC  H13A21990   0.393   4.064   5.975  0.7104  1.6992  0.0100
  191POPC  H13B21991   0.450   3.998   6.124  0.6754 -0.6925 -2.1871
  191POPC  H13C21992   0.285   4.058   6.113 -0.2341  0.6111 -0.6819
  191POPC   C1421993   0.396   4.328   6.053  0.5219  0.1433 -0.3470
  191POPC  H14A21994   0.289   4.336   6.045  0.3988 -0.9293  0.0511
  191POPC  H14B21995   0.420   4.418   6.107 -0.6500 -0.1019  0.6052
  191POPC  H14C21996   0.425   4.326   5.949 -1.8338  0.4623 -1.0527
  191POPC   C1521997   0.569   4.204   6.161 -0.5908 -0.5829 -0.5050
  191POPC  H15A21998   0.626   4.175   6.074  0.8432  0.1247  0.1920
  191POPC  H15B21999   0.602   4.137   6.238 -0.5561  0.0443  0.0283
  191POPC  H15C22000   0.607   4.303   6.182  0.9497 -1.0120 -1.2451
  191POPC   C1122001   0.354   4.116   6.372 -0.1680  0.6710 -0.0555
  191POPC  H11A22002   0.342   4.158   6.474  1.1162  2.5848 -0.6732
  191POPC  H11B22003   0.455   4.072   6.376 -0.7562 -0.6497  0.6287
  191POPC     P22004   0.250   3.881   6.387 -0.0888 -0.4702  0.0302
  191POPC   O1322005   0.358   3.815   6.315 -0.3147  0.6421 -0.8514
  191POPC   O1422006   0.114   3.825   6.366  0.6689 -0.4888  0.3442
  191POPC   O1222007   0.250   4.027   6.332 -0.1946 -0.4525  0.0048
  191POPC   O1122008   0.290   3.902   6.535 -0.1625 -0.1576  0.1441
  191POPC    C122009   0.195   3.959   6.627  0.4964 -0.0906 -0.6606
  191POPC    HA22010   0.097   3.908   6.613  1.2483 -1.3456 -1.4269
  191POPC    HB22011   0.183   4.068   6.611 -1.6954 -0.2692 -0.4318
  191POPC    C222012   0.254   3.942   6.768 -0.0945 -0.5060 -0.6560
  191POPC    HS22013   0.188   4.009   6.827  2.4121  2.5524 -1.2170
  191POPC   O2122014   0.394   3.979   6.770 -0.0576 -0.0162  0.0672
  191POPC   C2122015   0.410   4.105   6.755 -0.7326 -0.2458  0.1950
  191POPC   O2222016   0.324   4.197   6.758 -0.3056 -0.2223  0.2985
  191POPC   C2222017   0.562   4.129   6.717  0.2961 -0.1094  0.4622
  191POPC   H2R22018   0.576   4.158   6.611 -2.0452  1.9708  0.6726
  191POPC   H2S22019   0.621   4.038   6.741 -0.2899 -0.8317 -0.7561
  191POPC    C322020   0.257   3.790   6.813 -0.7422 -0.0958 -0.2753
  191POPC    HX22021   0.354   3.744   6.783 -0.5792 -0.7412  1.1976
  191POPC    HY22022   0.174   3.744   6.756 -1.8448 -0.1119  1.3019
  191POPC   O3122023   0.224   3.782   6.954 -0.1918  0.3986  0.0586
  191POPC   C3122024   0.277   3.681   7.014  0.0904 -0.1101 -0.1520
  191POPC   O3222025   0.349   3.597   6.958 -0.1987 -0.4264  0.2941
  191POPC   C3222026   0.238   3.691   7.159  0.4257  0.8786  0.1602
  191POPC   H2X22027   0.134   3.725   7.180  0.5144  0.4826  1.2593
  191POPC   H2Y22028   0.306   3.761   7.214  4.1508 -3.1574  0.9726
  191POPC   C2322029   0.630   4.235   6.810 -0.2455  0.4929  0.9415
  191POPC   H3R22030   0.556   4.318   6.809  0.2466  0.9374  0.3139
  191POPC   H3S22031   0.727   4.274   6.770  1.4699  0.7247  5.0679
  191POPC   C2422032   0.654   4.185   6.952  0.3447 -0.4209 -0.1621
  191POPC   H4R22033   0.745   4.121   6.953  0.0269 -0.8762  1.0739
  191POPC   H4S22034   0.577   4.122   7.000 -0.0577 -0.7888 -1.2830
  191POPC   C2522035   0.694   4.306   7.041  0.4138 -1.1223  0.6431
  191POPC   H5R22036   0.607   4.375   7.045  2.2587  1.3298 -0.2627
  191POPC   H5S22037   0.785   4.349   6.995 -0.1636  0.4543  0.9577
  191POPC   C2622038   0.728   4.275   7.186  0.2153 -0.7981  0.4700
  191POPC   H6R22039   0.792   4.359   7.222  0.1613  0.0558 -1.3661
  191POPC   H6S22040   0.802   4.193   7.176  1.1498  0.2040 -1.1685
  191POPC   C2722041   0.608   4.262   7.275  0.0195  0.7799  0.1405
  191POPC   H7R22042   0.634   4.201   7.364  3.9184  0.2922 -1.2707
  191POPC   H7S22043   0.524   4.222   7.215  1.2243 -1.4601 -0.0954
  191POPC   C2822044   0.561   4.403   7.323  0.5314  0.2400  0.2959
  191POPC   H8R22045   0.556   4.478   7.242 -1.1406  0.5500  0.6600
  191POPC   H8S22046   0.639   4.439   7.393  0.2702 -0.9125  1.2061
  191POPC   C2922047   0.426   4.377   7.394  0.1050 -0.3452  0.0370
  191POPC   H9122048   0.348   4.413   7.326 -0.6573 -1.5117  0.2778
  191POPC  C21022049   0.401   4.351   7.523  0.8574 -0.2876  0.9044
  191POPC  H10122050   0.294   4.332   7.542  0.2341 -0.0267 -2.1312
  191POPC  C21122051   0.493   4.329   7.643  0.0541  0.4105 -0.4829
  191POPC  H11R22052   0.504   4.416   7.711 -1.6020 -0.7839  1.3800
  191POPC  H11S22053   0.595   4.294   7.617  0.3096  1.6401 -1.1636
  191POPC  C21222054   0.434   4.220   7.727 -0.3963  0.6360 -0.6499
  191POPC  H12R22055   0.509   4.215   7.809 -1.4905  1.6512  0.4224
  191POPC  H12S22056   0.414   4.120   7.682  0.4407 -0.5210  1.4220
  191POPC  C21322057   0.309   4.259   7.815  0.3801 -0.4221 -0.4175
  191POPC  H13R22058   0.225   4.305   7.758 -0.3186  0.1120  1.0272
  191POPC  H13S22059   0.356   4.333   7.883  0.3376 -0.6136 -0.1820
  191POPC  C21422060   0.280   4.139   7.900  0.4816  0.3298 -1.0953
  191POPC  H14R22061   0.371   4.097   7.947 -0.6061 -0.9445 -0.0810
  191POPC  H14S22062   0.239   4.052   7.843 -0.8156  0.3210 -0.1857
  191POPC  C21522063   0.164   4.166   8.004 -0.8443 -0.8513  0.3161
  191POPC  H15R22064   0.063   4.155   7.959 -1.3144  1.6390  0.6713
  191POPC  H15S22065   0.169   4.274   8.029 -1.1391 -0.8123  0.2127
  191POPC  C21622066   0.173   4.092   8.144  0.0365  0.1688  0.6991
  191POPC  H16R22067   0.275   4.105   8.187  1.3210 -1.7883 -1.6187
  191POPC  H16S22068   0.156   3.983   8.129 -2.9411  0.7262 -0.3754
  191POPC  C21722069   0.056   4.151   8.229  0.2648 -0.7308 -0.3808
  191POPC  H17R22070  -0.043   4.139   8.179 -0.1667  0.2487  0.2229
  191POPC  H17S22071   0.068   4.261   8.233  0.4544 -0.7411 -0.6507
  191POPC  C21822072   0.042   4.087   8.374 -0.1723  0.4691  0.0969
  191POPC  H18R22073   0.130   4.085   8.442  1.1427 -1.4879 -1.5824
  191POPC  H18S22074   0.021   3.980   8.354  0.6823  0.0711  1.2318
  191POPC  H18T22075  -0.049   4.129   8.421 -0.0107  1.9733 -0.9354
  191POPC   C3322076   0.262   3.552   7.232  0.2019 -0.2379  0.2117
  191POPC   H3X22077   0.372   3.537   7.237  0.4908  1.5640 -0.1087
  191POPC   H3Y22078   0.217   3.470   7.172 -1.7895  1.0424 -0.1060
  191POPC   C3422079   0.203   3.553   7.377  0.4240 -0.4956 -0.0314
  191POPC   H4X22080   0.098   3.589   7.363  1.0438  0.5977 -2.1587
  191POPC   H4Y22081   0.249   3.634   7.438 -0.1312  0.2805 -0.6242
  191POPC   C3522082   0.204   3.420   7.450 -0.0747  0.2425  0.5700
  191POPC   H5X22083   0.301   3.366   7.449 -0.1010  0.1904  0.7164
  191POPC   H5Y22084   0.136   3.351   7.395 -0.1900  0.7799  0.0387
  191POPC   C3622085   0.149   3.431   7.592  0.1831  0.2156  0.3047
  191POPC   H6X22086   0.047   3.473   7.577  0.1084 -0.5150 -1.3064
  191POPC   H6Y22087   0.199   3.512   7.651 -1.5796  0.9721  0.7822
  191POPC   C3722088   0.154   3.297   7.666 -0.0709 -0.0766 -0.1647
  191POPC   H7X22089   0.247   3.248   7.629  1.9539  1.7187  2.4069
  191POPC   H7Y22090   0.070   3.240   7.621 -0.2182  0.5090 -0.6360
  191POPC   C3822091   0.160   3.310   7.824  0.0149 -1.0870  1.2632
  191POPC   H8X22092   0.249   3.360   7.866  0.3586  0.2437 -0.9623
  191POPC   H8Y22093   0.175   3.207   7.862  0.4029 -1.1396  0.9682
  191POPC   C3922094   0.035   3.386   7.884 -0.6732 -0.4646 -0.5324
  191POPC   H9X22095  -0.057   3.371   7.824 -2.5482  0.3395  2.0309
  191POPC   H9Y22096   0.068   3.491   7.873 -1.9833  0.0675  0.5488
  191POPC  C31022097   0.005   3.355   8.032 -0.5990 -0.1388 -0.2030
  191POPC  H10X22098  -0.005   3.244   8.042 -0.2619 -0.0306  1.5690
  191POPC  H10Y22099  -0.096   3.398   8.052 -2.2680 -2.7452 -2.5953
  191POPC  C31122100   0.098   3.408   8.144 -0.2677 -0.5667 -0.7360
  191POPC  H11X22101   0.194   3.355   8.126 -0.4856 -0.9381 -0.8159
  191POPC  H11Y22102   0.047   3.377   8.238 -1.4976  0.9963 -0.8552
  191POPC  C31222103   0.110   3.559   8.138 -0.7786  0.9565 -0.2195
  191POPC  H12X22104   0.011   3.600   8.166 -0.5845  0.2181  1.5675
  191POPC  H12Y22105   0.145   3.602   8.042 -1.6319 -0.2599 -1.0919
  191POPC  C31322106   0.219   3.614   8.241  0.5011  0.1799 -0.3227
  191POPC  H13X22107   0.204   3.724   8.251  0.3725  0.2026 -0.7563
  191POPC  H13Y22108   0.319   3.594   8.198  0.8443  0.6611  0.2369
  191POPC  C31422109   0.206   3.553   8.378  0.3135  0.2422 -0.5651
  191POPC  H14X22110   0.289   3.592   8.440 -0.0522  0.5603 -0.2695
  191POPC  H14Y22111   0.213   3.442   8.379  0.3349  0.2515  0.3068
  191POPC  C31522112   0.071   3.599   8.456 -0.3440 -0.3212 -0.0953
  191POPC  H15X22113  -0.015   3.567   8.394 -1.3134  2.8553 -0.4422
  191POPC  H15Y22114   0.085   3.708   8.470 -0.9423 -0.3505  0.7673
  191POPC  C31622115   0.072   3.533   8.599 -0.2032 -0.0517 -0.2826
  191POPC  H16X22116   0.035   3.430   8.614 -0.6145  0.1487  0.0949
  191POPC  H16Y22117   0.021   3.606   8.665  0.9237  0.7260 -0.2505
  191POPC  H16Z22118   0.182   3.532   8.619 -0.1223  0.4039 -0.6811
  192POPC     N22119   5.285   6.509   6.068 -0.9914 -0.1307  0.4690
  192POPC   C1222120   5.351   6.491   6.209 -0.2440 -0.4939 -0.5396
  192POPC  H12A22121   5.342   6.386   6.236 -1.3355 -0.5581 -1.1314
  192POPC  H12B22122   5.296   6.553   6.279  2.6208 -1.4600  2.7265
  192POPC   C1322123   5.140   6.479   6.089 -0.3119  0.1680  0.1942
  192POPC  H13A22124   5.087   6.470   5.995 -0.4614 -0.4271  0.3371
  192POPC  H13B22125   5.118   6.390   6.146  0.1195  1.0712  1.7806
  192POPC  H13C22126   5.088   6.548   6.154 -1.0616 -0.0688 -0.1445
  192POPC   C1422127   5.313   6.651   6.020  0.2856 -0.6798  0.0416
  192POPC  H14A22128   5.418   6.667   6.041  0.0868 -0.4745  0.8990
  192POPC  H14B22129   5.303   6.670   5.914  0.8277 -1.3169 -0.1266
  192POPC  H14C22130   5.255   6.726   6.071 -1.1231 -1.3343 -0.5933
  192POPC   C1522131   5.341   6.404   5.976  0.4251 -0.4689 -0.2572
  192POPC  H15A22132   5.291   6.398   5.881 -1.4412  0.1897  0.6661
  192POPC  H15B22133   5.340   6.310   6.028 -2.3449 -0.5499 -0.4218
  192POPC  H15C22134   5.444   6.425   5.951  0.2105  2.6547  1.1954
  192POPC   C1122135   5.504   6.527   6.218 -0.1614  0.9286 -0.1464
  192POPC  H11A22136   5.550   6.472   6.133 -0.8369  0.8109 -0.4404
  192POPC  H11B22137   5.543   6.480   6.311 -0.5046  1.2188  0.1446
  192POPC     P22138   5.658   6.728   6.256  0.0453 -0.2478  0.3041
  192POPC   O1322139   5.657   6.871   6.232  0.4138  0.4259 -0.1093
  192POPC   O1422140   5.774   6.657   6.193  0.4285 -0.3471  0.2476
  192POPC   O1222141   5.521   6.668   6.205  0.4717  0.2057 -0.1063
  192POPC   O1122142   5.663   6.709   6.410  0.1627 -0.2424  0.0475
  192POPC    C122143   5.539   6.748   6.474  0.3398 -0.0779  0.6705
  192POPC    HA22144   5.455   6.689   6.431  2.9884 -2.2004 -1.8240
  192POPC    HB22145   5.514   6.856   6.462  2.2425  0.2229 -0.8332
  192POPC    C222146   5.532   6.731   6.628 -0.7502  0.4402 -0.3851
  192POPC    HS22147   5.487   6.822   6.673 -1.1155 -0.6684  1.5593
  192POPC   O2122148   5.661   6.712   6.682 -0.1537 -0.1956  0.6335
  192POPC   C2122149   5.738   6.823   6.674 -0.0594  0.6827 -0.3691
  192POPC   O2222150   5.702   6.932   6.644 -0.1428  0.1265 -0.4871
  192POPC   C2222151   5.879   6.792   6.715  0.4126 -0.1957 -0.2503
  192POPC   H2R22152   5.943   6.876   6.679  0.0740  0.3840  0.4851
  192POPC   H2S22153   5.921   6.699   6.673  2.1467 -0.1859  1.3894
  192POPC    C322154   5.433   6.619   6.683 -0.2636 -0.2229 -0.5902
  192POPC    HX22155   5.474   6.518   6.661 -1.1628 -0.6654 -0.2599
  192POPC    HY22156   5.334   6.622   6.632  0.2372  2.9055 -1.4827
  192POPC   O3122157   5.412   6.638   6.822  0.4174  0.9914 -0.4047
  192POPC   C3122158   5.479   6.560   6.902  0.3467  0.5211 -0.0888
  192POPC   O3222159   5.542   6.461   6.874 -0.0029 -0.3761  0.6323
  192POPC   C3222160   5.462   6.633   7.038  0.2883  0.8330  0.6112
  192POPC   H2X22161   5.386   6.584   7.104  0.3446  0.7579  0.6205
  192POPC   H2Y22162   5.434   6.739   7.022  0.8450  1.0477  1.0606
  192POPC   C2322163   5.879   6.784   6.872 -0.6356 -0.1131  0.1560
  192POPC   H3R22164   5.832   6.687   6.896  0.3400 -1.3194 -2.6423
  192POPC   H3S22165   5.826   6.871   6.917 -0.0895 -0.1655  0.9116
  192POPC   C2422166   6.023   6.769   6.928  0.4617  0.3277  1.3349
  192POPC   H4R22167   6.080   6.852   6.882 -0.1096  0.9550  1.7389
  192POPC   H4S22168   6.075   6.684   6.880  0.6923  2.2911 -1.9996
  192POPC   C2522169   6.038   6.766   7.078 -0.2404  0.1642 -0.7561
  192POPC   H5R22170   6.143   6.740   7.102 -0.2555  2.3123  1.9389
  192POPC   H5S22171   5.984   6.677   7.118 -0.0438  1.6304  2.9684
  192POPC   C2622172   5.982   6.895   7.139 -0.5477  0.4590  0.0039
  192POPC   H6R22173   5.875   6.909   7.113 -0.5420  0.2529 -0.1372
  192POPC   H6S22174   6.038   6.969   7.078  1.8987 -0.8168  0.6299
  192POPC   C2722175   6.025   6.919   7.280 -0.2959  0.0751 -1.0829
  192POPC   H7R22176   6.132   6.890   7.277  0.3982  2.5583 -1.1803
  192POPC   H7S22177   5.985   6.843   7.351 -1.8389  0.0197 -1.9709
  192POPC   C2822178   5.986   7.056   7.328  0.4774 -0.0669  0.6391
  192POPC   H8R22179   5.878   7.072   7.348  0.5229  0.2165  0.6559
  192POPC   H8S22180   6.012   7.135   7.254  0.9493 -1.2425 -0.4805
  192POPC   C2922181   6.068   7.088   7.449 -0.4033  0.3397  0.4768
  192POPC   H9122182   6.159   7.027   7.458 -1.0740 -0.7308 -0.0162
  192POPC  C21022183   6.029   7.152   7.556  0.1762  0.6325  0.0684
  192POPC  H10122184   6.094   7.155   7.644  1.4516  0.1615 -0.8509
  192POPC  C21122185   5.901   7.229   7.576 -0.2501 -0.5767 -0.1272
  192POPC  H11R22186   5.833   7.216   7.489  2.0177  0.2348 -2.0714
  192POPC  H11S22187   5.925   7.337   7.583  1.7754 -1.0550  0.6096
  192POPC  C21222188   5.811   7.168   7.688  1.1873  0.5201 -0.9425
  192POPC  H12R22189   5.811   7.057   7.679  2.7222  0.2129  2.0395
  192POPC  H12S22190   5.709   7.206   7.665  0.7920 -0.7475 -1.3425
  192POPC  C21322191   5.861   7.218   7.823 -0.5227  0.5519  0.0667
  192POPC  H13R22192   5.890   7.325   7.815  0.0095  0.2153 -2.9758
  192POPC  H13S22193   5.951   7.161   7.854 -0.0014  0.8552 -0.8814
  192POPC  C21422194   5.753   7.197   7.937 -0.1613 -0.7060 -0.5599
  192POPC  H14R22195   5.653   7.226   7.899 -0.1306  0.5214  0.2776
  192POPC  H14S22196   5.782   7.260   8.023 -0.5704 -1.6123  0.2606
  192POPC  C21522197   5.733   7.046   7.986  0.2413  0.9827  0.4483
  192POPC  H15R22198   5.764   6.971   7.911 -1.2022 -0.2255  1.0270
  192POPC  H15S22199   5.625   7.034   8.011  0.0754 -2.4862 -1.6372
  192POPC  C21622200   5.822   7.023   8.109 -0.3348  0.3462  0.4881
  192POPC  H16R22201   5.795   7.109   8.174  2.8320  1.2898  0.6088
  192POPC  H16S22202   5.927   7.027   8.072 -0.7486  1.0766 -0.6669
  192POPC  C21722203   5.786   6.891   8.181 -0.3946  0.5573 -0.2106
  192POPC  H17R22204   5.884   6.841   8.200 -0.2524  1.2358  0.8484
  192POPC  H17S22205   5.743   6.831   8.098  0.8514  1.7654 -1.7878
  192POPC  C21822206   5.697   6.889   8.307 -0.5538 -0.6127  0.0718
  192POPC  H18R22207   5.741   6.950   8.388 -2.2641  2.8312 -1.4647
  192POPC  H18S22208   5.680   6.783   8.332 -0.3294 -0.6339  0.1363
  192POPC  H18T22209   5.602   6.939   8.277  0.4300  0.7988 -0.7436
  192POPC   C3322210   5.595   6.614   7.123 -0.3654  0.2224  0.1782
  192POPC   H3X22211   5.680   6.629   7.053 -1.0344  2.0903 -0.2386
  192POPC   H3Y22212   5.598   6.505   7.147 -1.2738  0.0445 -0.4781
  192POPC   C3422213   5.610   6.696   7.246 -0.1338 -0.3735 -0.7524
  192POPC   H4X22214   5.712   6.680   7.287 -0.6178 -0.2716  0.5170
  192POPC   H4Y22215   5.538   6.666   7.326  0.0459  1.6299  0.1999
  192POPC   C3522216   5.587   6.844   7.230  0.4501 -0.8231  0.8232
  192POPC   H5X22217   5.487   6.863   7.185  0.6498 -0.6306  0.4584
  192POPC   H5Y22218   5.667   6.873   7.159 -0.5965  0.6756  0.2279
  192POPC   C3622219   5.620   6.917   7.360 -0.1268 -0.1305  0.2575
  192POPC   H6X22220   5.639   7.024   7.336 -0.0866 -0.0592  0.6033
  192POPC   H6Y22221   5.715   6.884   7.406  0.0773  1.5220  1.0710
  192POPC   C3722222   5.502   6.906   7.463 -0.3647 -0.3497  0.0853
  192POPC   H7X22223   5.501   6.802   7.502 -1.7675  0.0751  1.2173
  192POPC   H7Y22224   5.414   6.935   7.403  1.0489  1.7971 -1.0295
  192POPC   C3822225   5.508   7.006   7.584 -0.4401  0.0815  0.1882
  192POPC   H8X22226   5.570   7.095   7.558  2.7122 -1.6799  1.4817
  192POPC   H8Y22227   5.564   6.949   7.661  1.4257  0.0850 -1.1451
  192POPC   C3922228   5.372   7.042   7.643  0.2231 -0.5015 -0.1822
  192POPC   H9X22229   5.305   6.954   7.633  0.2515 -0.5782  0.2691
  192POPC   H9Y22230   5.319   7.115   7.579  0.4947 -0.8649 -0.8213
  192POPC  C31022231   5.387   7.070   7.789  0.1440 -0.5174  0.0802
  192POPC  H10X22232   5.446   7.161   7.813 -2.0436  0.0930  3.4624
  192POPC  H10Y22233   5.451   6.984   7.819 -0.1743  0.0451  2.4092
  192POPC  C31122234   5.266   7.069   7.879 -0.1095 -0.0934 -0.6569
  192POPC  H11X22235   5.208   6.975   7.863  0.3715 -0.1246 -2.3311
  192POPC  H11Y22236   5.205   7.154   7.842  0.1289  0.2015 -0.3723
  192POPC  C31222237   5.281   7.104   8.031 -0.1525 -0.7445  0.0372
  192POPC  H12X22238   5.331   7.203   8.029  2.1851 -1.8622  1.4113
  192POPC  H12Y22239   5.353   7.035   8.079  0.3601  0.4874  1.0735
  192POPC  C31322240   5.150   7.118   8.114 -0.4881  0.7028 -0.0093
  192POPC  H13X22241   5.100   7.022   8.087  3.2530 -1.3544  0.0492
  192POPC  H13Y22242   5.083   7.203   8.088  0.3867  1.4772  0.2629
  192POPC  C31422243   5.187   7.129   8.257  0.2774 -1.0596 -0.0984
  192POPC  H14X22244   5.255   7.215   8.274 -1.4684  0.7779 -2.0500
  192POPC  H14Y22245   5.249   7.042   8.287  3.9958  1.6612  0.4631
  192POPC  C31522246   5.065   7.156   8.354 -0.4966 -0.0886  0.1986
  192POPC  H15X22247   5.107   7.143   8.456 -0.1130  2.1945  0.3635
  192POPC  H15Y22248   4.992   7.073   8.342 -0.1835 -0.0409 -2.2226
  192POPC  C31622249   4.995   7.285   8.337 -0.0682  0.2010  0.2337
  192POPC  H16X22250   4.913   7.284   8.412  0.5240 -0.4845  0.8707
  192POPC  H16Y22251   4.944   7.313   8.242  1.7005  0.4266 -0.6599
  192POPC  H16Z22252   5.076   7.360   8.347 -0.2667  0.5314 -0.5310
  193SOD    SOD22253   1.486   3.226  11.749 -0.2756  0.0789  0.6708
  194SOD    SOD22254   1.469   2.672   0.862  0.4031 -0.2354  0.2001
  195SOD    SOD22255   5.216   6.517  16.438 -0.3146 -0.1598 -0.3583
  196SOD    SOD22256   5.352   0.133   3.622  0.3597  0.1556 -0.1150
  197SOD    SOD22257   5.870   6.258   6.354  0.0612 -0.0220  0.1211
  198SOD    SOD22258   1.258   2.102  12.066 -0.7129  0.1606  0.4649
  199SOD    SOD22259   3.790   3.473   3.535 -0.2294 -0.0088 -0.3456
  200SOD    SOD22260   6.701   0.827  15.338 -0.4749  0.3744 -0.4329
  201SOD    SOD22261   5.514   0.485  11.147  0.4955  0.8513 -0.1779
  202SOD    SOD22262   1.293   2.443  14.932  0.5060  0.1654  0.3888
  203SOD    SOD22263   5.038   4.449  12.167 -0.3081  0.3879 -0.1967
  204SOD    SOD22264   3.632   5.788   1.228  0.3341  0.0004  0.1383
  205SOD    SOD22265   0.332   6.011  11.182 -0.2202  0.2315  0.0333
  206SOD    SOD22266   4.536   3.037   2.508  0.4243  0.1524 -0.0252
  207SOD    SOD22267   1.032   3.557   5.882  0.1114  0.4123  0.5732
  208SOD    SOD22268   2.569   3.513   3.906  0.0571 -0.6560  0.1143
  209SOD    SOD22269   5.584   0.589  16.266 -0.5188  0.4340 -0.2421
  210SOD    SOD22270   6.350   3.753  11.278 -0.4303  0.0783  0.0872
  211SOD    SOD22271   6.204   0.291   5.239 -0.0696 -0.2706 -0.5306
  212SOD    SOD22272   0.623   6.490  10.703 -0.2303 -0.1215  0.1047
  213SOD    SOD22273   0.342   1.929   3.490 -0.4364  0.2670 -0.0614
  214SOD    SOD22274   2.998   6.069   3.746 -0.3215  0.2730 -0.2152
  215SOD    SOD22275   0.233   3.643   2.256  0.5536 -0.2301 -0.0982
  216SOD    SOD22276   5.677   1.887  11.120 -0.5179 -0.5695  0.1878
  217SOD    SOD22277   2.684   0.444   6.321 -0.2787  0.0809 -0.0883
  218SOD    SOD22278   6.085   4.048   1.683  0.8607  0.1255  0.0824
  219SOD    SOD22279   5.742   5.165  12.929  0.1022  0.0158 -0.2869
  220SOD    SOD22280   6.590   5.723  16.363  0.2403  0.4740  0.2068
  221SOD    SOD22281   0.877   4.035   6.396  0.1052  0.0925 -0.7724
  222SOD    SOD22282   2.789   3.946  15.529  0.2292 -0.1399  0.2356
  223SOD    SOD22283   6.001   4.050   5.432 -0.2804  0.4185 -0.0496
  224SOD    SOD22284   6.702   1.992   2.940 -0.0499 -0.2676 -0.4065
  225SOD    SOD22285   3.418   1.758  11.789 -0.1337  0.1131  0.6498
  226SOD    SOD22286   3.821   2.714   1.076  0.3616  0.1367  0.2972
  227SOD    SOD22287   0.166   2.462   6.567 -0.6407  0.3414  0.3351
  228SOD    SOD22288   3.606   2.209   0.178  0.1666 -0.0363 -0.0810
  229SOD    SOD22289   2.981   0.844  12.603  0.3030 -0.1299 -0.2215
  230SOD    SOD22290   0.170   5.861   3.691  0.1211  0.0657 -0.0573
  231SOD    SOD22291   6.514   3.310   4.509  0.4932 -0.1567 -0.0750
  232SOD    SOD22292   3.442   4.595   5.613  0.0150 -0.4484  0.5013
  233SOD    SOD22293   5.553   4.730  15.155 -0.0280  0.5922 -0.0639
  234SOD    SOD22294   2.829   2.489  11.784 -0.3598 -0.0254  0.0429
  235SOD    SOD22295   6.693   2.919  10.931 -0.0640 -0.0485  0.1709
  236SOD    SOD22296   6.714   3.954  12.923 -0.3093  0.4752 -0.2961
  237SOD    SOD22297   2.490   2.297   4.891  0.3453 -0.7660 -0.0415
  238SOD    SOD22298   3.929   2.504  14.663  0.1992 -0.0821  0.3417
  239SOD    SOD22299   0.906   6.458   5.022  0.2778  0.2977 -0.6151
  240SOD    SOD22300   4.429   4.167   6.524  0.8663  0.0214 -0.1965
  241SOD    SOD22301   4.518   4.744  14.308  0.8254  0.3091  0.4217
  242SOD    SOD22302   5.484   2.987   6.116  0.2173 -0.0212 -0.3801
  243SOD    SOD22303   0.299   5.326  11.196  0.6122  0.2426  0.5247
  244SOD    SOD22304   1.219   0.819  14.800  0.1190  0.2217 -0.2057
  245SOD    SOD22305   2.926   5.431  16.954  0.1569  0.8826  0.4416
  246SOD    SOD22306   6.104   0.774   4.321 -0.1314  0.0298  0.5384
  247SOD    SOD22307   1.278   1.375  17.084  0.3082 -0.2245  0.0408
  248SOD    SOD22308   6.214   1.898   3.638  0.2122  0.4907  0.2601
  249SOD    SOD22309   5.160   5.596   5.641  0.0356  0.5750 -0.2328
  250SOD    SOD22310   6.756   6.368   3.526 -0.0900 -0.4966 -0.2278
  251SOD    SOD22311   4.462   2.908   5.080 -0.1371  0.2418 -0.0403
  252SOD    SOD22312   3.892   2.180   5.886  0.0428  0.1687  0.1327
  253SOD    SOD22313   4.526   1.399  13.254 -0.2847  0.1972 -0.4507
  254SOD    SOD22314   2.979   4.774  14.524 -0.1458 -0.5925  0.4829
  255SOD    SOD22315   2.797   0.074   3.483 -0.2060 -0.1602 -0.0962
  256SOD    SOD22316   2.480   1.502  15.546  0.0957 -0.3013  0.2019
  257SOD    SOD22317   6.338   4.663   6.275  0.0537  0.3766 -0.2865
  258SOD    SOD22318   1.568   3.560   4.200 -0.3276 -0.5114  0.7940
  259SOD    SOD22319   1.845   4.948  12.355  0.0904  0.0287 -0.1872
  260SOD    SOD22320   2.501   6.052  10.668 -0.1001 -0.4042  0.0562
  261SOD    SOD22321   3.969   1.712  12.078  0.0492 -0.4399  0.1792
  262SOD    SOD22322   5.772   6.014  11.313  0.2109 -0.4459 -0.0290
  263SOD    SOD22323   1.574   5.527  11.502 -0.4566 -0.3392 -0.0561
  264SOD    SOD22324   3.581   0.756   5.921  0.2775  0.1783 -0.5343
  265SOD    SOD22325   0.728   5.532   4.485  0.1286  0.1599  0.2589
  266SOD    SOD22326   6.027   3.038  16.889  0.1494  0.8789  0.0236
  267SOD    SOD22327   6.582   2.816   1.735  0.0257  0.4295  0.0867
  268SOD    SOD22328   2.393   2.125  12.519  0.1697  0.1089  0.4895
  269SOD    SOD22329   4.641   6.329   4.774 -0.0438  0.3733  0.2367
  270CLA    CLA22330   5.757   5.800  16.408  0.0867  0.1443 -0.1205
  271CLA    CLA22331   0.622   4.463  11.965  0.0712  0.0978 -0.3953
  272CLA    CLA22332   0.500   3.074  15.966 -0.3607  0.0094  0.6758
  273CLA    CLA22333   5.978   0.702   5.337 -0.3171  0.2801  0.1851
  274CLA    CLA22334   1.584   6.255   3.035 -0.3688  0.0754  0.0261
  275CLA    CLA22335   1.210   5.575  12.578  0.0836 -0.2267 -0.7530
  276CLA    CLA22336   6.014   4.851  16.853 -0.0219 -0.1526  0.4026
  277CLA    CLA22337   6.021   4.493   5.312  0.0512 -0.0851 -0.1763
  278CLA    CLA22338   4.997   1.460  12.298 -0.4374  0.3930  0.2293
  279CLA    CLA22339   2.820   4.250  16.744  0.4994 -0.1835 -0.1914
  280CLA    CLA22340   2.655   6.127  13.011 -0.3476  0.2749 -0.0279
  281CLA    CLA22341   0.767   6.604  17.151 -0.1747 -0.1702  0.3964
  282CLA    CLA22342   3.367   6.447  11.808  0.4171  0.2568  0.3202
  283CLA    CLA22343   2.610   1.808   4.452 -0.2465 -0.3447 -0.2103
  284CLA    CLA22344   3.334   2.036   1.405  0.1708  0.0444  0.2505
  285CLA    CLA22345   2.531   1.219  13.332 -0.6462  0.1194 -0.0677
  286CLA    CLA22346   0.258   4.206   2.618  0.2598  0.1737 -0.2722
  287CLA    CLA22347   0.754   5.480  11.325 -0.2512 -0.1179 -0.1755
  288CLA    CLA22348   3.972   6.635   3.709  0.2601  0.0582  0.0532
  289CLA    CLA22349   0.098   2.459  15.566  0.0727  0.1397  0.5592
  290CLA    CLA22350   1.706   2.489   5.362 -0.1052  0.0206 -0.1614
  291CLA    CLA22351   3.221   6.562   4.592  0.0780  0.1008  0.0939
  292CLA    CLA22352   4.219   0.082  13.013  0.1103 -0.6041 -0.2375
  293CLA    CLA22353   0.472   3.619   4.420 -0.0183  0.4156  0.2046
  294CLA    CLA22354   1.294   5.431   4.802 -0.3862  0.3638 -0.1286
  295CLA    CLA22355   0.637   2.209   3.495  0.1863 -0.3505  0.1428
  296CLA    CLA22356   1.222   6.003  15.593 -0.1090  0.3536  0.2568
  297CLA    CLA22357   2.668   4.660  14.814 -0.1581  0.0881  0.0380
  298CLA    CLA22358   5.743   1.814   3.653 -0.1554  0.1172 -0.1472
  299CLA    CLA22359   4.022   4.911  13.661  0.1631 -0.2407 -0.2549
  300CLA    CLA22360   5.694   2.064   3.255 -0.1522  0.2206 -0.1381
  301CLA    CLA22361   5.475   4.852   4.949  0.8281 -0.2188 -0.6114
  302CLA    CLA22362   5.648   4.786   4.185 -0.1646  0.1855 -0.0145
  303CLA    CLA22363   3.533   3.527   2.040 -0.0628  0.0071 -0.2610
  304CLA    CLA22364   3.706   0.796  13.984  0.0187 -0.3185 -0.3015
  305CLA    CLA22365   0.464   6.316   4.028  0.0042  0.0463  0.1164
  306CLA    CLA22366   5.686   5.347   1.505 -0.2144 -0.0378  0.3618
  307CLA    CLA22367   1.755   4.171  15.739 -0.3505 -0.1356 -0.4968
  308CLA    CLA22368   0.502   6.494   1.955  0.5458  0.2993 -0.1494
  309CLA    CLA22369   4.574   4.255  14.889 -0.1672  0.0556  0.0657
  310CLA    CLA22370   0.460   5.497   4.414  0.4421 -0.2301 -0.0614
  311CLA    CLA22371   2.577   2.211   5.609  0.4500 -0.2523 -0.0498
  312CLA    CLA22372   4.233   5.493   5.545  0.1231  0.3552  0.0175
  313CLA    CLA22373   5.694   6.313  11.825  0.1480 -0.1619 -0.2260
  314CLA    CLA22374   6.085   2.762   4.287 -0.4545 -0.1320  0.2441
  315CLA    CLA22375   3.559   6.249  12.285 -0.1807 -0.2886 -0.1703
  316CLA    CLA22376   1.244   1.353  15.699 -0.4449 -0.1968  0.4549
  317CLA    CLA22377   2.170   0.988   0.161  0.1307  0.1991 -0.0859
  318CLA    CLA22378   1.242   4.563   5.588  0.5408  0.0719 -0.6024
  319CLA    CLA22379   3.851   6.309   2.910  0.2184  0.0078  0.6508
  320CLA    CLA22380   0.879   1.640   0.713 -0.5056 -0.0792 -0.1390
  321CLA    CLA22381   6.115   3.138  12.888  0.3051 -0.0157  0.1946
  322CLA    CLA22382   6.323   3.025   0.587  0.3900  0.3841  0.1822
  323TIP3   OH222383   2.071   4.765   4.289  0.2569  0.1079  0.3132
  323TIP3    H122384   2.158   4.763   4.328  0.7397 -0.8638 -0.7645
  323TIP3    H222385   2.017   4.815   4.351  1.6773  1.0958  0.7731
  324TIP3   OH222386   2.694   1.737  12.504 -0.3389  1.0418 -0.2677
  324TIP3    H122387   2.642   1.659  12.485 -2.0496  1.7677  1.1675
  324TIP3    H222388   2.772   1.729  12.449 -0.2358 -1.9083  0.2283
  325TIP3   OH222389   2.201   4.567  12.900  0.0376 -0.9747 -0.2891
  325TIP3    H122390   2.115   4.608  12.902 -0.8503 -2.7479 -0.8483
  325TIP3    H222391   2.218   4.543  12.991  0.0890 -0.3139 -0.1264
  326TIP3   OH222392   5.888   0.578  14.214 -0.4189 -0.0674  0.4628
  326TIP3    H122393   5.875   0.654  14.272 -0.0454 -0.8925  1.6523
  326TIP3    H222394   5.804   0.568  14.170 -1.4133 -0.6946  2.4377
  327TIP3   OH222395   1.848   6.202  12.478 -0.3895  0.0579  0.3714
  327TIP3    H122396   1.794   6.122  12.481  0.0850 -0.2358  2.0536
  327TIP3    H222397   1.821   6.247  12.398 -0.3528 -2.0050 -0.8311
  328TIP3   OH222398   3.698   1.350  12.956 -0.1101  0.2275 -0.0841
  328TIP3    H122399   3.606   1.325  12.949  0.1445 -0.8155  0.1880
  328TIP3    H222400   3.745   1.267  12.966  0.9164  0.7085 -0.8140
  329TIP3   OH222401   4.870   3.426   4.508  0.1410 -0.0997  0.2017
  329TIP3    H122402   4.785   3.393   4.539 -0.5404 -0.7337 -2.2227
  329TIP3    H222403   4.899   3.361   4.444  0.9168  1.7692 -1.3893
  330TIP3   OH222404   5.736   3.515  14.226 -0.5062 -0.0790 -0.1399
  330TIP3    H122405   5.800   3.533  14.157 -2.1089  2.4670 -1.0333
  330TIP3    H222406   5.754   3.582  14.292 -1.0634 -0.4894  0.4319
  331TIP3   OH222407   3.577   5.701  13.149 -0.2537 -0.2002 -0.2922
  331TIP3    H122408   3.542   5.757  13.080 -3.1356 -0.6706  0.7317
  331TIP3    H222409   3.571   5.612  13.113 -0.9216 -0.3625  0.2120
  332TIP3   OH222410   0.782   5.338   2.230 -0.0543  0.0250 -0.5375
  332TIP3    H122411   0.694   5.377   2.238 -0.0870 -0.2150  0.3299
  332TIP3    H222412   0.832   5.404   2.182  0.1969  1.6948  1.9092
  333TIP3   OH222413   1.536   3.976   0.449  0.8289 -0.0408  0.2760
  333TIP3    H122414   1.481   4.053   0.462 -1.4329 -1.2795 -1.4978
  333TIP3    H222415   1.571   3.986   0.360 -0.3564 -1.5541 -0.3835
  334TIP3   OH222416   3.833   1.163  15.681  0.8350  0.2888  0.5118
  334TIP3    H122417   3.864   1.102  15.614 -1.9891  1.4746 -1.9634
  334TIP3    H222418   3.913   1.197  15.721  2.5211 -3.5113  0.6265
  335TIP3   OH222419   5.359   6.216  13.465 -0.2993 -0.1111 -0.0750
  335TIP3    H122420   5.304   6.287  13.432  1.0063  0.8837 -0.1526
  335TIP3    H222421   5.448   6.239  13.437  0.3282 -1.0644  1.0744
  336TIP3   OH222422   4.087   0.252   2.398  0.3694  0.2314 -0.1798
  336TIP3    H122423   4.121   0.340   2.381 -0.4090  0.5895  0.0599
  336TIP3    H222424   4.146   0.194   2.350  0.2620  0.9566 -1.2211
  337TIP3   OH222425   0.550   2.071  10.523 -0.4809  0.3747  0.0222
  337TIP3    H122426   0.546   2.152  10.474 -0.9631  0.7083  0.6042
  337TIP3    H222427   0.537   2.097  10.614 -0.0275 -0.2822  0.2841
  338TIP3   OH222428   4.874   5.350  11.512 -0.3962 -0.2777  0.5878
  338TIP3    H122429   4.797   5.380  11.465 -1.0398 -1.2110  1.0194
  338TIP3    H222430   4.888   5.261  11.480  1.2433  0.3243 -0.3927
  339TIP3   OH222431   4.509   1.482  11.864  0.2746 -0.1465  0.2819
  339TIP3    H122432   4.587   1.495  11.811 -0.0064 -1.1115 -0.3821
  339TIP3    H222433   4.542   1.447  11.947  0.7846  2.1144  1.0825
  340TIP3   OH222434   4.356   3.796   1.907  0.1848  0.3690  0.5754
  340TIP3    H122435   4.409   3.785   1.828 -1.3744  1.2450 -0.6211
  340TIP3    H222436   4.347   3.891   1.916  0.5946  0.2873  1.9857
  341TIP3   OH222437   4.768   4.322  15.877  0.1112  0.4726 -0.5983
  341TIP3    H122438   4.825   4.317  15.801  2.1880 -1.5170  1.0225
  341TIP3    H222439   4.778   4.238  15.920 -2.1574  1.0200  1.1088
  342TIP3   OH222440   2.895   3.419  10.499  0.0993  0.1660 -0.2873
  342TIP3    H122441   2.841   3.340  10.502  1.3476 -0.6301  1.7482
  342TIP3    H222442   2.881   3.461  10.583  0.9554  1.1097 -0.6079
  343TIP3   OH222443   3.583   4.151   3.619  0.2214 -0.0362 -0.6925
  343TIP3    H122444   3.597   4.119   3.709  0.8425  0.0042 -0.7705
  343TIP3    H222445   3.669   4.182   3.592  0.0623 -0.1736 -1.3566
  344TIP3   OH222446   3.180   4.933  14.209  0.0530 -0.2380  0.6449
  344TIP3    H122447   3.158   4.976  14.292  0.3650 -1.3529  1.3249
  344TIP3    H222448   3.269   4.963  14.189  1.0309 -2.0269  2.1255
  345TIP3   OH222449   0.558   4.645   1.874  0.1857 -0.6600 -1.0432
  345TIP3    H122450   0.627   4.579   1.865 -0.0944 -1.0962 -0.0380
  345TIP3    H222451   0.480   4.602   1.839  0.0552 -0.7868 -0.6036
  346TIP3   OH222452   5.862   3.976  12.167 -0.0873 -0.2812 -0.0181
  346TIP3    H122453   5.871   4.069  12.187 -0.5723  0.0210 -1.1189
  346TIP3    H222454   5.794   3.945  12.227  0.8138 -0.1675  1.0654
  347TIP3   OH222455   4.168   3.320   4.745 -0.3754 -0.4202 -0.3260
  347TIP3    H122456   4.085   3.302   4.788  1.0165 -1.3403  2.1121
  347TIP3    H222457   4.147   3.323   4.651 -3.6259  2.3562  0.3972
  348TIP3   OH222458   2.724   2.079   3.795 -0.6744 -0.1047 -0.2107
  348TIP3    H122459   2.776   1.998   3.800  0.5395  0.6203 -0.8434
  348TIP3    H222460   2.682   2.085   3.881  2.0283  0.4064  1.1489
  349TIP3   OH222461   4.059   0.441   4.384 -0.0000 -0.0179  0.0091
  349TIP3    H122462   4.018   0.441   4.297 -0.3726  0.5654  0.1810
  349TIP3    H222463   4.038   0.354   4.420  1.4335 -0.8291 -1.0709
  350TIP3   OH222464   6.404   0.671  10.851 -0.1434 -0.2244  0.7682
  350TIP3    H122465   6.473   0.715  10.801  1.5589 -0.1422  3.1180
  350TIP3    H222466   6.351   0.743  10.888  0.6458 -0.1914  1.8621
  351TIP3   OH222467   1.740   3.236   0.280  0.0404  0.0470 -0.1359
  351TIP3    H122468   1.754   3.146   0.310  1.2761  0.2134 -0.2132
  351TIP3    H222469   1.646   3.251   0.294 -0.1300 -1.1755  0.0854
  352TIP3   OH222470   5.114   6.156   0.055  0.3063  0.2782 -0.2602
  352TIP3    H122471   5.143   6.143  -0.035  2.0416 -0.3617  0.3746
  352TIP3    H222472   5.165   6.231   0.086  1.3456 -0.8887  0.8905
  353TIP3   OH222473   4.352   2.853   2.383 -0.4258 -0.1987  0.2215
  353TIP3    H122474   4.317   2.827   2.298 -1.8458  0.7958  0.4786
  353TIP3    H222475   4.295   2.811   2.447  0.5338 -0.8112  0.6824
  354TIP3   OH222476   0.306   1.930  16.615 -0.2582  0.0611 -0.0504
  354TIP3    H122477   0.340   1.992  16.551  0.5138 -1.5461 -1.2226
  354TIP3    H222478   0.213   1.951  16.622 -0.5682 -0.4341 -2.4970
  355TIP3   OH222479   2.083   4.328   0.577 -0.0608 -0.0012  0.5863
  355TIP3    H122480   2.081   4.245   0.624 -0.1952 -0.4104 -0.1490
  355TIP3    H222481   2.113   4.392   0.643 -0.5016 -0.5244  1.2933
  356TIP3   OH222482   4.795   0.663  13.683  0.3876 -0.2276 -0.1646
  356TIP3    H122483   4.715   0.620  13.713  0.8262 -0.1883  1.0565
  356TIP3    H222484   4.791   0.655  13.587 -0.6134 -1.0451 -0.0652
  357TIP3   OH222485   3.454   4.970  15.906  0.1584 -0.2270  0.0994
  357TIP3    H122486   3.375   4.918  15.920  0.8412 -0.8285  1.7328
  357TIP3    H222487   3.525   4.916  15.939  1.0452  1.1331  0.4478
  358TIP3   OH222488   2.565   6.621  14.405  0.3364 -0.4408 -0.2944
  358TIP3    H122489   2.492   6.563  14.385  0.8389 -0.3904 -2.3154
  358TIP3    H222490   2.572   6.618  14.501 -1.6326 -1.2496 -0.1529
  359TIP3   OH222491   4.765   3.171   4.399 -0.6509  0.2623 -0.5592
  359TIP3    H122492   4.714   3.188   4.478  0.5682 -1.0368  0.5260
  359TIP3    H222493   4.786   3.078   4.404  2.0986  0.8475 -0.8063
  360TIP3   OH222494   4.390   4.070   0.295 -0.3064 -0.8018 -0.2703
  360TIP3    H122495   4.389   4.103   0.205  1.8524  1.3144  0.4519
  360TIP3    H222496   4.315   4.112   0.337  1.5358  2.1271  0.2216
  361TIP3   OH222497   3.214   0.232   5.425 -0.0721  0.1732 -0.3101
  361TIP3    H122498   3.172   0.156   5.466  1.0076 -1.5783 -2.3097
  361TIP3    H222499   3.153   0.257   5.355 -0.2686  0.9660  0.1403
  362TIP3   OH222500   5.086   2.312   0.676  0.1905 -0.6298  0.1547
  362TIP3    H122501   5.041   2.383   0.630  0.6952 -0.6819 -0.4176
  362TIP3    H222502   5.175   2.343   0.687 -0.1307 -0.2454  1.8905
  363TIP3   OH222503   0.572   5.482  13.814  0.3394 -0.7170  0.3267
  363TIP3    H122504   0.614   5.562  13.782 -1.1211  1.4464  3.5290
  363TIP3    H222505   0.629   5.411  13.785  3.5396  1.7382  0.3774
  364TIP3   OH222506   1.900   0.606  14.948  0.1964  0.2652 -0.1742
  364TIP3    H122507   1.862   0.684  14.988 -0.1204 -0.1730  0.3872
  364TIP3    H222508   1.826   0.550  14.929  0.5404 -0.5078  0.7406
  365TIP3   OH222509   0.754   6.778   6.011 -0.2373 -0.3014 -0.1105
  365TIP3    H122510   0.808   6.705   6.042 -0.9093 -0.5091  0.5930
  365TIP3    H222511   0.746   6.836   6.087 -0.4911  0.0317 -0.3898
  366TIP3   OH222512   5.503   6.736   1.082  0.2865  0.4008 -0.3614
  366TIP3    H122513   5.535   6.712   0.995 -0.0365 -2.9388  0.3791
  366TIP3    H222514   5.579   6.773   1.126  0.8402  0.7130 -1.5532
  367TIP3   OH222515   3.289   0.413   2.378  0.1272  0.2524  0.3974
  367TIP3    H122516   3.353   0.478   2.346 -0.5574  1.2734  1.0855
  367TIP3    H222517   3.273   0.357   2.302  0.1427  1.3601 -0.4387
  368TIP3   OH222518   0.588   2.889  14.653  0.0063  0.0506 -0.5794
  368TIP3    H122519   0.638   2.821  14.608  0.7177 -0.5683  1.1011
  368TIP3    H222520   0.529   2.842  14.711 -0.9951  0.8367 -0.9415
  369TIP3   OH222521   2.109   6.161  13.881  0.4792 -0.0614 -0.7138
  369TIP3    H122522   2.052   6.090  13.910 -0.1739  0.3111 -1.0754
  369TIP3    H222523   2.091   6.233  13.941 -0.0971  0.3545 -1.3649
  370TIP3   OH222524   4.319   5.436   4.429  0.1019  0.6596  0.1857
  370TIP3    H122525   4.368   5.367   4.386 -0.0276  0.1029  0.9307
  370TIP3    H222526   4.342   5.515   4.380 -0.2217  0.0060 -1.0631
  371TIP3   OH222527   3.477   5.346  11.281  0.2305  0.1119  0.1599
  371TIP3    H122528   3.563   5.367  11.245  1.1763 -1.1196  1.6295
  371TIP3    H222529   3.487   5.358  11.376 -1.6839  1.5206  0.2225
  372TIP3   OH222530   2.823   4.894  14.698 -0.0788  0.0291  0.4145
  372TIP3    H122531   2.853   4.951  14.769 -1.5160  0.1108  0.9608
  372TIP3    H222532   2.779   4.821  14.742  1.2634 -1.2400 -0.3022
  373TIP3   OH222533   3.749   5.917   5.541 -0.2956 -0.2428  0.0373
  373TIP3    H122534   3.707   5.945   5.460  1.5625 -0.2003 -0.9284
  373TIP3    H222535   3.731   5.823   5.546 -1.9924  0.0856  0.5619
  374TIP3   OH222536   5.564   5.892  14.598 -0.3962  0.1005  0.0680
  374TIP3    H122537   5.564   5.804  14.635 -0.0919  0.8793  1.9551
  374TIP3    H222538   5.479   5.898  14.553 -0.3703 -1.1875 -0.1885
  375TIP3   OH222539   0.365   0.212   5.607  0.1945 -0.1425  0.4161
  375TIP3    H122540   0.285   0.212   5.660 -0.7191  0.3392 -0.9270
  375TIP3    H222541   0.428   0.261   5.660 -0.4972 -0.2521  1.3606
  376TIP3   OH222542   3.608   4.017  14.416 -0.2212  0.0594  0.0893
  376TIP3    H122543   3.524   4.020  14.462 -1.0175 -3.8925 -0.9217
  376TIP3    H222544   3.595   4.075  14.341 -1.8102  0.0692  0.3403
  377TIP3   OH222545   2.342   0.861  13.074 -0.7513 -0.5538 -0.4852
  377TIP3    H122546   2.281   0.813  13.130  1.8656 -2.5613  0.7551
  377TIP3    H222547   2.336   0.952  13.105 -0.5626 -1.3483  2.0182
  378TIP3   OH222548   4.959   0.004   2.198 -0.1979 -0.3325  0.2797
  378TIP3    H122549   4.980  -0.084   2.228  0.3896 -0.6556 -1.0482
  378TIP3    H222550   5.029   0.027   2.137 -0.2571  1.1197  0.7325
  379TIP3   OH222551   3.756   4.308  13.047  0.0812 -0.1954 -0.0053
  379TIP3    H122552   3.683   4.370  13.037 -0.9588 -1.2724  0.7690
  379TIP3    H222553   3.829   4.362  13.076 -0.9880  0.5942  1.2918
  380TIP3   OH222554   1.889   0.070   0.363 -0.1091 -0.3574 -0.0280
  380TIP3    H122555   1.810   0.042   0.316  0.6413 -0.1875 -1.4047
  380TIP3    H222556   1.947  -0.006   0.359  0.4610  0.1005 -0.5057
  381TIP3   OH222557   5.415   2.772   6.057  0.0514 -0.3010 -0.1037
  381TIP3    H122558   5.423   2.737   5.969  1.0942 -1.9203  0.6117
  381TIP3    H222559   5.431   2.698   6.115  1.7152  1.2013  1.4516
  382TIP3   OH222560   1.223   6.231  15.371  0.9624 -0.1946 -0.1551
  382TIP3    H122561   1.177   6.155  15.407  1.2105  0.5977  1.9305
  382TIP3    H222562   1.315   6.203  15.368  0.9396 -0.2692 -0.1760
  383TIP3   OH222563   3.840   3.434   0.875 -0.1280 -0.0680 -0.0235
  383TIP3    H122564   3.845   3.353   0.925 -1.5303 -0.3734 -0.3566
  383TIP3    H222565   3.771   3.485   0.918 -0.1988  0.3655 -0.6386
  384TIP3   OH222566   0.018   3.852  14.481 -0.1810  0.5187  0.4319
  384TIP3    H122567  -0.045   3.924  14.479  0.1347  0.7883  0.0805
  384TIP3    H222568  -0.017   3.791  14.546 -1.3631  0.1550 -0.5214
  385TIP3   OH222569   3.313   3.451  13.838 -0.1440 -0.3493  0.2173
  385TIP3    H122570   3.235   3.438  13.892 -1.0948  3.5454 -0.1151
  385TIP3    H222571   3.293   3.408  13.755 -1.2970 -0.7268  0.6810
  386TIP3   OH222572   4.989   0.360   1.885  0.2148  0.2911 -0.0925
  386TIP3    H122573   4.999   0.281   1.938 -0.4303  0.1067 -0.2384
  386TIP3    H222574   5.077   0.398   1.881  0.3330  0.1396  0.8435
  387TIP3   OH222575   1.414   5.390   2.599  0.1120 -0.5825 -0.3867
  387TIP3    H122576   1.360   5.466   2.622  0.2424 -0.7473  0.4560
  387TIP3    H222577   1.353   5.329   2.558  0.0707  0.1208 -1.4198
  388TIP3   OH222578   1.278   4.526  16.864  0.5045  0.4473  0.8851
  388TIP3    H122579   1.224   4.450  16.843 -0.2609  1.2312 -0.0024
  388TIP3    H222580   1.368   4.498  16.845  0.1036  0.1860 -0.6817
  389TIP3   OH222581   0.941   1.041   5.891  0.6649 -0.1035  0.3704
  389TIP3    H122582   0.975   0.987   5.962 -0.4220 -0.1854  0.8531
  389TIP3    H222583   0.866   1.086   5.929  0.7187  0.6820 -0.4256
  390TIP3   OH222584   0.977   2.439   5.775  0.0762  0.3637 -0.4584
  390TIP3    H122585   1.014   2.354   5.800 -1.1264 -0.3743 -1.1288
  390TIP3    H222586   0.970   2.487   5.858 -0.2161 -0.5902  0.0815
  391TIP3   OH222587   5.799   0.520   2.988  0.5869  0.0975  0.1042
  391TIP3    H122588   5.806   0.614   2.971 -2.7185  0.5689  1.0936
  391TIP3    H222589   5.838   0.507   3.074  2.0117  0.3684 -0.4900
  392TIP3   OH222590   6.042   4.827   2.209  0.1497 -0.0402  0.1256
  392TIP3    H122591   6.076   4.753   2.158 -1.3148 -0.4384 -0.3022
  392TIP3    H222592   5.953   4.840   2.176 -0.3250  0.6124  1.6100
  393TIP3   OH222593   3.426   0.082  15.439 -0.1910 -0.3469  0.2736
  393TIP3    H122594   3.504   0.062  15.388  1.7595 -0.2179  3.0607
  393TIP3    H222595   3.403   0.171  15.413  1.2088 -0.0088  0.1446
  394TIP3   OH222596   3.783   2.239   3.801 -0.5518  0.1547  0.1678
  394TIP3    H122597   3.727   2.259   3.877  0.0618  1.8896  0.1917
  394TIP3    H222598   3.823   2.155   3.823 -0.9260  0.2964  1.4612
  395TIP3   OH222599   1.205   4.870  10.139  0.2363 -0.4109  0.1768
  395TIP3    H122600   1.285   4.922  10.134  0.5539 -0.9741 -0.8259
  395TIP3    H222601   1.134   4.934  10.125  0.5164  0.0440  0.8025
  396TIP3   OH222602   4.095   4.736   0.963 -0.2440  0.0837 -0.2242
  396TIP3    H122603   4.057   4.655   0.930 -0.3764  0.2368 -0.4467
  396TIP3    H222604   4.025   4.800   0.956  0.2336  0.5180 -1.2370
  397TIP3   OH222605   6.361   2.260   4.255  0.1686  0.4168 -0.0093
  397TIP3    H122606   6.311   2.264   4.174 -0.4798  0.8963  0.4065
  397TIP3    H222607   6.352   2.348   4.292  1.0167  0.3994  0.2483
  398TIP3   OH222608   0.000   1.524   2.013  0.4424 -0.1114 -0.2816
  398TIP3    H122609  -0.045   1.447   2.047  1.8802 -1.5817 -1.6473
  398TIP3    H222610  -0.069   1.578   1.975 -0.3249 -1.7885 -1.3279
  399TIP3   OH222611   5.914   5.436   4.037 -0.2652 -0.1462 -0.5995
  399TIP3    H122612   5.858   5.513   4.036 -0.2508 -0.1306 -2.5204
  399TIP3    H222613   5.873   5.377   4.101  1.7939  2.8724  3.7852
  400TIP3   OH222614   5.247   4.449  14.761  0.2196 -0.7284 -0.1070
  400TIP3    H122615   5.260   4.541  14.740 -0.1005 -1.3337 -3.1707
  400TIP3    H222616   5.335   4.414  14.770  0.3340  0.0532  1.9822
  401TIP3   OH222617   0.648   0.588  16.195 -0.3617 -0.3516  0.2264
  401TIP3    H122618   0.693   0.666  16.163 -2.1642  0.0860 -1.3977
  401TIP3    H222619   0.636   0.602  16.288  0.4037  0.7575  0.1575
  402TIP3   OH222620   6.693   3.496   5.669  0.1464 -0.0723  0.0698
  402TIP3    H122621   6.782   3.505   5.703 -0.2318  1.8596  0.6022
  402TIP3    H222622   6.673   3.403   5.679  1.8707 -0.4092  0.5359
  403TIP3   OH222623   5.328   2.840   5.423 -0.9347 -0.2371  0.3045
  403TIP3    H122624   5.356   2.750   5.440 -0.6360 -0.2033 -0.0022
  403TIP3    H222625   5.272   2.835   5.347 -0.9135 -0.1642  0.2834
  404TIP3   OH222626   5.690   1.118   2.286 -0.1139 -0.5743  0.4153
  404TIP3    H122627   5.785   1.129   2.296  0.3396 -3.2188 -0.5741
  404TIP3    H222628   5.678   1.098   2.193 -1.6592 -0.2117  0.5316
  405TIP3   OH222629   4.140   1.568  12.031 -0.3566  0.0212  0.2364
  405TIP3    H122630   4.175   1.560  11.942 -1.3959  1.4224 -0.2977
  405TIP3    H222631   4.121   1.477  12.056 -0.1130 -0.3870 -0.9876
  406TIP3   OH222632   2.171   5.813  14.044 -0.0183  0.6482 -0.4931
  406TIP3    H122633   2.093   5.857  14.010 -0.4114  0.7650  0.5347
  406TIP3    H222634   2.137   5.734  14.087  0.3922  0.8798  0.2613
  407TIP3   OH222635   2.905   5.355   4.585  0.4396  0.0172 -0.0110
  407TIP3    H122636   2.891   5.297   4.660 -1.5982 -0.1395 -0.4722
  407TIP3    H222637   2.822   5.403   4.576  0.1185 -0.9766 -2.9815
  408TIP3   OH222638   2.958   3.910   3.549 -0.5399  0.4348 -0.4611
  408TIP3    H122639   2.962   3.928   3.643 -1.9893  0.5370 -0.4141
  408TIP3    H222640   2.865   3.903   3.530 -0.2818  1.1668 -2.0404
  409TIP3   OH222641   5.831   1.874  11.337 -0.4124 -0.1490  0.2164
  409TIP3    H122642   5.923   1.848  11.329 -0.2193  0.5248  0.2970
  409TIP3    H222643   5.798   1.822  11.411 -0.0098 -0.1283  0.4093
  410TIP3   OH222644   4.498   2.103  14.666 -0.3381 -0.5645  0.4782
  410TIP3    H122645   4.424   2.147  14.625 -0.3550  0.9335  2.0459
  410TIP3    H222646   4.538   2.051  14.596 -2.4127 -0.7956 -0.5586
  411TIP3   OH222647   3.822   2.562  11.893  1.3650  0.0302 -0.1282
  411TIP3    H122648   3.844   2.469  11.894 -2.4918 -0.9596 -1.2553
  411TIP3    H222649   3.776   2.577  11.975  1.2277  0.7657 -0.3328
  412TIP3   OH222650   3.953   2.362   4.086  0.7029  0.5534  0.3716
  412TIP3    H122651   3.940   2.290   4.148  1.3957  0.3837  0.3187
  412TIP3    H222652   3.864   2.384   4.057  0.4339  0.1675  0.8946
  413TIP3   OH222653   3.394   2.017   2.746 -0.0627  0.0319  0.0078
  413TIP3    H122654   3.370   1.925   2.736  0.5260 -0.0286 -0.9223
  413TIP3    H222655   3.451   2.019   2.823  1.3067 -0.6571 -0.9654
  414TIP3   OH222656   2.550   1.797   1.366  0.2789 -0.6512 -0.2258
  414TIP3    H122657   2.468   1.755   1.339  0.1455  0.6277 -1.9690
  414TIP3    H222658   2.565   1.863   1.298  1.0047  1.3912  1.8523
  415TIP3   OH222659   0.344   5.267   1.483 -0.2470 -0.0826 -0.0102
  415TIP3    H122660   0.319   5.179   1.512 -2.0516  0.9895  1.8834
  415TIP3    H222661   0.261   5.315   1.480  0.8726  1.9324  0.3638
  416TIP3   OH222662   3.558   5.491  13.993 -0.5269  0.0893  0.1924
  416TIP3    H122663   3.564   5.406  14.036 -0.4604 -0.1548 -0.2907
  416TIP3    H222664   3.491   5.539  14.042  0.7682  0.4542  1.6343
  417TIP3   OH222665   1.733   4.462  13.143 -0.0075 -0.6574  0.4499
  417TIP3    H122666   1.660   4.401  13.135 -0.3305 -0.3278  0.9010
  417TIP3    H222667   1.697   4.546  13.116  0.0807 -0.4051  1.1134
  418TIP3   OH222668   5.777   0.837   3.187  0.1847 -0.4666 -0.0729
  418TIP3    H122669   5.748   0.902   3.123 -0.1037 -0.1123  0.4158
  418TIP3    H222670   5.697   0.793   3.215  0.3896 -1.0988 -0.4701
  419TIP3   OH222671   4.843   3.550   5.145  0.1409  0.1630 -0.3999
  419TIP3    H122672   4.832   3.645   5.138 -0.4914  0.0168 -1.4384
  419TIP3    H222673   4.925   3.531   5.099  1.2905  0.4324  1.4973
  420TIP3   OH222674   6.563   2.118   0.667 -0.1564  0.0909  0.0762
  420TIP3    H122675   6.483   2.145   0.712  0.4313  0.3083  1.0065
  420TIP3    H222676   6.616   2.197   0.663 -0.2821  0.1288 -1.2062
  421TIP3   OH222677   5.811   4.706  14.023  0.0477  0.1316 -0.2373
  421TIP3    H122678   5.838   4.722  13.932 -1.5306  0.3107 -0.6876
  421TIP3    H222679   5.890   4.673  14.066  0.7811 -0.0653 -1.7020
  422TIP3   OH222680   1.569   3.848  11.558 -0.0595 -0.4927 -0.2989
  422TIP3    H122681   1.657   3.830  11.523  0.1744  0.0563  0.0113
  422TIP3    H222682   1.569   3.941  11.577  0.0359 -0.9077  1.7806
  423TIP3   OH222683   3.283   6.704  13.395 -0.3428 -0.0687  0.0374
  423TIP3    H122684   3.346   6.657  13.449  0.6974  0.0322 -1.0627
  423TIP3    H222685   3.303   6.677  13.306 -3.5586 -2.0164 -0.1468
  424TIP3   OH222686   1.760   0.314  13.587 -0.8213 -0.3552  0.2588
  424TIP3    H122687   1.685   0.301  13.529  0.0227  1.4276 -1.3031
  424TIP3    H222688   1.791   0.226  13.607 -2.3127 -1.0553 -0.4339
  425TIP3   OH222689   4.947   6.229   5.253  0.5382  0.3777 -0.5531
  425TIP3    H122690   4.912   6.140   5.261 -1.5219  1.2556  0.5203
  425TIP3    H222691   4.871   6.286   5.265  2.2027  2.3400  1.1089
  426TIP3   OH222692   2.659   3.214  11.834 -0.2790  0.0688  0.3457
  426TIP3    H122693   2.647   3.123  11.808 -2.2470 -0.0294  1.5294
  426TIP3    H222694   2.649   3.264  11.753  1.5386 -0.7952 -0.4413
  427TIP3   OH222695   5.923   0.964  16.329  0.3829  0.6036  0.1990
  427TIP3    H122696   5.982   0.957  16.254  0.9315  0.6411  0.6249
  427TIP3    H222697   5.980   0.956  16.406  0.0441  2.1424  0.6401
  428TIP3   OH222698   3.537   5.573  12.135  0.1338  0.1659  0.5166
  428TIP3    H122699   3.521   5.633  12.062  2.0258  0.5068  0.3716
  428TIP3    H222700   3.510   5.487  12.101 -0.4262  0.5565 -0.0487
  429TIP3   OH222701   1.547   5.225   4.200 -0.4227  0.5501 -0.3322
  429TIP3    H122702   1.604   5.257   4.130  3.1014  0.6382  2.4295
  429TIP3    H222703   1.484   5.296   4.215  0.6013  1.7084 -1.4257
  430TIP3   OH222704   3.277   6.645   5.155 -0.1178 -0.1639 -0.0302
  430TIP3    H122705   3.282   6.577   5.087 -0.2145 -0.6289  0.4216
  430TIP3    H222706   3.230   6.602   5.227 -3.3557  1.4671 -1.0664
  431TIP3   OH222707   5.390   6.187  11.448 -0.0313  0.1017 -0.3904
  431TIP3    H122708   5.309   6.180  11.499  0.0223  1.7902 -0.0299
  431TIP3    H222709   5.382   6.272  11.403  0.5447 -0.7390 -2.1103
  432TIP3   OH222710   6.604   6.268   0.154 -0.8502  0.5948  0.0599
  432TIP3    H122711   6.592   6.333   0.086 -1.3419  0.3344 -0.1082
  432TIP3    H222712   6.582   6.313   0.235  0.4211  1.1053  0.1282
  433TIP3   OH222713   2.600   4.446   2.893 -0.0977 -0.8345 -0.3764
  433TIP3    H122714   2.651   4.462   2.972  0.3192  0.3446 -0.8701
  433TIP3    H222715   2.567   4.532   2.868 -1.3506 -1.4010 -0.7349
  434TIP3   OH222716   2.293   1.870  15.683  0.7905 -0.1392  0.5799
  434TIP3    H122717   2.269   1.954  15.723 -0.6570 -0.1856 -0.1660
  434TIP3    H222718   2.270   1.805  15.749  0.3853 -0.0665  0.5117
  435TIP3   OH222719   6.633   1.966  16.477  0.0489 -0.5073 -0.0588
  435TIP3    H122720   6.558   2.012  16.440  1.0741  1.8468  0.6604
  435TIP3    H222721   6.709   2.012  16.441  1.1910 -2.9093 -0.8575
  436TIP3   OH222722   1.922   6.146  16.154 -0.1584  0.2415 -0.4129
  436TIP3    H122723   1.891   6.143  16.063 -0.4919 -0.4878 -0.2793
  436TIP3    H222724   1.953   6.057  16.171  2.5237  1.0758 -0.7158
  437TIP3   OH222725   5.044   4.386  16.492 -0.6402 -0.4764  0.1030
  437TIP3    H122726   5.134   4.364  16.514 -0.2405 -1.3734 -2.2974
  437TIP3    H222727   4.993   4.359  16.569  0.7520 -2.8387  0.2392
  438TIP3   OH222728   6.306   0.809   3.905  0.8283 -0.2616 -0.3803
  438TIP3    H122729   6.232   0.768   3.861  0.1956 -0.1095  0.5073
  438TIP3    H222730   6.300   0.902   3.882  0.0572 -0.0524  0.5933
  439TIP3   OH222731   1.019   2.742   3.671  0.1864 -0.0146  0.0154
  439TIP3    H122732   0.963   2.818   3.688 -0.0676  0.3327 -2.3004
  439TIP3    H222733   1.058   2.758   3.586  1.3178 -1.7820  0.1615
  440TIP3   OH222734   6.297   2.010  15.525  0.4248 -0.1561 -0.2904
  440TIP3    H122735   6.372   2.058  15.490  0.9791 -1.2340 -0.6223
  440TIP3    H222736   6.322   1.918  15.517 -0.5377 -0.4963  0.5043
  441TIP3   OH222737   4.769   2.576  15.083  0.1435  0.6838 -0.3128
  441TIP3    H122738   4.834   2.551  15.017  1.3918 -0.8408  1.4525
  441TIP3    H222739   4.688   2.533  15.054  1.2685 -2.0108  0.4321
  442TIP3   OH222740   0.570   4.574  13.626 -0.7067  0.1999  0.0943
  442TIP3    H122741   0.537   4.489  13.597  1.2771 -0.1981 -1.1212
  442TIP3    H222742   0.558   4.632  13.551 -0.5894  0.5770  0.3633
  443TIP3   OH222743   5.078   4.981  11.817 -0.7918 -0.2679  0.3423
  443TIP3    H122744   5.008   5.047  11.818 -0.2803  0.2696  2.1886
  443TIP3    H222745   5.035   4.900  11.845 -1.6667 -1.0465 -2.9675
  444TIP3   OH222746   3.970   0.516   1.449  0.3135  0.3413 -0.0787
  444TIP3    H122747   3.880   0.507   1.479 -0.2620 -0.2927 -1.9202
  444TIP3    H222748   4.018   0.550   1.525 -1.1017 -1.0891  1.4950
  445TIP3   OH222749   3.490   1.473   3.642  0.1459 -0.5848  0.0221
  445TIP3    H122750   3.547   1.512   3.708  0.4983  0.1434 -0.7071
  445TIP3    H222751   3.421   1.430   3.692 -0.5187  1.3906  0.8209
  446TIP3   OH222752   3.274   2.736  12.374  1.0137 -0.5109  0.2652
  446TIP3    H122753   3.239   2.747  12.463  1.8728  1.1142  0.4235
  446TIP3    H222754   3.202   2.762  12.317  1.1540  0.5639  0.5508
  447TIP3   OH222755   3.592   2.631   3.864 -0.0227 -0.0839  0.1442
  447TIP3    H122756   3.672   2.671   3.831 -0.2136 -0.2799 -0.5465
  447TIP3    H222757   3.522   2.668   3.811 -0.3569 -0.1796  0.5149
  448TIP3   OH222758   5.669   5.216  12.267 -0.8706  0.4744  0.1076
  448TIP3    H122759   5.621   5.199  12.348 -2.3102 -0.1401 -0.8517
  448TIP3    H222760   5.759   5.231  12.295 -1.2994  0.0066  1.7966
  449TIP3   OH222761   5.749   3.971  11.243 -0.1180 -0.1796 -0.2132
  449TIP3    H122762   5.711   4.059  11.238 -0.5365 -0.3893 -0.7147
  449TIP3    H222763   5.677   3.912  11.224  0.2096 -0.6245 -0.0766
  450TIP3   OH222764   0.889   6.156  10.931  0.6576 -0.0507 -0.3926
  450TIP3    H122765   0.874   6.193  11.018  0.5138 -0.1882 -0.3571
  450TIP3    H222766   0.984   6.142  10.927  0.9318  1.9753 -1.0882
  451TIP3   OH222767   2.766   2.151   3.346  0.5027  0.1532  1.0299
  451TIP3    H122768   2.850   2.181   3.311 -0.3270  1.1028 -0.1832
  451TIP3    H222769   2.789   2.085   3.411  2.2189  0.9501  1.2472
  452TIP3   OH222770   1.074   2.453   4.796  0.4721 -0.0408 -0.2416
  452TIP3    H122771   1.008   2.498   4.849 -0.4428  1.3573 -2.4890
  452TIP3    H222772   1.069   2.362   4.824 -1.0354  0.4065  1.0112
  453TIP3   OH222773   0.838   1.879  16.499  0.4168 -0.0710  0.0815
  453TIP3    H122774   0.880   1.824  16.433 -0.6238 -1.2128  0.3456
  453TIP3    H222775   0.850   1.831  16.582  2.4443  1.7556  0.8664
  454TIP3   OH222776   6.043   0.739   3.830 -0.1273  0.4585  0.6945
  454TIP3    H122777   6.022   0.673   3.897 -0.7160 -0.4999 -0.4121
  454TIP3    H222778   5.964   0.746   3.778  0.8238  0.0649 -0.8356
  455TIP3   OH222779   6.060   1.028  15.862 -0.7500  0.0727 -0.4106
  455TIP3    H122780   6.108   1.072  15.791 -1.2212  0.2410 -0.6309
  455TIP3    H222781   5.984   0.988  15.818 -0.4732 -0.7284 -0.1675
  456TIP3   OH222782   1.922   0.876   5.158 -0.1064 -0.0990  0.2862
  456TIP3    H122783   1.994   0.930   5.126  0.5977 -0.6674  0.9012
  456TIP3    H222784   1.873   0.853   5.079 -0.5296  1.5853  0.0354
  457TIP3   OH222785   1.200   2.597  11.719  0.3056  0.3392 -0.5881
  457TIP3    H122786   1.262   2.653  11.673 -0.1700  1.3123 -0.0829
  457TIP3    H222787   1.247   2.568  11.797  0.0915  1.1847 -0.1368
  458TIP3   OH222788   6.000   2.714  13.862 -0.4497  0.1997 -0.1698
  458TIP3    H122789   5.951   2.769  13.923 -0.4892 -0.7585  0.6769
  458TIP3    H222790   6.063   2.667  13.916 -1.4727 -1.7740 -0.6043
  459TIP3   OH222791   1.233   3.930  16.405  0.1592  0.0709  0.2362
  459TIP3    H122792   1.203   3.935  16.315  1.0578  0.7928 -0.0435
  459TIP3    H222793   1.270   3.842  16.414 -0.7270 -0.3112  0.1671
  460TIP3   OH222794   0.021   5.633  14.556 -0.1751  0.3135 -0.2886
  460TIP3    H122795   0.066   5.594  14.631  1.4802 -0.3899 -1.6354
  460TIP3    H222796   0.050   5.724  14.556  2.2895 -0.4408 -1.9011
  461TIP3   OH222797   0.858   3.431  11.321 -0.3246 -0.4615  0.6444
  461TIP3    H122798   0.861   3.524  11.344 -4.3275  0.0203 -0.3890
  461TIP3    H222799   0.910   3.424  11.241  2.5777  0.2621  2.3930
  462TIP3   OH222800   4.068   4.119   3.488  0.4859  0.3546 -0.1760
  462TIP3    H122801   4.111   4.048   3.537 -1.2042  0.5527  1.6439
  462TIP3    H222802   4.115   4.198   3.516  0.5386  0.2887 -0.0763
  463TIP3   OH222803   4.653   6.312  17.005 -0.4427  0.3395 -0.5508
  463TIP3    H122804   4.742   6.330  17.033 -0.6712 -0.0033  0.4169
  463TIP3    H222805   4.663   6.261  16.925  0.2951 -2.3406  1.1605
  464TIP3   OH222806   4.032   2.035  15.225 -0.2017 -0.0328 -0.8698
  464TIP3    H122807   3.942   2.053  15.255 -0.2731 -1.8926  0.0910
  464TIP3    H222808   4.046   2.099  15.155 -2.5725 -0.2357 -1.5928
  465TIP3   OH222809   6.253   0.196   4.816  0.2041 -0.1510  0.4661
  465TIP3    H122810   6.184   0.131   4.825  0.6593 -0.7980 -0.6723
  465TIP3    H222811   6.216   0.262   4.757 -0.4618  0.9181  2.0548
  466TIP3   OH222812   4.577   5.927  14.770 -0.9804 -0.8183 -0.6935
  466TIP3    H122813   4.588   5.948  14.863  1.2993  0.3706 -1.1841
  466TIP3    H222814   4.482   5.928  14.756 -1.2761  1.6242  1.0528
  467TIP3   OH222815   4.579   0.486  11.097  0.4761  0.4907  0.0148
  467TIP3    H122816   4.622   0.400  11.094 -0.4846 -0.0259  0.4176
  467TIP3    H222817   4.524   0.488  11.019 -0.6810  0.0757  0.7904
  468TIP3   OH222818   2.379   2.442   3.957  0.0482  0.0428 -0.3319
  468TIP3    H122819   2.308   2.506   3.963  0.3875  0.5097 -1.1558
  468TIP3    H222820   2.455   2.488   3.993 -0.1743 -0.6275  1.0024
  469TIP3   OH222821   2.548   0.788  16.796 -0.0049 -0.1096 -0.4288
  469TIP3    H122822   2.627   0.823  16.754  0.0454 -1.9501 -1.9427
  469TIP3    H222823   2.479   0.850  16.771  0.1490 -0.8136 -2.7749
  470TIP3   OH222824   0.448   0.754  15.539  0.0798  0.7505 -0.1383
  470TIP3    H122825   0.515   0.719  15.480  0.5211  1.7745 -0.2531
  470TIP3    H222826   0.469   0.717  15.625  1.1840  1.5927 -0.0444
  471TIP3   OH222827   2.318   1.460   4.402  0.3188 -0.2061 -0.1240
  471TIP3    H122828   2.231   1.450   4.442  0.8724 -2.2426  0.6282
  471TIP3    H222829   2.323   1.387   4.339  1.3166  0.1592 -0.4666
  472TIP3   OH222830   2.063   4.261  17.030  0.0210  1.0622 -0.3670
  472TIP3    H122831   2.153   4.266  17.063 -0.6569 -0.2051  1.7233
  472TIP3    H222832   2.018   4.335  17.071 -0.8644 -0.6090  1.7075
  473TIP3   OH222833   3.065   0.350   3.115 -0.4859  0.2895  0.4607
  473TIP3    H122834   3.026   0.284   3.172  0.3644  0.8802  1.7546
  473TIP3    H222835   3.107   0.412   3.175  1.2418  0.4173 -0.8463
  474TIP3   OH222836   1.798   1.233  11.488  0.3980  0.1600  0.2341
  474TIP3    H122837   1.717   1.243  11.437  0.4074  0.5640  0.2907
  474TIP3    H222838   1.775   1.172  11.558  0.5084 -0.7311 -0.5108
  475TIP3   OH222839   2.895   6.214   4.535 -0.0619 -0.3959  0.3871
  475TIP3    H122840   2.988   6.192   4.525  0.2119  0.5018  0.8906
  475TIP3    H222841   2.877   6.202   4.628  0.0679  1.3308  0.6631
  476TIP3   OH222842   2.352   6.384   0.609  0.3167  0.5223 -0.0133
  476TIP3    H122843   2.423   6.443   0.582  1.2604 -0.2725  0.7161
  476TIP3    H222844   2.326   6.415   0.695  0.6211  0.0556  0.2495
  477TIP3   OH222845   1.017   1.532   4.668  0.1135  0.5137  0.1795
  477TIP3    H122846   0.999   1.446   4.629 -0.7738  1.4022 -1.3996
  477TIP3    H222847   0.968   1.532   4.751 -1.6863  0.3195 -0.8615
  478TIP3   OH222848   6.683   5.265   4.980  0.0767 -0.1227 -0.0529
  478TIP3    H122849   6.751   5.289   4.917  0.9960  0.1683  1.0218
  478TIP3    H222850   6.656   5.177   4.955 -0.7528  0.6246 -1.8493
  479TIP3   OH222851   5.033   0.128   4.579 -0.8493 -0.5512 -0.0748
  479TIP3    H122852   4.982   0.169   4.509  1.3677  0.6764 -1.0341
  479TIP3    H222853   5.049   0.039   4.548  1.8241  0.5878 -2.1081
  480TIP3   OH222854   6.564   0.819   5.709 -0.5440 -0.1480  0.1805
  480TIP3    H122855   6.495   0.753   5.705  0.0859 -0.7726 -0.5831
  480TIP3    H222856   6.645   0.769   5.719  0.1792  0.3659 -2.7136
  481TIP3   OH222857   6.484   6.155  11.708  0.1475 -0.0133 -0.0814
  481TIP3    H122858   6.535   6.221  11.661 -0.5920  0.7245  0.1469
  481TIP3    H222859   6.499   6.074  11.659 -0.7673  0.7807 -1.7100
  482TIP3   OH222860   6.779   1.641  11.046 -0.0239  0.6171 -0.0992
  482TIP3    H122861   6.704   1.661  10.990  0.9221 -0.6296 -1.8636
  482TIP3    H222862   6.794   1.547  11.032 -0.2076  0.1090  2.8275
  483TIP3   OH222863   2.056   2.614   1.132 -0.5132  0.2222  0.6697
  483TIP3    H122864   2.147   2.587   1.144  0.3331  3.9997  3.6982
  483TIP3    H222865   2.024   2.627   1.222 -3.5604  0.5307 -0.4150
  484TIP3   OH222866   6.648   0.164  15.545  0.7795 -0.1101  0.1610
  484TIP3    H122867   6.720   0.103  15.525  0.9056  0.0934 -0.0065
  484TIP3    H222868   6.692   0.244  15.574  0.6782  0.8718 -2.3409
  485TIP3   OH222869   2.705   0.026  15.750  0.1587 -0.5003  0.9679
  485TIP3    H122870   2.710  -0.025  15.669 -0.9315  0.1804  0.4688
  485TIP3    H222871   2.630   0.083  15.738  2.1124  2.1556  0.9833
  486TIP3   OH222872   3.761   4.768   1.236  0.4377  0.3044 -0.4989
  486TIP3    H122873   3.666   4.778   1.225  0.2138 -1.9936 -0.8896
  486TIP3    H222874   3.794   4.759   1.146  0.9644  0.5387 -0.3283
  487TIP3   OH222875   2.323   2.510   1.184  0.2854  0.1299  0.2268
  487TIP3    H122876   2.329   2.601   1.153  1.0516  0.9289  2.5847
  487TIP3    H222877   2.412   2.490   1.215  0.4059 -1.8314 -1.3402
  488TIP3   OH222878   0.860   4.579  15.604 -0.2439  1.2659  0.1660
  488TIP3    H122879   0.875   4.484  15.608  2.5628  1.6147 -0.9038
  488TIP3    H222880   0.915   4.615  15.674 -0.2814  2.1938 -0.2759
  489TIP3   OH222881   2.753   3.923  12.551  0.4442 -0.1422 -0.5727
  489TIP3    H122882   2.729   3.932  12.643 -0.1670  1.6506 -0.8961
  489TIP3    H222883   2.685   3.867  12.514  0.9667 -1.2778  0.1666
  490TIP3   OH222884   5.332   1.139   5.857  0.8376  0.0020 -0.1704
  490TIP3    H122885   5.287   1.217   5.824  0.3088 -0.4694 -0.5583
  490TIP3    H222886   5.294   1.125   5.944  0.2486 -0.3868 -0.4909
  491TIP3   OH222887   2.219   5.243   4.282 -0.0541 -0.5627 -0.4151
  491TIP3    H122888   2.176   5.186   4.345 -0.5710 -1.0688 -1.2225
  491TIP3    H222889   2.233   5.188   4.204  0.6018  0.0433 -0.7335
  492TIP3   OH222890   0.507   1.498   1.751  0.2602 -0.3592  0.6565
  492TIP3    H122891   0.488   1.437   1.681  0.2405 -0.2148  0.5344
  492TIP3    H222892   0.536   1.444   1.824  1.7068 -0.4154  0.0704
  493TIP3   OH222893   3.013   6.423  15.048  0.4458 -0.4566  0.1546
  493TIP3    H122894   3.099   6.464  15.035 -0.8343  2.5805  0.7676
  493TIP3    H222895   3.022   6.336  15.010  2.7477  1.0602 -2.9791
  494TIP3   OH222896   4.574   4.393   5.134  0.4292  0.4883 -0.2239
  494TIP3    H122897   4.630   4.426   5.063 -0.5611  0.4623 -1.0354
  494TIP3    H222898   4.500   4.353   5.088 -0.5927  1.1269  0.8542
  495TIP3   OH222899   6.044   0.155   1.758 -0.1680 -0.3898 -0.3319
  495TIP3    H122900   6.081   0.084   1.705  1.7635  1.0000 -0.9191
  495TIP3    H222901   6.097   0.232   1.735 -0.2886  0.5865  2.5182
  496TIP3   OH222902   0.326   0.782  12.441  0.0786 -0.3590  0.8882
  496TIP3    H122903   0.307   0.873  12.418  0.7872 -0.3612  0.3015
  496TIP3    H222904   0.293   0.731  12.367  0.3883 -0.5263  0.8653
  497TIP3   OH222905   2.254   4.494  16.837 -0.1623 -0.1270  0.0881
  497TIP3    H122906   2.320   4.534  16.780  0.9363  0.8392  2.0136
  497TIP3    H222907   2.195   4.448  16.776  0.2430  1.9341 -1.9230
  498TIP3   OH222908   0.995   3.403  15.947  0.1487  0.0523  0.5394
  498TIP3    H122909   0.916   3.409  16.000  0.7698 -2.6986  1.8740
  498TIP3    H222910   0.963   3.382  15.859 -0.7642  2.4993  0.2467
  499TIP3   OH222911   2.267   5.281  14.288 -0.1645  0.3581 -0.8061
  499TIP3    H122912   2.200   5.330  14.337 -0.1261 -0.5431  0.1793
  499TIP3    H222913   2.299   5.342  14.223 -2.7971  0.4708 -2.0894
  500TIP3   OH222914   0.676   0.696  11.070 -0.7664 -0.2640  0.1824
  500TIP3    H122915   0.656   0.619  11.123  1.2537 -1.4321 -0.7108
  500TIP3    H222916   0.599   0.708  11.015 -0.4385 -2.6643 -0.8520
  501TIP3   OH222917   3.844   5.188  12.472  0.1226  0.1315 -0.0805
  501TIP3    H122918   3.848   5.196  12.376 -1.3287 -0.9811 -0.2630
  501TIP3    H222919   3.808   5.271  12.502 -1.2170 -0.2091 -0.6877
  502TIP3   OH222920   2.409   1.289   2.724 -0.1934 -0.4280  0.7853
  502TIP3    H122921   2.485   1.243   2.761  0.9425 -0.9936 -2.0741
  502TIP3    H222922   2.414   1.377   2.761  1.3960 -0.7024  1.2695
  503TIP3   OH222923   3.653   1.051  15.846  0.0535 -0.1408  0.0754
  503TIP3    H122924   3.567   1.062  15.805 -0.3527 -1.0167  0.6632
  503TIP3    H222925   3.713   1.098  15.789 -0.5845 -0.8986 -1.2436
  504TIP3   OH222926   0.062   4.092   1.978 -0.7134 -0.0204  0.3725
  504TIP3    H122927   0.134   4.042   2.017 -0.2111 -0.4272 -1.0600
  504TIP3    H222928   0.031   4.148   2.049  1.1703  0.3359  0.9454
  505TIP3   OH222929   6.328   3.988  11.248  0.8453 -0.2413  0.1961
  505TIP3    H122930   6.246   4.036  11.240  0.6494 -0.4275  0.9819
  505TIP3    H222931   6.389   4.052  11.285  1.5305  0.3971 -1.9741
  506TIP3   OH222932   1.452   2.980   2.824 -0.1680  0.3760 -0.0014
  506TIP3    H122933   1.534   2.936   2.844 -0.3892 -0.5968 -1.1316
  506TIP3    H222934   1.447   3.053   2.886  0.9017 -0.3442  0.9348
  507TIP3   OH222935   5.475   0.666  12.740 -0.0899  0.4545 -0.3537
  507TIP3    H122936   5.455   0.756  12.716  0.5679  0.5662 -0.4878
  507TIP3    H222937   5.490   0.622  12.657  3.0973  1.0554 -0.1543
  508TIP3   OH222938   2.128   2.502   5.094  0.0572 -0.2916  0.3190
  508TIP3    H122939   2.103   2.575   5.150 -0.5738  0.5209 -0.9896
  508TIP3    H222940   2.112   2.424   5.148 -1.7314  0.4058  0.8423
  509TIP3   OH222941   1.320   6.631  13.535 -0.2509 -0.3945  0.0338
  509TIP3    H122942   1.234   6.665  13.511 -1.1379 -2.3301  0.4047
  509TIP3    H222943   1.310   6.603  13.626  0.1001 -2.6814 -0.5917
  510TIP3   OH222944   3.400   5.998   4.048 -0.5922 -0.1767 -0.3342
  510TIP3    H122945   3.480   6.002   4.102 -0.0411 -0.1378 -1.1448
  510TIP3    H222946   3.432   5.995   3.958 -1.4626 -1.8588 -0.6153
  511TIP3   OH222947   5.244   4.677   4.790  0.0682  0.1788  0.0539
  511TIP3    H122948   5.285   4.753   4.831  1.2686 -0.2761 -0.2683
  511TIP3    H222949   5.291   4.667   4.707 -1.3471  0.2115 -0.7521
  512TIP3   OH222950   5.758   5.589  14.498  0.1296 -0.0180  0.2815
  512TIP3    H122951   5.831   5.535  14.530 -1.0768 -1.7536  0.1472
  512TIP3    H222952   5.686   5.569  14.557 -0.8327  0.1245 -0.8314
  513TIP3   OH222953   6.453   1.210   2.640  0.2755  0.1496 -0.3047
  513TIP3    H122954   6.544   1.189   2.618  0.3695  0.0246  0.2169
  513TIP3    H222955   6.458   1.262   2.719 -0.1580 -0.5711  0.2076
  514TIP3   OH222956   5.167   4.765  16.704 -0.1765  0.2596  0.3942
  514TIP3    H122957   5.115   4.686  16.718  0.4208 -0.1699  0.2107
  514TIP3    H222958   5.102   4.833  16.684 -0.5474 -0.7850 -2.1843
  515TIP3   OH222959   5.344   6.330   1.917  0.3257 -0.0537  0.2992
  515TIP3    H122960   5.433   6.295   1.916  0.7307  0.9804 -0.8198
  515TIP3    H222961   5.342   6.394   1.845 -1.5248 -0.5797 -0.1525
  516TIP3   OH222962   4.285   0.862   0.459  0.0661 -0.0731  0.0596
  516TIP3    H122963   4.258   0.935   0.514  0.2997 -0.3635  0.5689
  516TIP3    H222964   4.211   0.801   0.461 -0.3484  0.3935 -0.8113
  517TIP3   OH222965   4.382   2.867   4.839  0.3595 -0.1861  0.2600
  517TIP3    H122966   4.314   2.935   4.840 -0.1877 -0.6556 -2.0885
  517TIP3    H222967   4.410   2.862   4.747  1.9683 -1.5863  0.7967
  518TIP3   OH222968   4.245   2.225   1.642 -0.3669 -0.4056 -0.2846
  518TIP3    H122969   4.224   2.225   1.549 -1.1380 -1.5973 -0.1311
  518TIP3    H222970   4.335   2.194   1.647 -0.3987 -0.5538 -0.6281
  519TIP3   OH222971   6.765   4.305   2.138 -0.1747  0.1973 -0.2812
  519TIP3    H122972   6.718   4.379   2.100  0.3243  0.3548 -0.5909
  519TIP3    H222973   6.848   4.342   2.169  0.6225 -0.4645 -1.5805
  520TIP3   OH222974   1.329   0.809   0.871  0.2143  0.4455 -0.3938
  520TIP3    H122975   1.281   0.800   0.953  1.3911 -1.1697  0.1639
  520TIP3    H222976   1.263   0.798   0.803 -0.1246 -2.8794  0.3439
  521TIP3   OH222977   5.664   5.069   6.286 -0.5316 -0.4596 -0.3461
  521TIP3    H122978   5.713   5.027   6.357 -2.2291 -0.3334  0.9419
  521TIP3    H222979   5.631   4.996   6.234 -0.2942 -0.5916 -0.3155
  522TIP3   OH222980   1.859   5.509   0.801 -0.3224  0.6314 -0.3417
  522TIP3    H122981   1.851   5.604   0.814  0.1865  0.6388 -0.0241
  522TIP3    H222982   1.845   5.496   0.707 -0.6806  0.9895 -0.3377
  523TIP3   OH222983   4.959   0.978   0.982 -0.1439  0.4389  0.5481
  523TIP3    H122984   4.927   0.992   1.072 -0.4693  1.0015  0.3503
  523TIP3    H222985   5.054   0.973   0.991 -0.1594  0.7359  0.8985
  524TIP3   OH222986   6.026   6.233   2.680  0.1311  0.2421 -0.3149
  524TIP3    H122987   6.094   6.221   2.614 -0.2729  0.4849 -0.7763
  524TIP3    H222988   5.946   6.250   2.630 -0.1091  0.7686  0.2392
  525TIP3   OH222989   6.674   0.377   5.952 -0.6982 -0.0038 -0.0369
  525TIP3    H122990   6.638   0.438   5.888  1.8423  3.1729  1.4027
  525TIP3    H222991   6.629   0.398   6.034  0.5455  0.3094  0.5796
  526TIP3   OH222992   0.964   4.642  11.879  0.4172  0.1363  0.1965
  526TIP3    H122993   1.034   4.704  11.857  0.8276 -0.5653 -0.4938
  526TIP3    H222994   0.928   4.615  11.794  1.0786 -1.5282  0.4267
  527TIP3   OH222995   1.820   0.016  14.041 -0.0174  0.3276 -0.0453
  527TIP3    H122996   1.890   0.081  14.041  0.5767 -0.2516  2.6888
  527TIP3    H222997   1.864  -0.067  14.057 -1.4000  0.1986  3.7567
  528TIP3   OH222998   2.892   3.476   6.080  0.0583 -0.0910 -0.2469
  528TIP3    H122999   2.931   3.501   6.164 -3.1432  0.6259  1.0833
  528TIP3    H223000   2.882   3.559   6.032  1.0571 -0.3916 -0.9909
  529TIP3   OH223001   4.823   1.533   5.246 -0.1125  0.1425 -0.1436
  529TIP3    H123002   4.893   1.569   5.191  0.3287 -0.5951 -0.0698
  529TIP3    H223003   4.778   1.469   5.191  0.5322 -0.8302  0.4421
  530TIP3   OH223004   2.283   0.237   4.345 -0.1056  0.3308  0.5127
  530TIP3    H123005   2.305   0.274   4.431 -0.6282  1.0285  0.3516
  530TIP3    H223006   2.330   0.153   4.342  0.2866  0.5172  1.2903
  531TIP3   OH223007   5.191   5.678  16.749  0.4159  0.1967  0.7314
  531TIP3    H123008   5.132   5.611  16.715  0.6982  0.5680 -0.5305
  531TIP3    H223009   5.258   5.628  16.797  0.7173 -0.4602 -0.3334
  532TIP3   OH223010   0.161   5.186  10.105 -0.7475 -0.3091 -0.3033
  532TIP3    H123011   0.105   5.259  10.081 -0.1963 -0.1092 -0.9871
  532TIP3    H223012   0.143   5.119  10.039  0.3305  0.0208 -0.9506
  533TIP3   OH223013   0.095   1.980   4.458  0.1128 -0.2191 -0.0570
  533TIP3    H123014   0.168   2.002   4.400 -0.2262  0.7330 -0.1279
  533TIP3    H223015   0.087   2.055   4.516 -0.7317 -0.3732  0.0284
  534TIP3   OH223016   2.376   2.754  12.405 -0.5689 -0.1187 -0.1394
  534TIP3    H123017   2.333   2.724  12.324  0.2005 -1.2444 -0.1435
  534TIP3    H223018   2.311   2.739  12.474  0.0955 -2.5710 -0.0260
  535TIP3   OH223019   4.323   2.823  16.621  0.2884  0.0834 -0.1132
  535TIP3    H123020   4.232   2.840  16.596  0.1870  1.8758  1.4060
  535TIP3    H223021   4.361   2.780  16.544 -2.4290 -2.7757  0.0276
  536TIP3   OH223022   5.243   2.576   2.192  0.2876  0.2929  0.2484
  536TIP3    H123023   5.308   2.632   2.150  1.8704 -1.2235  0.5965
  536TIP3    H223024   5.260   2.586   2.285  2.8597 -3.2269  0.2852
  537TIP3   OH223025   3.622   5.144  15.510 -0.6928 -0.0373  0.0361
  537TIP3    H123026   3.617   5.160  15.415  3.9607  1.7659 -0.0409
  537TIP3    H223027   3.686   5.073  15.518 -1.6810 -0.7328  1.7864
  538TIP3   OH223028   5.946   6.161  10.922 -0.3605 -0.5863  0.0859
  538TIP3    H123029   5.856   6.167  10.954 -0.2788  1.3430  0.0014
  538TIP3    H223030   5.941   6.104  10.845 -1.4736 -0.6228  0.1850
  539TIP3   OH223031   4.120   2.874  12.101 -0.3033 -0.4300  0.2826
  539TIP3    H123032   4.207   2.838  12.084 -0.0926  0.1307  0.1844
  539TIP3    H223033   4.118   2.956  12.052  0.0547  0.8817  2.4406
  540TIP3   OH223034   2.578   5.707  12.825 -0.9502 -0.0604 -0.1290
  540TIP3    H123035   2.505   5.762  12.795 -0.0776  0.3464 -1.5072
  540TIP3    H223036   2.641   5.769  12.863  0.2213 -0.0410 -2.0563
  541TIP3   OH223037   1.748   5.830   1.628  0.6458 -0.1815 -0.0938
  541TIP3    H123038   1.790   5.844   1.713  0.9829 -0.3203 -0.2386
  541TIP3    H223039   1.820   5.815   1.568  0.4491  0.7619 -0.5705
  542TIP3   OH223040   2.002   6.306  14.944  0.1785  0.8105 -0.7705
  542TIP3    H123041   2.017   6.390  14.985 -1.9851  0.8445 -0.0064
  542TIP3    H223042   1.987   6.245  15.017  0.3074  0.0530 -1.3635
  543TIP3   OH223043   4.011   5.399   2.412  0.0166 -0.0956  0.3836
  543TIP3    H123044   4.079   5.339   2.381  0.6561  1.2846 -0.9637
  543TIP3    H223045   3.929   5.352   2.399  0.4908 -0.5727 -0.9421
  544TIP3   OH223046   0.341   3.874   2.636 -0.5502 -0.1543  0.1278
  544TIP3    H123047   0.327   3.968   2.640  0.5146 -0.0490  1.7480
  544TIP3    H223048   0.414   3.858   2.695 -0.3400 -1.9244 -0.5864
  545TIP3   OH223049   0.188   0.652   5.872  0.1473 -0.4266  0.2555
  545TIP3    H123050   0.225   0.676   5.787 -0.4404 -0.1808  0.0745
  545TIP3    H223051   0.258   0.601   5.914 -0.2260 -2.0897 -1.0937
  546TIP3   OH223052   2.384   5.094   5.580  0.0486  0.1446 -0.1856
  546TIP3    H123053   2.434   5.113   5.660  0.8669  0.2765 -0.7253
  546TIP3    H223054   2.341   5.177   5.560 -0.6156 -0.0473  0.4406
  547TIP3   OH223055   3.203   0.159   2.292 -0.4409 -0.6327 -0.0267
  547TIP3    H123056   3.279   0.136   2.345  0.1873  3.1849  0.9036
  547TIP3    H223057   3.136   0.096   2.317  1.4144 -2.0432  1.5280
  548TIP3   OH223058   2.134   0.955   4.078  0.1357 -0.0430  0.2204
  548TIP3    H123059   2.116   0.876   4.027  0.6737 -0.2790  0.3881
  548TIP3    H223060   2.229   0.956   4.087  0.2325  1.2473 -0.7697
  549TIP3   OH223061   2.899   2.962  17.149 -0.6278  1.0394  0.6523
  549TIP3    H123062   2.913   2.869  17.166  0.7020  1.1305  0.1082
  549TIP3    H223063   2.966   3.007  17.200 -0.0712  1.5915 -0.5414
  550TIP3   OH223064   0.743   5.573  12.635  0.2794  0.1533  0.3752
  550TIP3    H123065   0.815   5.585  12.572  1.3657 -3.1046  0.9206
  550TIP3    H223066   0.784   5.585  12.721 -0.5362  1.5184  0.5756
  551TIP3   OH223067   6.379   0.100   1.779  1.0185  0.4796  0.2531
  551TIP3    H123068   6.344   0.011   1.777  0.6619  0.6371 -0.4197
  551TIP3    H223069   6.343   0.138   1.860 -0.1849  0.5625 -0.3164
  552TIP3   OH223070   0.441   3.840  12.306  0.1733 -0.5536 -0.2333
  552TIP3    H123071   0.393   3.842  12.223  0.1598 -1.7854 -0.2605
  552TIP3    H223072   0.377   3.809  12.370 -0.1132  1.3743  0.4581
  553TIP3   OH223073   1.975   1.610  15.218  0.6992 -0.1620  0.5653
  553TIP3    H123074   1.982   1.612  15.313  0.4513  0.7035  0.5711
  553TIP3    H223075   1.973   1.517  15.196  0.3040 -0.3698  1.4428
  554TIP3   OH223076   2.898   4.633  11.819  0.6069  0.9400 -0.2602
  554TIP3    H123077   2.863   4.714  11.856 -1.0604  0.2334 -0.2511
  554TIP3    H223078   2.910   4.575  11.894  1.8045  1.1533 -0.2673
  555TIP3   OH223079   1.670   3.375   4.093 -0.3505  0.0351 -0.5829
  555TIP3    H123080   1.657   3.281   4.102 -0.2083 -0.1284 -1.9629
  555TIP3    H223081   1.760   3.390   4.122  0.7613 -0.7555 -3.4273
  556TIP3   OH223082   2.726   1.124  17.188  0.1714  0.5214 -0.2719
  556TIP3    H123083   2.768   1.148  17.270  0.5845  0.4339 -0.4552
  556TIP3    H223084   2.640   1.091  17.213  1.0871 -1.4810  0.2964
  557TIP3   OH223085   2.653   1.914  15.462  0.2411  0.0919  0.6484
  557TIP3    H123086   2.626   1.836  15.413  2.4034 -0.7981  0.8426
  557TIP3    H223087   2.728   1.948  15.415  1.1609  0.3395  2.2515
  558TIP3   OH223088   0.911   0.870   0.806 -0.4668 -0.2512 -1.1207
  558TIP3    H123089   0.847   0.860   0.735 -0.6001 -2.0862 -0.7597
  558TIP3    H223090   0.970   0.938   0.775 -1.0792 -0.3675 -2.5960
  559TIP3   OH223091   5.937   2.517   3.226 -0.8339  0.2016 -0.1817
  559TIP3    H123092   5.879   2.448   3.260 -0.6642  0.5376  0.8326
  559TIP3    H223093   6.023   2.494   3.261 -0.4597 -0.0083 -1.2544
  560TIP3   OH223094   2.332   1.948   0.498 -0.7700  0.1475  0.2833
  560TIP3    H123095   2.326   2.036   0.536 -1.6715 -0.5296  1.7524
  560TIP3    H223096   2.424   1.924   0.508 -0.2347  1.4602 -1.3676
  561TIP3   OH223097   6.565   6.697   4.155  0.2209 -0.7094  0.2486
  561TIP3    H123098   6.482   6.649   4.149 -0.4198  0.5339 -1.0320
  561TIP3    H223099   6.628   6.641   4.111 -0.8850  0.3553 -2.8160
  562TIP3   OH223100   0.841   1.670   0.146  0.0063 -0.8592  0.0714
  562TIP3    H123101   0.826   1.610   0.219  0.6466 -0.3217  0.6533
  562TIP3    H223102   0.753   1.694   0.116 -0.2594 -1.0770  0.6712
  563TIP3   OH223103   3.183   5.575  13.460  0.3977  0.1030 -0.3892
  563TIP3    H123104   3.122   5.553  13.390  0.8351  0.3360 -0.8430
  563TIP3    H223105   3.213   5.663  13.439  1.5078 -0.3290 -0.6037
  564TIP3   OH223106   0.239   0.511   2.668  0.1473 -0.0441  0.2094
  564TIP3    H123107   0.148   0.491   2.648  0.1805  0.1788 -0.1753
  564TIP3    H223108   0.286   0.430   2.650  0.1169  0.0349 -0.2280
  565TIP3   OH223109   2.757   0.326   0.049  0.0869 -0.6505 -0.4353
  565TIP3    H123110   2.662   0.328   0.035  0.1652 -0.4504 -0.9485
  565TIP3    H223111   2.779   0.416   0.074 -0.1536 -1.1694  1.6684
  566TIP3   OH223112   3.096   2.997  14.496 -0.5858  0.1184  0.4257
  566TIP3    H123113   3.124   3.063  14.433  1.0816  0.1685  1.2036
  566TIP3    H223114   3.168   2.935  14.501 -0.8765 -0.1316  1.9384
  567TIP3   OH223115   3.577   3.678   1.775  0.9611  0.3722 -0.3652
  567TIP3    H123116   3.494   3.710   1.739  0.8624 -2.0783 -2.4699
  567TIP3    H223117   3.552   3.628   1.853  0.6006  0.8065 -0.2005
  568TIP3   OH223118   3.154   5.090   0.491 -0.3527 -0.2756 -0.1488
  568TIP3    H123119   3.091   5.038   0.540 -0.0429  0.1013  0.6549
  568TIP3    H223120   3.107   5.169   0.466 -0.0555  0.2643  0.9356
  569TIP3   OH223121   5.468   5.405  12.111 -0.9467 -0.5413 -0.2140
  569TIP3    H123122   5.388   5.436  12.156 -1.9541 -1.7684 -1.1337
  569TIP3    H223123   5.486   5.320  12.151 -0.1511 -0.3181 -0.0965
  570TIP3   OH223124   0.246   4.094  17.041 -0.2410  0.9846  0.4493
  570TIP3    H123125   0.296   4.175  17.035 -0.3519  1.2795  2.8682
  570TIP3    H223126   0.298   4.038  17.099 -0.4980 -0.4404 -0.6534
  571TIP3   OH223127   5.781   5.682   4.281  0.1784 -0.9855  0.0695
  571TIP3    H123128   5.808   5.684   4.189  0.6772  1.9053  0.2105
  571TIP3    H223129   5.864   5.682   4.329 -0.0805 -1.6808  0.5135
  572TIP3   OH223130   0.553   1.063   3.880  0.0185  0.4854  0.6838
  572TIP3    H123131   0.525   1.037   3.967 -2.2780  0.4053 -0.0371
  572TIP3    H223132   0.647   1.047   3.879 -0.4578 -2.8910  1.9847
  573TIP3   OH223133   3.183   2.207   2.703  0.1847  0.2409  0.3282
  573TIP3    H123134   3.224   2.293   2.693  1.8725 -0.6433 -0.6162
  573TIP3    H223135   3.257   2.147   2.714 -0.8933 -1.3128 -0.7616
  574TIP3   OH223136   0.509   2.415   2.852 -0.5294  0.6733 -0.7127
  574TIP3    H123137   0.581   2.355   2.838 -2.0577 -0.8693 -2.1382
  574TIP3    H223138   0.526   2.453   2.939  1.4571 -0.3589 -0.6250
  575TIP3   OH223139   0.629   2.573  14.233 -0.9194  0.2507 -0.0528
  575TIP3    H123140   0.551   2.526  14.265 -1.1646  0.1804 -0.7414
  575TIP3    H223141   0.684   2.504  14.196 -0.2996  0.2381  0.8874
  576TIP3   OH223142   0.668   0.736  10.802  0.0111 -0.4121 -0.4139
  576TIP3    H123143   0.714   0.817  10.780  0.9193 -0.8953 -0.3292
  576TIP3    H223144   0.576   0.755  10.783  0.0985  0.9191  0.4138
  577TIP3   OH223145   4.570   4.796  11.528 -0.5946  0.7206 -0.4125
  577TIP3    H123146   4.619   4.715  11.537 -0.4854  0.5759 -2.1513
  577TIP3    H223147   4.512   4.781  11.453 -1.3170  1.8718 -0.0991
  578TIP3   OH223148   1.777   4.984  15.392 -0.6951 -0.4009 -0.1576
  578TIP3    H123149   1.686   4.955  15.395 -0.8191 -0.1651 -1.5321
  578TIP3    H223150   1.824   4.913  15.348 -0.6891  0.6553 -1.8960
  579TIP3   OH223151   5.418   5.227   0.409  0.0948 -0.3685  0.5475
  579TIP3    H123152   5.344   5.270   0.365 -0.9742 -0.8862  1.7891
  579TIP3    H223153   5.486   5.294   0.411 -0.4285  0.2157 -0.3665
  580TIP3   OH223154   4.623   4.630   3.440  0.2515  0.4381  0.0386
  580TIP3    H123155   4.635   4.583   3.522 -0.4663  0.2687  0.0508
  580TIP3    H223156   4.560   4.699   3.461 -0.5301 -0.0868 -0.5468
  581TIP3   OH223157   2.348   3.652   4.773 -0.2115  0.0098 -0.0498
  581TIP3    H123158   2.406   3.658   4.849 -0.4195 -1.0174  0.2075
  581TIP3    H223159   2.375   3.570   4.730 -1.9332 -0.8519  0.4755
  582TIP3   OH223160   6.392   3.377   4.115  0.0367  0.3075  0.1913
  582TIP3    H123161   6.348   3.292   4.115  1.8749 -0.6860  1.1486
  582TIP3    H223162   6.408   3.395   4.208  2.0809  0.3759 -0.1400
  583TIP3   OH223163   3.342   1.206  14.789 -0.0813 -0.0857  0.4398
  583TIP3    H123164   3.278   1.158  14.842  0.1097 -1.2901 -0.4109
  583TIP3    H223165   3.339   1.163  14.703  0.2931  1.2470 -0.2561
  584TIP3   OH223166   1.779   1.877  16.752 -0.3675  0.7515  0.3637
  584TIP3    H123167   1.750   1.881  16.661  3.0461  0.9302 -0.7816
  584TIP3    H223168   1.719   1.935  16.798 -1.4468  1.5810 -1.9871
  585TIP3   OH223169   2.891   3.061  14.883 -0.0404 -0.3789 -0.0074
  585TIP3    H123170   2.929   3.003  14.816  0.6747 -2.0268  1.7993
  585TIP3    H223171   2.861   3.003  14.952  2.6005  1.4529  2.8322
  586TIP3   OH223172   0.283   2.364   5.473 -0.6777  0.2551  0.4184
  586TIP3    H123173   0.211   2.419   5.443  1.2139  2.7496  0.2689
  586TIP3    H223174   0.244   2.308   5.540 -2.9916  0.7164 -0.4962
  587TIP3   OH223175   1.821   5.481  13.779  0.0352  0.3675  0.8060
  587TIP3    H123176   1.839   5.436  13.696 -0.8571 -0.4549  1.0495
  587TIP3    H223177   1.776   5.416  13.833 -1.9962  1.7648  0.8731
  588TIP3   OH223178   5.872   4.539  16.753 -0.2696  0.0707 -0.5857
  588TIP3    H123179   5.924   4.594  16.813  0.9670  1.9052 -3.2501
  588TIP3    H223180   5.781   4.560  16.775  0.1174 -0.2273  1.4612
  589TIP3   OH223181   0.689   2.764   4.609  0.8951  0.4947 -0.5254
  589TIP3    H123182   0.664   2.854   4.588 -1.9625 -0.0154  0.4750
  589TIP3    H223183   0.691   2.761   4.704  0.4279 -0.6303 -0.5463
  590TIP3   OH223184   4.884   2.157   4.345  0.0958 -0.3332  0.3316
  590TIP3    H123185   4.842   2.143   4.260  0.6346 -1.8964  0.3099
  590TIP3    H223186   4.977   2.139   4.330  0.7397  2.5964  0.5052
  591TIP3   OH223187   4.774   5.163  13.736 -0.2934 -0.3567 -0.4591
  591TIP3    H123188   4.681   5.180  13.720 -0.2149  2.5291  1.7461
  591TIP3    H223189   4.775   5.103  13.810 -0.3792 -0.5629 -0.6235
  592TIP3   OH223190   2.084   2.801   2.991 -0.0340  0.0351 -0.2963
  592TIP3    H123191   1.998   2.773   2.961  0.2043 -0.0634 -0.8994
  592TIP3    H223192   2.140   2.724   2.978  0.8637  1.1003 -2.9436
  593TIP3   OH223193   4.215   4.954  13.403 -0.1057  0.2732 -0.6454
  593TIP3    H123194   4.188   5.042  13.377 -1.0273  0.3520  0.5422
  593TIP3    H223195   4.152   4.928  13.470 -0.0710 -1.4509 -1.2601
  594TIP3   OH223196   0.440   0.347  16.822  0.0028 -0.3685 -0.1061
  594TIP3    H123197   0.422   0.416  16.886 -1.4558 -0.1782 -0.6929
  594TIP3    H223198   0.394   0.270  16.856 -1.9719  0.0960 -1.5803
  595TIP3   OH223199   4.986   0.192   2.524  0.3479  0.1867 -0.3888
  595TIP3    H123200   5.013   0.234   2.442 -0.6156  1.7807  0.1012
  595TIP3    H223201   4.905   0.237   2.549  0.8277 -0.0382  1.6311
  596TIP3   OH223202   0.787   1.237  15.449 -0.1923 -0.2777 -0.3859
  596TIP3    H123203   0.878   1.217  15.425  0.2089 -0.1748  1.0051
  596TIP3    H223204   0.794   1.300  15.520 -1.3303 -0.8886  0.2894
  597TIP3   OH223205   0.581   2.125  13.122 -0.4222 -0.4157 -0.0899
  597TIP3    H123206   0.561   2.181  13.197 -0.5660 -0.0069 -0.4305
  597TIP3    H223207   0.674   2.138  13.107  0.1755 -2.4736  1.6284
  598TIP3   OH223208   0.203   1.771  15.365  0.0886 -0.0676 -0.3149
  598TIP3    H123209   0.246   1.709  15.424  0.6264 -1.2401 -1.9063
  598TIP3    H223210   0.140   1.818  15.421  1.4146 -0.3257  1.4180
  599TIP3   OH223211   5.008   4.705  16.994 -0.2632 -0.2784  0.3442
  599TIP3    H123212   4.956   4.683  17.071  0.3296 -1.1293  0.5035
  599TIP3    H223213   4.964   4.782  16.956 -1.5184 -0.8776  0.5816
  600TIP3   OH223214   5.190   0.993   3.912 -0.4584  0.3354  0.1450
  600TIP3    H123215   5.156   1.071   3.868 -0.6957 -0.1585 -0.5427
  600TIP3    H223216   5.112   0.940   3.930 -0.2384  0.0164  0.1584
  601TIP3   OH223217   6.394   1.162   2.196 -0.2240  0.0402  0.1921
  601TIP3    H123218   6.391   1.144   2.102 -1.4433 -0.0731  0.2481
  601TIP3    H223219   6.305   1.144   2.227  0.1172  0.2759  1.3300
  602TIP3   OH223220   0.171   2.839   3.289 -0.3627  0.1739 -0.5374
  602TIP3    H123221   0.085   2.819   3.251 -0.5150 -0.1633 -0.0370
  602TIP3    H223222   0.179   2.777   3.362 -0.4445  1.3574  0.4935
  603TIP3   OH223223   2.631   4.414  16.091  0.4923  0.1196  0.5217
  603TIP3    H123224   2.666   4.475  16.155 -0.3542 -0.1930  1.3025
  603TIP3    H223225   2.707   4.363  16.062  0.7838 -0.1716  1.7623
  604TIP3   OH223226   3.138   5.213   1.158 -0.7161  0.1443  0.7670
  604TIP3    H123227   3.062   5.242   1.109  0.6598  1.7922 -0.4318
  604TIP3    H223228   3.134   5.262   1.240 -0.7743  0.4739  0.5687
  605TIP3   OH223229   3.620   1.254  14.282  0.0759 -0.6898 -0.3235
  605TIP3    H123230   3.528   1.227  14.276 -0.2569  0.7445 -2.1793
  605TIP3    H223231   3.669   1.179  14.247 -0.6673  0.0177 -2.9930
  606TIP3   OH223232   2.081   1.822   4.470 -0.1781  0.0298 -0.1044
  606TIP3    H123233   2.064   1.767   4.394 -1.8902  0.4381 -0.0170
  606TIP3    H223234   2.011   1.801   4.532 -0.4124  1.7672  0.2282
  607TIP3   OH223235   1.257   4.543   4.279  0.4390 -0.0109 -0.4179
  607TIP3    H123236   1.191   4.513   4.217 -0.6356  2.9760 -0.7946
  607TIP3    H223237   1.246   4.484   4.355 -2.7689  0.4894 -0.4173
  608TIP3   OH223238   4.132   2.850  12.383  0.0340 -0.0505 -0.0722
  608TIP3    H123239   4.112   2.862  12.290  1.1979  1.5531 -0.1311
  608TIP3    H223240   4.047   2.829  12.423 -0.5905 -0.0701 -1.3867
  609TIP3   OH223241   1.513   6.645   4.677  0.2446  0.0138  0.0343
  609TIP3    H123242   1.482   6.630   4.767 -3.3900  0.9741 -0.9637
  609TIP3    H223243   1.489   6.736   4.659  0.7757 -0.2349 -1.9813
  610TIP3   OH223244   2.242   0.685  16.513 -0.1654  0.6180  0.1910
  610TIP3    H123245   2.235   0.704  16.607 -1.3980  2.7940 -0.3295
  610TIP3    H223246   2.165   0.633  16.493 -0.4930  1.1201  0.1488
  611TIP3   OH223247   1.045   1.845   3.577 -0.2032 -0.7849 -0.2008
  611TIP3    H123248   1.045   1.936   3.551 -0.7999 -0.4707  0.8420
  611TIP3    H223249   0.958   1.812   3.550 -0.6040 -0.6080  0.8465
  612TIP3   OH223250   1.703   0.308   0.653  0.1621 -0.1098  0.6764
  612TIP3    H123251   1.776   0.358   0.616  0.2200 -1.1553 -0.6375
  612TIP3    H223252   1.626   0.341   0.606 -0.2085  0.8737  1.9445
  613TIP3   OH223253   3.161   2.624   3.255 -0.0467 -0.2492 -0.6432
  613TIP3    H123254   3.080   2.579   3.229 -2.0188  1.8687  1.5664
  613TIP3    H223255   3.167   2.698   3.195  0.5850 -0.7389 -1.1868
  614TIP3   OH223256   2.646   5.488   0.236 -0.0954 -0.5428  0.1686
  614TIP3    H123257   2.622   5.396   0.245  0.8597 -0.9385 -1.1970
  614TIP3    H223258   2.662   5.518   0.325  2.2907 -2.4396  0.4109
  615TIP3   OH223259   3.299   4.738  10.760 -0.0612  0.0420  0.0820
  615TIP3    H123260   3.290   4.832  10.745  0.8186  0.1630  0.2592
  615TIP3    H223261   3.328   4.703  10.675  0.3011  0.0407  0.2021
  616TIP3   OH223262   1.629   6.254  15.037 -0.6272 -0.3389  0.0009
  616TIP3    H123263   1.558   6.316  15.051  0.5818  0.8658  0.8595
  616TIP3    H223264   1.614   6.221  14.948 -0.6799  1.9670 -0.8819
  617TIP3   OH223265   1.654   0.341   1.338 -0.0035  0.1860 -0.5965
  617TIP3    H123266   1.641   0.429   1.302  0.1882  1.1030  1.5124
  617TIP3    H223267   1.713   0.299   1.275  0.3299  1.7535 -1.3750
  618TIP3   OH223268   4.581   0.538  15.334  0.5069 -0.1758  0.5954
  618TIP3    H123269   4.603   0.546  15.427 -0.2716  0.9221  0.6925
  618TIP3    H223270   4.625   0.458  15.306 -1.3915 -1.9939  2.5607
  619TIP3   OH223271   3.102   2.201   0.484 -0.0348  0.1015  0.4900
  619TIP3    H123272   3.127   2.128   0.428 -0.6278 -0.0132  0.3723
  619TIP3    H223273   3.083   2.160   0.569  1.3480  0.3332  0.9212
  620TIP3   OH223274   6.699   1.777   3.865  0.0999 -0.6012  0.1436
  620TIP3    H123275   6.737   1.819   3.942  1.8059 -2.0935  0.1375
  620TIP3    H223276   6.751   1.698   3.852 -2.3318 -2.1693 -0.4878
  621TIP3   OH223277   5.411   1.676  11.815 -0.5486 -0.1131 -0.3882
  621TIP3    H123278   5.413   1.768  11.788 -0.5134 -0.3395 -1.1824
  621TIP3    H223279   5.409   1.679  11.910 -1.1116  0.7181 -0.4222
  622TIP3   OH223280   5.596   2.411   1.963  0.1736  0.6445 -0.2277
  622TIP3    H123281   5.633   2.425   2.050  0.9583 -0.4578 -0.3652
  622TIP3    H223282   5.658   2.351   1.921 -1.9694 -1.5140 -0.3507
  623TIP3   OH223283   3.386   5.649   3.613 -0.0414 -0.1106  1.0537
  623TIP3    H123284   3.392   5.725   3.670 -0.2185 -0.6317  1.7723
  623TIP3    H223285   3.341   5.583   3.666 -1.6089 -0.0949 -0.2100
  624TIP3   OH223286   1.731   6.613  16.752 -0.0746 -0.0879 -0.0751
  624TIP3    H123287   1.658   6.552  16.744  1.2741 -2.0632  1.9938
  624TIP3    H223288   1.809   6.559  16.746  1.2506  1.9329 -1.8328
  625TIP3   OH223289   5.496   2.688  13.123 -0.0326  0.6228 -0.6970
  625TIP3    H123290   5.536   2.626  13.184 -2.2412 -0.3190 -0.1266
  625TIP3    H223291   5.404   2.692  13.151 -0.5022  2.1385 -2.3773
  626TIP3   OH223292   3.698   1.013   0.209  0.3046  0.2682 -0.6152
  626TIP3    H123293   3.709   0.978   0.297  0.0006 -3.8477 -2.0902
  626TIP3    H223294   3.787   1.018   0.174  0.3326  0.7648 -0.4701
  627TIP3   OH223295   3.870   4.663   0.798  0.2143  0.3447 -0.5183
  627TIP3    H123296   3.814   4.734   0.767 -0.7252 -0.0215  0.3086
  627TIP3    H223297   3.824   4.628   0.874  0.1515 -1.8287 -1.5212
  628TIP3   OH223298   3.790   3.066  15.252 -0.2471 -0.5944 -0.2486
  628TIP3    H123299   3.735   3.098  15.180 -0.6149  2.1406  1.1928
  628TIP3    H223300   3.743   2.989  15.284 -0.5395 -1.3247 -2.3515
  629TIP3   OH223301   6.133   5.076  13.303  0.2847  0.5728 -0.3498
  629TIP3    H123302   6.193   5.140  13.340  0.3184  0.0118  0.5769
  629TIP3    H223303   6.183   5.033  13.234 -0.0738  2.2436 -1.6833
  630TIP3   OH223304   3.743   5.336  14.458  0.1829 -0.0940 -0.2393
  630TIP3    H123305   3.680   5.272  14.424  0.1526 -0.2420  0.0964
  630TIP3    H223306   3.749   5.402  14.389  1.8108 -1.5354 -1.4845
  631TIP3   OH223307   3.913   0.442  14.745  0.3544 -0.6006  0.6178
  631TIP3    H123308   3.961   0.471  14.823  0.7441  0.5930 -0.0469
  631TIP3    H223309   3.933   0.509  14.679 -2.1461 -0.1245  0.3068
  632TIP3   OH223310   5.061   1.764  12.897  0.2845 -0.3023  0.5202
  632TIP3    H123311   5.148   1.792  12.868 -0.2165 -1.5895 -2.3545
  632TIP3    H223312   5.003   1.836  12.870 -0.0674 -1.1457 -1.0168
  633TIP3   OH223313   3.997   2.745   2.371 -0.1703 -0.2808 -0.3629
  633TIP3    H123314   4.053   2.799   2.315 -1.1871  1.6179  0.3788
  633TIP3    H223315   3.929   2.712   2.312 -0.2869  0.3460 -0.5931
  634TIP3   OH223316   1.772   0.756  16.650  0.1629  0.0499 -0.2154
  634TIP3    H123317   1.844   0.715  16.602 -0.2115 -0.4625 -0.3425
  634TIP3    H223318   1.731   0.684  16.698  0.1804  0.4620  0.4269
  635TIP3   OH223319   2.746   2.815   3.821  0.4562 -0.0850 -0.0954
  635TIP3    H123320   2.694   2.844   3.746  1.0214  1.5295  0.1076
  635TIP3    H223321   2.792   2.737   3.790 -0.2070 -0.1004 -1.0507
  636TIP3   OH223322   3.312   0.065   1.485 -0.1404 -0.1943 -0.4931
  636TIP3    H123323   3.227   0.108   1.489  0.9102  1.7625  3.1368
  636TIP3    H223324   3.297  -0.023   1.519 -0.5415  0.5079  1.1820
  637TIP3   OH223325   0.134   4.390  16.173 -0.2106 -0.1609  0.1666
  637TIP3    H123326   0.159   4.482  16.163 -0.8910 -0.0132 -0.1432
  637TIP3    H223327   0.046   4.384  16.137 -0.3821 -0.8278  0.6761
  638TIP3   OH223328   4.376   4.065   1.927 -0.2724  0.4771  0.3700
  638TIP3    H123329   4.355   4.158   1.935  0.3065  0.6518 -0.1264
  638TIP3    H223330   4.418   4.043   2.010 -0.8433  0.5395  0.6800
  639TIP3   OH223331   0.384   0.289   4.501 -0.2530  0.4738  0.7418
  639TIP3    H123332   0.331   0.364   4.527 -0.1396  1.6134 -2.1322
  639TIP3    H223333   0.327   0.238   4.444  0.4685 -0.3678  0.7612
  640TIP3   OH223334   4.269   3.460  14.215  0.9435 -0.1614  0.2385
  640TIP3    H123335   4.218   3.393  14.261  0.6125 -0.3178 -0.3488
  640TIP3    H223336   4.248   3.446  14.122 -0.4999  1.8557  0.2273
  641TIP3   OH223337   1.530   1.007  10.848  0.0526  1.1937 -0.9112
  641TIP3    H123338   1.556   1.077  10.908  1.1521 -0.5408  0.7062
  641TIP3    H223339   1.434   1.003  10.855  0.2712  0.0138  1.9396
  642TIP3   OH223340   0.140   1.059  11.424 -0.1577  0.0227 -0.2830
  642TIP3    H123341   0.193   1.039  11.347  0.1077  1.3990 -0.4782
  642TIP3    H223342   0.182   1.012  11.495  0.7964  0.3758 -0.6062
  643TIP3   OH223343   6.233   3.422   0.040 -0.0146  0.9442  0.0058
  643TIP3    H123344   6.308   3.471   0.073  0.1644  0.8142 -0.2008
  643TIP3    H223345   6.270   3.369  -0.032 -0.0925  0.1063  0.5751
  644TIP3   OH223346   0.549   3.199  13.201  0.1360 -0.1539  0.1208
  644TIP3    H123347   0.590   3.139  13.138  0.5151  1.0958 -0.8363
  644TIP3    H223348   0.551   3.151  13.284 -0.6030 -1.9212 -0.8587
  645TIP3   OH223349   2.619   1.997  12.453 -0.1329 -0.1612  0.3097
  645TIP3    H123350   2.601   1.912  12.495 -0.6501  0.0197  0.4581
  645TIP3    H223351   2.714   2.004  12.453 -0.1332 -0.0931  1.6026
  646TIP3   OH223352   1.368   5.460   0.260  0.3582  0.2059  0.1211
  646TIP3    H123353   1.431   5.464   0.331  0.4122  1.1954  0.0268
  646TIP3    H223354   1.421   5.473   0.181  0.1250  0.4459  0.0027
  647TIP3   OH223355   2.971   6.397   1.745 -0.4311  0.1955 -0.2273
  647TIP3    H123356   3.047   6.339   1.750 -1.7521 -1.5339  0.4134
  647TIP3    H223357   2.939   6.387   1.655 -0.5730  0.0475 -0.1602
  648TIP3   OH223358   3.505   4.038   5.593 -0.4610  0.4364 -0.1158
  648TIP3    H123359   3.554   3.988   5.658  0.2127  0.1807 -0.8131
  648TIP3    H223360   3.570   4.064   5.528 -1.4058 -0.8143 -1.6139
  649TIP3   OH223361   2.948   5.995  16.497  0.4189 -0.5272 -0.2884
  649TIP3    H123362   3.031   5.949  16.513 -0.6498 -1.9999  1.2569
  649TIP3    H223363   2.960   6.080  16.539  0.9247 -0.9818  0.5059
  650TIP3   OH223364   1.014   2.711  13.100 -0.1522 -0.5882  0.1634
  650TIP3    H123365   1.096   2.718  13.149 -1.7602  2.7252  2.6109
  650TIP3    H223366   0.955   2.661  13.158 -0.8633 -0.0526 -0.0860
  651TIP3   OH223367   0.384   2.922  11.017  0.4341 -0.6340  0.7788
  651TIP3    H123368   0.388   2.842  10.965  0.9333 -0.0180 -0.1291
  651TIP3    H223369   0.374   2.993  10.954  0.0734  0.0372  1.5707
  652TIP3   OH223370   2.969   4.505   0.927  0.3899  0.0765  0.2492
  652TIP3    H123371   2.968   4.443   0.855  2.0496  0.2138  0.0817
  652TIP3    H223372   2.978   4.451   1.005  0.3959  0.0296  0.2155
  653TIP3   OH223373   6.306   3.082   1.349  0.3141 -0.2529  0.0922
  653TIP3    H123374   6.240   3.056   1.285 -0.9938 -0.7154  1.5903
  653TIP3    H223375   6.256   3.123   1.419  1.6786 -0.1463  1.0237
  654TIP3   OH223376   5.084   1.692   2.423 -0.3286  0.3224  0.3247
  654TIP3    H123377   5.143   1.679   2.497  0.5094  0.7909 -0.2558
  654TIP3    H223378   5.106   1.621   2.363 -1.1214 -0.1548  0.5909
  655TIP3   OH223379   6.652   3.947  14.811 -0.1593  0.0328  0.1180
  655TIP3    H123380   6.709   4.005  14.761 -0.3309  0.4701  0.4241
  655TIP3    H223381   6.694   3.862  14.807  0.4907  0.3465  0.3104
  656TIP3   OH223382   3.559   0.473   4.333 -0.5802 -0.5853  0.0881
  656TIP3    H123383   3.633   0.465   4.393 -0.3747 -2.8430 -0.4297
  656TIP3    H223384   3.482   0.467   4.389 -0.3910  0.2554  0.4500
  657TIP3   OH223385   6.443   4.291  16.581  0.4147  0.1470  0.1334
  657TIP3    H123386   6.402   4.324  16.501  1.6168  1.0821 -0.1090
  657TIP3    H223387   6.509   4.229  16.550  0.4223  0.0022  0.4358
  658TIP3   OH223388   4.804   5.264   2.935  0.1262 -0.4492 -0.4229
  658TIP3    H123389   4.742   5.301   2.872 -0.8993 -1.1025  0.1905
  658TIP3    H223390   4.855   5.201   2.885 -1.3432 -1.6890 -0.3993
  659TIP3   OH223391   6.540   6.005  14.255  0.0511 -0.0460 -0.1137
  659TIP3    H123392   6.466   6.016  14.195  2.8454  1.8615 -3.3968
  659TIP3    H223393   6.569   6.094  14.274  1.2665 -0.7532  1.4543
  660TIP3   OH223394   2.203   1.719   5.438  0.3212  0.1925  0.3914
  660TIP3    H123395   2.214   1.801   5.388  2.7195 -0.0745  0.4251
  660TIP3    H223396   2.230   1.742   5.527 -2.5161  0.2770  1.2714
  661TIP3   OH223397   1.029   5.767   5.878  0.0514 -0.1078 -0.0518
  661TIP3    H123398   1.039   5.857   5.910 -1.1753 -0.2809  0.8455
  661TIP3    H223399   1.057   5.713   5.951 -0.2996 -0.4744 -0.1897
  662TIP3   OH223400   2.150   2.279   5.245  0.0813 -0.4545 -0.4837
  662TIP3    H123401   2.111   2.195   5.269  1.7706 -0.7467  1.3218
  662TIP3    H223402   2.135   2.335   5.321 -1.7189  1.1558 -1.9761
  663TIP3   OH223403   0.613   3.496  16.967 -0.3134  0.4490  0.1094
  663TIP3    H123404   0.542   3.438  16.995 -1.3102  1.4183 -0.3401
  663TIP3    H223405   0.631   3.470  16.877 -0.0002  0.1019  0.2753
  664TIP3   OH223406   5.897   1.574   6.513 -0.0613 -0.4667 -0.0786
  664TIP3    H123407   5.989   1.575   6.485 -0.4359  0.4489 -1.3616
  664TIP3    H223408   5.884   1.487   6.550  1.6118 -0.2307  1.1103
  665TIP3   OH223409   0.545   1.682  14.783  0.6298  0.6843 -0.1310
  665TIP3    H123410   0.485   1.711  14.715  1.3999  0.6501 -0.8375
  665TIP3    H223411   0.567   1.762  14.831  0.8312  0.8688 -0.5247
  666TIP3   OH223412   4.073   6.547   2.311  0.2440 -0.7171  0.3798
  666TIP3    H123413   3.998   6.535   2.370  1.4546 -0.7320  1.9639
  666TIP3    H223414   4.090   6.459   2.277  0.1429 -0.8931  0.7758
  667TIP3   OH223415   4.629   0.291   6.221  0.1883  0.4572 -0.1070
  667TIP3    H123416   4.704   0.325   6.271 -0.8681  0.5369  1.4745
  667TIP3    H223417   4.648   0.198   6.210 -0.8211 -0.1684  2.8832
  668TIP3   OH223418   3.564   4.713   4.469  0.0514 -0.2953 -0.0279
  668TIP3    H123419   3.473   4.742   4.479  0.5279  0.5964  1.8706
  668TIP3    H223420   3.614   4.794   4.462  1.0278 -0.7177  1.9455
  669TIP3   OH223421   3.835   1.717   3.537  0.0669  0.4444  0.3073
  669TIP3    H123422   3.884   1.748   3.613  0.1621 -0.3325  0.5719
  669TIP3    H223423   3.744   1.714   3.567  0.0418  0.5841  0.2448
  670TIP3   OH223424   1.979   4.464  12.363  0.3469  1.1477  0.4890
  670TIP3    H123425   2.015   4.445  12.449  0.5186  0.1491  0.2140
  670TIP3    H223426   2.045   4.518  12.320  0.7710  0.7009  0.5793
  671TIP3   OH223427   6.247   6.191   2.512 -0.1614  0.0777 -0.0984
  671TIP3    H123428   6.256   6.251   2.438 -1.0734 -1.3305 -1.3997
  671TIP3    H223429   6.306   6.118   2.490 -0.0205 -0.0871  0.8319
  672TIP3   OH223430   0.393   6.495   2.734 -0.0534  0.4255 -0.2649
  672TIP3    H123431   0.338   6.418   2.751 -0.2918  0.8705  1.0932
  672TIP3    H223432   0.459   6.465   2.672  0.3912 -1.1133  0.9333
  673TIP3   OH223433   6.065   0.591  11.981  0.6330 -0.6490  0.5159
  673TIP3    H123434   5.991   0.540  11.949  0.4133 -1.3995  2.1332
  673TIP3    H223435   6.140   0.532  11.974  1.0683  0.0583 -0.9822
  674TIP3   OH223436   1.565   2.556   1.758 -0.2374 -0.4807 -0.7226
  674TIP3    H123437   1.482   2.557   1.806 -0.1879 -0.7659 -0.6337
  674TIP3    H223438   1.610   2.477   1.788  0.4418  0.1245 -0.1279
  675TIP3   OH223439   3.116   2.472   2.491  0.2480  0.1934  0.0352
  675TIP3    H123440   3.049   2.416   2.530 -0.1675 -0.1301 -1.1243
  675TIP3    H223441   3.183   2.480   2.559  0.2094 -1.5334  0.2993
  676TIP3   OH223442   5.655   4.132  15.142  0.1637  0.1552  0.1401
  676TIP3    H123443   5.675   4.222  15.169 -1.3562  0.8861 -1.1002
  676TIP3    H223444   5.563   4.135  15.116 -0.1784 -1.9970  1.0009
  677TIP3   OH223445   3.880   5.340  13.642  0.3116  0.1474  0.3152
  677TIP3    H123446   3.972   5.326  13.619  0.4115  0.3752  0.5745
  677TIP3    H223447   3.882   5.411  13.707 -0.0162 -0.1083  0.6017
  678TIP3   OH223448   6.307   1.986   5.018 -0.2845  0.2208 -0.3705
  678TIP3    H123449   6.256   2.042   4.959 -2.1409 -0.0183  0.9575
  678TIP3    H223450   6.394   1.984   4.979 -0.6680  2.5180 -1.4768
  679TIP3   OH223451   5.440   3.485  11.722  0.0162 -0.2067 -0.1625
  679TIP3    H123452   5.517   3.534  11.751  0.4980 -1.1234  0.1150
  679TIP3    H223453   5.462   3.456  11.633  1.4077 -3.3568  1.1277
  680TIP3   OH223454   4.399   4.593  15.908 -0.0266  0.7524  0.0857
  680TIP3    H123455   4.484   4.583  15.950  0.1682  1.2843 -0.1771
  680TIP3    H223456   4.350   4.514  15.933  0.8981 -0.0609 -0.5984
  681TIP3   OH223457   0.874   0.918   4.118  0.0415  0.3696  0.2095
  681TIP3    H123458   0.858   0.998   4.168  0.8311  0.1779  0.7806
  681TIP3    H223459   0.806   0.858   4.148  1.2646 -0.1556  1.9944
  682TIP3   OH223460   5.385   4.104   0.765  0.3699 -0.3248  0.0664
  682TIP3    H123461   5.382   4.148   0.850  1.1740 -0.2695  0.0654
  682TIP3    H223462   5.379   4.175   0.701  0.6938 -0.2905  0.0722
  683TIP3   OH223463   1.912   1.886  14.719  0.8283  0.3468  0.4634
  683TIP3    H123464   1.827   1.880  14.763  0.1068 -3.3683 -1.2800
  683TIP3    H223465   1.891   1.915  14.630  1.4589  0.1478  0.2450
  684TIP3   OH223466   2.078   6.016  12.997  0.4786  0.4375  0.5226
  684TIP3    H123467   2.093   6.109  13.013  0.7859  0.8355 -1.7997
  684TIP3    H223468   2.076   6.008  12.901 -0.0641 -1.8628  0.6813
  685TIP3   OH223469   0.437   0.402   4.224 -0.0415 -0.6916 -0.4194
  685TIP3    H123470   0.355   0.368   4.189 -1.1386  0.5335  0.9140
  685TIP3    H223471   0.458   0.345   4.298 -0.9807  0.4406  0.7447
  686TIP3   OH223472   0.315   4.411  11.061 -0.5121 -0.4916 -0.1774
  686TIP3    H123473   0.325   4.433  11.153 -0.8602 -0.5229 -0.1304
  686TIP3    H223474   0.341   4.319  11.056  0.7543 -0.1324 -0.3447
  687TIP3   OH223475   3.593   5.459   1.135  0.0929 -0.2315 -0.1346
  687TIP3    H123476   3.499   5.444   1.139  0.2200 -1.5150 -1.1288
  687TIP3    H223477   3.603   5.545   1.094 -0.6533  0.2524  0.7057
  688TIP3   OH223478   4.765   3.666   3.068  0.0103 -0.3958  0.0769
  688TIP3    H123479   4.700   3.620   3.015 -1.0697 -0.9442  1.8436
  688TIP3    H223480   4.718   3.692   3.147  1.4525  0.8984  0.5326
  689TIP3   OH223481   0.829   4.683  12.491  0.3511 -0.2379 -0.4463
  689TIP3    H123482   0.794   4.729  12.415 -1.0393  0.5552  0.6363
  689TIP3    H223483   0.751   4.650  12.536  1.2241 -1.7428 -0.0206
  690TIP3   OH223484   6.434   1.525  16.548  0.3152 -0.4614  0.1417
  690TIP3    H123485   6.452   1.601  16.494 -0.5240 -0.1724  0.2592
  690TIP3    H223486   6.516   1.475  16.548  0.8984  0.4935  0.1641
  691TIP3   OH223487   3.447   1.910   3.348 -0.0939 -0.1029 -0.4409
  691TIP3    H123488   3.506   1.986   3.353 -0.9813  0.6623 -1.5306
  691TIP3    H223489   3.502   1.836   3.376  0.5379  1.0494  1.4724
  692TIP3   OH223490   0.453   5.406   0.706 -0.0285  0.1447 -0.0665
  692TIP3    H123491   0.364   5.428   0.678  0.0138  0.2319 -0.1346
  692TIP3    H223492   0.442   5.362   0.789 -0.0012  2.1733  1.0523
  693TIP3   OH223493   1.259   1.700  11.845 -0.2269  0.3710  0.2143
  693TIP3    H123494   1.193   1.645  11.887 -1.5995  0.6417 -1.5051
  693TIP3    H223495   1.261   1.780  11.899 -2.3738  0.9530 -0.5109
  694TIP3   OH223496   4.034   0.816   3.068 -0.2679 -0.3456 -0.1398
  694TIP3    H123497   4.091   0.834   3.143  0.9557  0.9649 -1.3564
  694TIP3    H223498   4.065   0.732   3.034  0.0391 -0.2996  0.0265
  695TIP3   OH223499   5.038   1.836   5.116 -0.2383  0.0945  0.4044
  695TIP3    H123500   4.953   1.849   5.159 -1.8207  1.9033 -3.0682
  695TIP3    H223501   5.022   1.767   5.051  0.5345  1.4681 -1.2763
  696TIP3   OH223502   5.777   3.096   5.915  0.2394  0.3284  0.1220
  696TIP3    H123503   5.696   3.102   5.966  0.0097 -2.0030  0.1172
  696TIP3    H223504   5.751   3.118   5.826 -0.4989 -0.7456  0.0534
  697TIP3   OH223505   2.361   1.246   1.980 -0.3744 -0.5043 -0.2641
  697TIP3    H123506   2.380   1.316   2.042 -0.2956  0.6403 -1.5295
  697TIP3    H223507   2.301   1.188   2.026 -1.2274  0.9407  0.5021
  698TIP3   OH223508   2.797   6.611  13.090  0.2245  0.4601  0.3627
  698TIP3    H123509   2.709   6.614  13.128  0.9063  0.8059  1.9528
  698TIP3    H223510   2.796   6.680  13.023 -1.4008 -1.0446 -1.2046
  699TIP3   OH223511   3.315   5.234   3.199  0.2901 -0.2329  0.3362
  699TIP3    H123512   3.342   5.167   3.262 -0.0446 -0.1958  0.5217
  699TIP3    H223513   3.341   5.198   3.114 -0.9172 -1.1177  0.3306
  700TIP3   OH223514   1.322   3.255  15.309 -0.7807  0.2330  0.5429
  700TIP3    H123515   1.285   3.218  15.389  1.3711 -2.4907  0.3503
  700TIP3    H223516   1.410   3.284  15.335 -0.9709  1.6127 -0.2867
  701TIP3   OH223517   0.399   6.463   0.269  0.5363  0.5255 -0.4756
  701TIP3    H123518   0.481   6.499   0.235  1.6885 -2.2745 -0.7823
  701TIP3    H223519   0.361   6.416   0.195  0.1246 -0.6323  0.4520
  702TIP3   OH223520   4.155   1.441   1.795 -0.0284 -0.5805 -0.5428
  702TIP3    H123521   4.071   1.408   1.828 -1.3398  1.3360 -1.8706
  702TIP3    H223522   4.178   1.512   1.856  0.1808 -0.5036 -0.7124
  703TIP3   OH223523   2.675   5.874  15.149  0.4149 -0.1950  0.0119
  703TIP3    H123524   2.728   5.811  15.196  0.0114 -1.1806 -0.8388
  703TIP3    H223525   2.705   5.959  15.180  1.5161 -0.7873  0.5661
  704TIP3   OH223526   5.033   2.778   0.091  0.1672 -0.2428  0.5611
  704TIP3    H123527   5.036   2.854   0.148 -1.3322 -0.1967  0.6025
  704TIP3    H223528   4.943   2.746   0.099  0.7977 -2.0618  0.6183
  705TIP3   OH223529   5.412   4.993  16.295  0.0503  0.2028 -0.5583
  705TIP3    H123530   5.436   5.070  16.346  0.1586 -0.5155  0.5003
  705TIP3    H223531   5.336   4.956  16.341 -2.1679  1.5689 -2.9843
  706TIP3   OH223532   6.616   3.532   0.655  0.4275 -0.3458  0.1306
  706TIP3    H123533   6.567   3.460   0.615  2.6322 -2.3047  0.8610
  706TIP3    H223534   6.682   3.554   0.590  1.3521 -0.6906  0.9561
  707TIP3   OH223535   5.226   3.328   1.518 -0.8708 -0.2386  0.4488
  707TIP3    H123536   5.139   3.287   1.516 -0.9423 -0.0822  0.3715
  707TIP3    H223537   5.283   3.264   1.476 -1.4740  0.8959 -2.1977
  708TIP3   OH223538   2.512   5.173  15.017  0.2726  0.1579  0.2781
  708TIP3    H123539   2.578   5.172  15.086  0.3049  1.5617  0.2833
  708TIP3    H223540   2.447   5.236  15.047 -0.5353 -0.4420 -0.2160
  709TIP3   OH223541   3.104   3.375  17.223 -0.5024 -0.0117  0.6435
  709TIP3    H123542   3.151   3.458  17.233 -0.7071  0.2418 -0.4156
  709TIP3    H223543   3.114   3.353  17.131 -0.0465 -1.4274  1.0223
  710TIP3   OH223544   6.219   3.121   4.143 -0.0221  0.0972  0.4248
  710TIP3    H123545   6.125   3.125   4.162 -0.1692 -2.2482  0.2493
  710TIP3    H223546   6.253   3.055   4.203  1.1189 -0.7109 -1.0848
  711TIP3   OH223547   2.915   4.869   1.676 -0.1059 -0.1795 -0.1425
  711TIP3    H123548   2.889   4.915   1.756  0.4178 -0.6270  0.2877
  711TIP3    H223549   2.976   4.801   1.706  0.1775 -0.2776 -0.9337
  712TIP3   OH223550   6.721   6.516   5.355  0.0364  0.1036 -0.3141
  712TIP3    H123551   6.665   6.442   5.379 -0.4089  1.1702  2.0848
  712TIP3    H223552   6.660   6.588   5.339  0.6258  0.9809  1.2519
  713TIP3   OH223553   2.320   4.812  12.897  0.1572 -0.1413 -0.1330
  713TIP3    H123554   2.263   4.886  12.873 -0.1342 -0.4516 -0.4027
  713TIP3    H223555   2.260   4.739  12.909  0.5222 -0.5183 -0.6068
  714TIP3   OH223556   2.355   6.059  15.773  0.1390 -0.0251 -0.4338
  714TIP3    H123557   2.274   6.019  15.742 -0.2427  1.6313 -1.6429
  714TIP3    H223558   2.424   5.996  15.752 -0.6305 -0.6970 -0.9360
  715TIP3   OH223559   4.816   0.926   2.824  0.2323  0.1641  0.3621
  715TIP3    H123560   4.844   0.852   2.769  0.4219  0.2138  0.3899
  715TIP3    H223561   4.738   0.894   2.870 -0.8883  0.6689 -1.1515
  716TIP3   OH223562   0.888   1.762   1.968 -0.0297 -0.4514  0.5045
  716TIP3    H123563   0.802   1.731   1.998  0.3704 -0.7750  1.3249
  716TIP3    H223564   0.909   1.706   1.894 -0.6118 -0.2406  0.1695
  717TIP3   OH223565   4.505   5.120  17.129  0.4630 -0.3869  0.4909
  717TIP3    H123566   4.584   5.067  17.138  1.4939  1.0161 -0.0335
  717TIP3    H223567   4.508   5.180  17.203 -1.1130 -1.5474  1.5282
  718TIP3   OH223568   6.674   2.777   4.084  0.1618  0.4736 -0.5796
  718TIP3    H123569   6.616   2.751   4.155  0.7180  0.1529 -0.2434
  718TIP3    H223570   6.633   2.855   4.047  0.0600  0.8558  0.3327
  719TIP3   OH223571   2.385   4.333   5.091  0.7113 -0.7299 -0.6558
  719TIP3    H123572   2.330   4.341   5.013 -0.6548 -1.3542  0.2201
  719TIP3    H223573   2.454   4.272   5.065  0.3032 -0.8810 -1.4123
  720TIP3   OH223574   2.028   5.898  16.190 -0.1456  0.7958 -0.1075
  720TIP3    H123575   2.108   5.878  16.141 -0.4352  0.6129 -0.5160
  720TIP3    H223576   1.963   5.838  16.153 -1.4190  3.4585 -2.4002
  721TIP3   OH223577   2.995   5.575  13.908  0.1834  0.3448  0.1990
  721TIP3    H123578   3.059   5.647  13.907 -2.9134  3.2510  1.3166
  721TIP3    H223579   2.966   5.568  13.817 -0.1535  1.1367  0.2418
  722TIP3   OH223580   4.443   6.233   0.480  0.5235  0.4376 -0.5461
  722TIP3    H123581   4.497   6.187   0.545 -1.5597 -1.4750 -0.0956
  722TIP3    H223582   4.478   6.204   0.396  1.2563  0.4820 -0.2600
  723TIP3   OH223583   2.848   5.229   1.485  0.4097  0.3693  0.4870
  723TIP3    H123584   2.916   5.279   1.440 -0.6264  1.5194  0.1719
  723TIP3    H223585   2.896   5.171   1.544  1.7231  0.1111 -0.7941
  724TIP3   OH223586   4.365   2.960   3.052 -0.0869  0.0215 -0.1730
  724TIP3    H123587   4.406   2.950   3.138  0.6656 -0.1883 -0.5478
  724TIP3    H223588   4.301   2.889   3.048 -0.0623 -0.0224  0.1781
  725TIP3   OH223589   6.027   3.259   2.813  0.3331 -0.1361  0.6455
  725TIP3    H123590   6.000   3.265   2.904 -0.7449  1.4170  0.2379
  725TIP3    H223591   6.122   3.256   2.816  0.2911 -0.6962  1.8359
  726TIP3   OH223592   2.125   6.318  11.532  0.6544 -0.3476 -0.5101
  726TIP3    H123593   2.210   6.288  11.563  0.3520 -1.6842 -0.9338
  726TIP3    H223594   2.071   6.239  11.528 -0.1597  0.2374 -1.6554
  727TIP3   OH223595   4.175   6.572  14.781 -0.2978  0.0452 -0.4716
  727TIP3    H123596   4.180   6.642  14.846  0.9457  1.1203 -1.6889
  727TIP3    H223597   4.215   6.609  14.702  1.7721 -2.5128 -0.7336
  728TIP3   OH223598   1.877   0.194   3.893 -0.1468 -0.5303 -0.2220
  728TIP3    H123599   1.839   0.107   3.883  0.6096 -0.8493 -0.3240
  728TIP3    H223600   1.855   0.220   3.982  1.3876 -1.6837  0.5091
  729TIP3   OH223601   5.909   2.684  15.972 -0.0509 -0.3557  0.5021
  729TIP3    H123602   5.839   2.693  15.907 -0.2172 -1.9563  0.4422
  729TIP3    H223603   5.986   2.659  15.921  0.8147  2.2444  0.4563
  730TIP3   OH223604   3.851   0.735   4.217 -0.4754 -0.3204  0.3204
  730TIP3    H123605   3.870   0.643   4.201 -1.1479 -0.3746 -0.2171
  730TIP3    H223606   3.888   0.781   4.142 -0.7957 -0.2313  0.2162
  731TIP3   OH223607   0.100   6.320   2.251  0.0444  0.1073 -0.0637
  731TIP3    H123608   0.144   6.328   2.167  2.0195 -1.1127  0.8196
  731TIP3    H223609   0.021   6.270   2.231  0.5457 -0.2620 -1.1870
  732TIP3   OH223610   3.712   2.860   5.634 -0.5849 -0.1164 -0.2007
  732TIP3    H123611   3.718   2.921   5.708 -1.7934 -0.4087  0.1530
  732TIP3    H223612   3.621   2.832   5.634 -0.1149 -1.6969 -0.5546
  733TIP3   OH223613   1.796   2.021  15.578  0.1983  0.5923 -0.0652
  733TIP3    H123614   1.717   2.069  15.554  0.0637 -0.1904 -1.1907
  733TIP3    H223615   1.864   2.089  15.584 -0.7854  1.4411  2.1053
  734TIP3   OH223616   4.041   1.856   1.284 -0.7475 -0.1318 -0.3004
  734TIP3    H123617   4.093   1.776   1.289 -0.6885 -0.0533  0.3447
  734TIP3    H223618   4.021   1.878   1.375 -1.3346  0.2135 -0.5076
  735TIP3   OH223619   2.210   2.127  15.787  0.2698 -0.4998  0.0018
  735TIP3    H123620   2.191   2.220  15.802 -1.2058 -0.6981 -0.5714
  735TIP3    H223621   2.187   2.085  15.870 -1.8058 -0.7308 -0.6707
  736TIP3   OH223622   0.362   5.885  16.111 -0.0603 -0.0475 -0.6206
  736TIP3    H123623   0.325   5.884  16.023  1.3079  0.5366 -1.2126
  736TIP3    H223624   0.363   5.793  16.138  0.4976 -0.3446 -1.6436
  737TIP3   OH223625   3.766   6.289   0.479  0.5908  0.1586  0.4964
  737TIP3    H123626   3.854   6.262   0.452  0.3686  1.2535 -1.4090
  737TIP3    H223627   3.764   6.273   0.573  2.4723 -0.8482  0.3912
  738TIP3   OH223628   4.260   2.782   5.154  0.6521 -0.2092 -0.4314
  738TIP3    H123629   4.182   2.832   5.175  0.6025 -0.1742 -0.7016
  738TIP3    H223630   4.265   2.715   5.222  1.2309  0.7358  0.4607
  739TIP3   OH223631   4.226   1.049   3.955 -0.6193 -0.2532  0.3884
  739TIP3    H123632   4.223   0.992   4.032  1.1184  0.4774  1.0226
  739TIP3    H223633   4.251   1.135   3.989 -1.6790  0.5271 -0.7594
  740TIP3   OH223634   0.417   2.776   3.112 -0.2118 -0.2903 -0.1775
  740TIP3    H123635   0.502   2.762   3.153 -1.3966 -0.5482  2.2960
  740TIP3    H223636   0.360   2.711   3.152 -2.0242  1.1307 -0.3915
  741TIP3   OH223637   2.190   2.045   0.143 -0.8903 -0.5856 -0.4269
  741TIP3    H123638   2.215   1.954   0.160 -0.4615 -0.1531  1.3904
  741TIP3    H223639   2.106   2.056   0.189  0.3248  0.6479  1.5529
  742TIP3   OH223640   1.575   0.030  15.552 -0.0689  0.5068  0.5007
  742TIP3    H123641   1.653   0.011  15.500 -0.4506 -0.2533  0.1968
  742TIP3    H223642   1.530  -0.054  15.559 -0.9606  0.9817  0.5148
  743TIP3   OH223643   4.608   4.991   2.515 -0.4005 -0.3952  0.5314
  743TIP3    H123644   4.678   5.006   2.579  0.6157  0.5380 -0.7731
  743TIP3    H223645   4.649   4.937   2.447 -1.9679 -2.8777  1.4963
  744TIP3   OH223646   0.228   1.142  15.138 -0.2915 -0.2187  0.3594
  744TIP3    H123647   0.202   1.183  15.055  0.7449 -1.1370 -0.4473
  744TIP3    H223648   0.320   1.118  15.124  0.4311  1.2506  2.4478
  745TIP3   OH223649   1.787   6.637   3.336 -0.1174 -0.2366  0.1311
  745TIP3    H123650   1.728   6.567   3.309  0.1352 -1.0027  1.5219
  745TIP3    H223651   1.808   6.617   3.427  0.1513  1.5166  0.4761
  746TIP3   OH223652   3.066   0.457   2.855  0.2941  0.0725 -0.0630
  746TIP3    H123653   2.977   0.493   2.853 -0.3178 -1.4401 -0.4094
  746TIP3    H223654   3.075   0.421   2.943  0.4793  0.0068 -0.1093
  747TIP3   OH223655   2.584   1.011  16.449 -1.3033  0.5153  0.2051
  747TIP3    H123656   2.614   0.955  16.520 -0.4709 -2.2071 -2.1841
  747TIP3    H223657   2.535   0.953  16.391  0.5208  1.9467 -2.9182
  748TIP3   OH223658   1.739   2.402  15.691  0.5406  0.7026 -0.3797
  748TIP3    H123659   1.671   2.404  15.623  2.0823 -0.1470 -2.0086
  748TIP3    H223660   1.791   2.481  15.674 -0.8571  2.1496  1.7921
  749TIP3   OH223661   1.336   3.076  16.610  0.3510  0.2385 -0.0469
  749TIP3    H123662   1.272   3.069  16.539 -1.1890  1.5040  1.1627
  749TIP3    H223663   1.354   2.985  16.635 -1.9804 -0.1475  0.4167
  750TIP3   OH223664   1.230   3.582  11.494 -0.5016 -0.2006  0.4613
  750TIP3    H123665   1.143   3.549  11.514 -0.7699 -0.1120 -0.5286
  750TIP3    H223666   1.218   3.676  11.482 -0.7190 -0.5135 -2.0455
  751TIP3   OH223667   1.888   2.411   2.406  0.3458 -0.0822 -0.2553
  751TIP3    H123668   1.883   2.373   2.493 -0.3312 -0.6200 -0.5254
  751TIP3    H223669   1.812   2.376   2.359  0.1531  0.9703 -0.7629
  752TIP3   OH223670   1.868   5.174  14.667  0.4010 -0.3318  0.1273
  752TIP3    H123671   1.940   5.130  14.621  0.6459  0.0462  0.1446
  752TIP3    H223672   1.905   5.258  14.694  0.3583 -0.6618  1.2538
  753TIP3   OH223673   2.797   2.519  15.001 -0.0404  0.1140 -0.3967
  753TIP3    H123674   2.766   2.594  15.051  1.0536  2.1671 -2.6433
  753TIP3    H223675   2.721   2.462  14.991 -1.1973  1.5053  0.3784
  754TIP3   OH223676   0.054   5.043  12.400 -0.1951  0.0711  0.4066
  754TIP3    H123677   0.100   5.011  12.322 -1.6951  0.0476 -0.4747
  754TIP3    H223678  -0.010   4.975  12.420 -2.1026  1.5936 -0.3584
  755TIP3   OH223679   4.743   4.919   0.690 -1.1003  0.2519  0.4773
  755TIP3    H123680   4.703   4.850   0.637 -0.2172 -0.4292  0.6786
  755TIP3    H223681   4.805   4.873   0.747  0.4181  1.3374 -0.2511
  756TIP3   OH223682   5.208   4.706  14.694 -0.3025  0.2474  0.4515
  756TIP3    H123683   5.181   4.755  14.772  1.2135  1.6209  0.1407
  756TIP3    H223684   5.153   4.741  14.624 -0.2597  0.4535  0.5198
  757TIP3   OH223685   0.573   3.598  15.876  0.2824 -0.2942 -0.7022
  757TIP3    H123686   0.608   3.549  15.949 -2.3800  0.5007  1.1817
  757TIP3    H223687   0.649   3.641  15.837  1.7579 -0.8274  1.5256
  758TIP3   OH223688   1.599   4.725  12.596 -0.3785 -0.0395 -0.5545
  758TIP3    H123689   1.529   4.745  12.534  0.0239  3.2872 -0.0435
  758TIP3    H223690   1.678   4.721  12.542 -0.1085  2.3169 -0.3904
  759TIP3   OH223691   6.532   6.478  11.725  0.1297  0.2762 -1.2500
  759TIP3    H123692   6.507   6.511  11.638 -0.7721 -0.6197 -1.3354
  759TIP3    H223693   6.453   6.487  11.778  0.9639  1.7632 -0.2229
  760TIP3   OH223694   6.140   1.926   0.670  0.1092 -0.0966  0.3114
  760TIP3    H123695   6.154   1.992   0.603  1.1172 -0.3243  0.3009
  760TIP3    H223696   6.047   1.934   0.692  0.0019  0.6428 -0.4004
  761TIP3   OH223697   6.755   0.831   4.201 -0.3767 -0.0065 -0.1992
  761TIP3    H123698   6.672   0.827   4.155 -0.5272  2.2721 -0.1721
  761TIP3    H223699   6.732   0.856   4.291  0.1515 -1.6906  0.4331
  762TIP3   OH223700   1.949   1.683  14.026 -0.5053 -0.3188 -0.3826
  762TIP3    H123701   1.903   1.645  13.951 -1.8243 -0.8428  0.6578
  762TIP3    H223702   1.996   1.609  14.065  0.6942  0.0798 -1.0435
  763TIP3   OH223703   4.373   2.976   0.299  0.1544  0.2332  0.0222
  763TIP3    H123704   4.284   3.009   0.315 -0.7916 -1.2346 -1.9396
  763TIP3    H223705   4.361   2.882   0.284  1.8616  0.2372 -1.5291
  764TIP3   OH223706   4.761   0.300   5.028 -0.5011  0.6000 -0.0665
  764TIP3    H123707   4.770   0.212   4.990 -0.1673 -0.1779  1.7879
  764TIP3    H223708   4.687   0.293   5.087 -1.1783  1.8870 -0.7413
  765TIP3   OH223709   6.302   6.517  13.455  0.3393 -0.6547 -0.6494
  765TIP3    H123710   6.345   6.431  13.457 -0.1389 -0.8560  2.7376
  765TIP3    H223711   6.375   6.579  13.445  0.9181 -1.2919 -0.4413
  766TIP3   OH223712   4.399   1.519  15.452  0.2071 -0.2298  0.3174
  766TIP3    H123713   4.389   1.552  15.363  0.8325 -2.6849 -0.7038
  766TIP3    H223714   4.390   1.424  15.443  3.0135 -0.7362  2.4490
  767TIP3   OH223715   0.373   3.563  12.544  0.9355 -0.1271 -0.3497
  767TIP3    H123716   0.416   3.521  12.619 -0.0328 -2.0499 -0.8467
  767TIP3    H223717   0.323   3.493  12.502 -0.4281  1.4516 -1.4344
  768TIP3   OH223718   6.056   2.576  14.835 -0.2821 -0.7048  0.6848
  768TIP3    H123719   6.030   2.661  14.800 -1.4573 -1.5032 -0.3963
  768TIP3    H223720   6.068   2.591  14.929 -0.3345  0.6779  0.4694
  769TIP3   OH223721   1.988   6.502   1.656 -0.0968 -0.7158  0.0251
  769TIP3    H123722   2.026   6.445   1.724  1.4783  1.2886  0.8871
  769TIP3    H223723   1.944   6.571   1.705  0.8560  0.6208 -0.9734
  770TIP3   OH223724   2.802   6.538  15.472  0.2561  0.2613 -0.3844
  770TIP3    H123725   2.781   6.584  15.391 -0.7283  0.9802  0.2737
  770TIP3    H223726   2.775   6.447  15.456 -2.4244  0.9533  0.0719
  771TIP3   OH223727   3.998   3.554   3.201 -0.2387 -0.1178  0.0230
  771TIP3    H123728   3.999   3.503   3.120 -0.5655 -1.2206  0.7044
  771TIP3    H223729   3.983   3.644   3.173 -0.1986 -0.4772 -1.1550
  772TIP3   OH223730   3.920   5.302   3.920  0.8003  1.0235  0.1201
  772TIP3    H123731   3.951   5.223   3.875  0.4293 -0.0069  1.6105
  772TIP3    H223732   3.917   5.277   4.012 -1.3674  2.1210  0.3801
  773TIP3   OH223733   1.019   0.164  14.422 -0.2459  0.3002  0.6795
  773TIP3    H123734   1.055   0.107  14.354  0.4661  1.0274  0.4247
  773TIP3    H223735   0.946   0.209  14.380  0.1272  0.6697  0.4152
  774TIP3   OH223736   3.501   0.755   5.691  0.2846 -0.2894 -0.2115
  774TIP3    H123737   3.546   0.692   5.635  1.3557  0.4517 -0.2165
  774TIP3    H223738   3.464   0.819   5.630  2.5847  1.2532 -0.0596
  775TIP3   OH223739   5.722   4.574   0.342 -0.0425 -0.2523  0.1150
  775TIP3    H123740   5.724   4.590   0.247  0.4648  0.8649  0.3068
  775TIP3    H223741   5.782   4.501   0.354 -2.3485 -2.3657 -0.7631
  776TIP3   OH223742   5.155   4.453   6.366  0.8485 -0.7113 -0.0113
  776TIP3    H123743   5.235   4.421   6.324  0.9205 -0.7079  0.1255
  776TIP3    H223744   5.178   4.463   6.458  1.6361  2.3103 -0.4592
  777TIP3   OH223745   2.507   1.918  16.531  0.1862 -0.3077  0.0857
  777TIP3    H123746   2.438   1.854  16.515 -1.3163  1.2402  0.1879
  777TIP3    H223747   2.562   1.914  16.452 -0.6574 -0.7624 -0.4929
  778TIP3   OH223748   3.782   2.263  12.664  0.6435 -0.4915 -0.2388
  778TIP3    H123749   3.786   2.309  12.748  0.6020 -1.1318  0.1147
  778TIP3    H223750   3.867   2.279  12.623  0.0476  1.2650 -0.8437
  779TIP3   OH223751   4.534   6.328  14.269  0.7916 -0.4183 -0.5029
  779TIP3    H123752   4.552   6.329  14.175  0.0001 -0.4170 -0.6586
  779TIP3    H223753   4.567   6.411  14.301  1.9551 -0.8374 -0.6110
  780TIP3   OH223754   5.039   6.047  15.044  0.0656  0.2492 -0.0359
  780TIP3    H123755   5.056   6.128  14.996 -0.9551 -0.0408 -0.8972
  780TIP3    H223756   4.948   6.027  15.026  0.8817 -2.2379 -1.5687
  781TIP3   OH223757   5.841   5.048  13.136  0.1055  0.2561  0.7798
  781TIP3    H123758   5.830   5.073  13.228  0.2869  0.1364  0.8343
  781TIP3    H223759   5.904   4.976  13.138  1.0600  1.0640  0.4658
  782TIP3   OH223760   6.111   1.156  14.368 -0.1493 -0.7675 -0.2479
  782TIP3    H123761   6.072   1.082  14.321 -0.5907 -0.8418  0.2343
  782TIP3    H223762   6.191   1.175  14.319 -0.3904 -1.1113 -0.7920
  783TIP3   OH223763   6.131   2.111   4.465  0.3014 -0.6785 -0.2411
  783TIP3    H123764   6.075   2.189   4.475  1.2740 -0.0517  0.4253
  783TIP3    H223765   6.212   2.134   4.509  0.3377 -2.3689  0.6030
  784TIP3   OH223766   1.940   0.452  16.376  0.1560  0.0382 -0.2286
  784TIP3    H123767   2.024   0.451  16.330 -0.4726  0.8548 -1.4313
  784TIP3    H223768   1.898   0.534  16.348  0.1367  1.0488  2.5329
  785TIP3   OH223769   0.775   1.816  12.948  0.7590  0.3602 -0.1929
  785TIP3    H123770   0.717   1.746  12.978  0.3805  1.3087  1.3654
  785TIP3    H223771   0.741   1.839  12.862  0.0874 -0.4985 -0.1695
  786TIP3   OH223772   1.354   3.712   5.163  0.1252  0.2531 -0.6795
  786TIP3    H123773   1.420   3.769   5.124  1.0376 -1.2040 -1.3020
  786TIP3    H223774   1.370   3.717   5.258  0.1403  1.0851 -0.7271
  787TIP3   OH223775   3.923   3.677   5.377  0.0384 -0.2790 -0.1432
  787TIP3    H123776   3.882   3.616   5.316 -0.6679 -0.5446  0.5815
  787TIP3    H223777   3.874   3.665   5.459  1.5705 -0.6070  0.7425
  788TIP3   OH223778   5.693   3.737   4.149 -0.4806  0.2947  0.3778
  788TIP3    H123779   5.740   3.700   4.223  0.6411  2.0450  0.5817
  788TIP3    H223780   5.606   3.758   4.183 -0.1965  0.4338  1.0155
  789TIP3   OH223781   5.292   3.008  11.489  0.2104 -0.0920  0.2438
  789TIP3    H123782   5.309   3.040  11.401 -2.3107 -0.0773 -0.2611
  789TIP3    H223783   5.314   3.082  11.546  1.1488  0.1411 -0.4090
  790TIP3   OH223784   2.017   1.332   4.292 -0.5497 -0.1264 -0.0060
  790TIP3    H123785   2.048   1.290   4.212 -0.3773 -0.3826  0.1938
  790TIP3    H223786   1.956   1.268   4.330  0.4157 -0.6019  0.7736
  791TIP3   OH223787   0.989   0.435   0.293 -0.0728  0.1024  0.1319
  791TIP3    H123788   0.896   0.429   0.271 -0.0933  2.4543 -0.5245
  791TIP3    H223789   1.026   0.353   0.261 -1.3957  0.4086 -2.3053
  792TIP3   OH223790   6.465   0.012  15.158 -0.2774  0.7633  0.3895
  792TIP3    H123791   6.493   0.102  15.175 -0.5029  0.6672  1.3353
  792TIP3    H223792   6.546  -0.039  15.166  0.4586  1.2397 -3.3535
  793TIP3   OH223793   4.000   4.431   0.562  0.1619  0.3837 -0.8547
  793TIP3    H123794   3.939   4.492   0.603 -0.1652 -0.5396  0.0361
  793TIP3    H223795   3.980   4.437   0.468 -1.5356 -0.1657 -0.5396
  794TIP3   OH223796   5.907   1.412  15.935 -0.9066 -0.7068  0.1291
  794TIP3    H123797   5.961   1.491  15.923 -0.7656 -0.9587 -0.9293
  794TIP3    H223798   5.941   1.373  16.015  0.0490 -0.5008 -0.1647
  795TIP3   OH223799   5.429   6.449  11.979  0.0335 -0.3837 -0.0722
  795TIP3    H123800   5.482   6.386  11.930  0.4480  1.6281 -2.3491
  795TIP3    H223801   5.339   6.429  11.954  0.1382 -0.3593 -0.4867
  796TIP3   OH223802   2.618   0.226  14.203 -0.2938 -0.1665 -0.0676
  796TIP3    H123803   2.633   0.242  14.297  0.8199 -0.8636 -0.1135
  796TIP3    H223804   2.595   0.134  14.198  1.5915 -0.6348 -0.6616
  797TIP3   OH223805   3.309   5.788   0.240 -0.2879 -0.0710 -0.4150
  797TIP3    H123806   3.295   5.797   0.335 -1.2393 -0.1137 -0.5481
  797TIP3    H223807   3.221   5.788   0.203  0.0888  0.0073 -1.3116
  798TIP3   OH223808   3.513   0.044  14.249  0.0733 -0.2898  0.1874
  798TIP3    H123809   3.584   0.024  14.189  1.1714  1.0034  1.0063
  798TIP3    H223810   3.443   0.079  14.193 -0.3546 -2.5813 -0.7442
  799TIP3   OH223811   3.981   5.091   1.768 -0.3242  0.1499  0.1665
  799TIP3    H123812   4.043   5.160   1.791  1.8032 -2.0662  1.3702
  799TIP3    H223813   3.926   5.130   1.701  0.8092  3.0025  0.7910
  800TIP3   OH223814   5.264   6.675   0.935  0.2876 -0.1186  0.0382
  800TIP3    H123815   5.332   6.686   1.002  0.5876  0.1633 -0.3134
  800TIP3    H223816   5.269   6.754   0.882  0.4667 -0.6115 -0.6948
  801TIP3   OH223817   0.356   1.459  12.478 -0.1882 -0.9397 -0.5010
  801TIP3    H123818   0.419   1.416  12.421  0.4351  0.1477 -0.6421
  801TIP3    H223819   0.403   1.475  12.559 -0.1016  0.3483 -0.7877
  802TIP3   OH223820   6.649   2.634  14.477  0.2693 -0.0965 -0.1479
  802TIP3    H123821   6.666   2.670  14.564  0.7053  0.6607 -0.5375
  802TIP3    H223822   6.591   2.697  14.435  0.9082  0.0830 -0.7788
  803TIP3   OH223823   2.572   4.909   1.645 -0.1014 -1.1160 -0.0402
  803TIP3    H123824   2.535   4.987   1.685 -0.6780 -1.6891  0.5581
  803TIP3    H223825   2.620   4.867   1.717  0.0797 -1.3907 -0.3223
  804TIP3   OH223826   4.978   6.179  16.199 -0.1124  0.3074 -0.6931
  804TIP3    H123827   4.953   6.087  16.206  1.4018 -0.0374  0.2154
  804TIP3    H223828   5.072   6.178  16.184  0.2579  1.7759  1.3377
  805TIP3   OH223829   2.188   1.232  12.553 -0.2057 -0.1029 -0.0142
  805TIP3    H123830   2.180   1.202  12.643  1.7244  0.4820  0.3733
  805TIP3    H223831   2.218   1.156  12.504 -0.7717 -0.2859 -0.0827
  806TIP3   OH223832   2.145   4.430  15.091  0.8311 -0.3046 -0.3529
  806TIP3    H123833   2.065   4.410  15.041  0.6894  1.5878 -0.9244
  806TIP3    H223834   2.209   4.453  15.024  0.9147  1.3293  0.2731
  807TIP3   OH223835   0.281   3.288  15.554 -0.1604 -0.1377  0.1163
  807TIP3    H123836   0.362   3.239  15.544 -0.4288 -0.6264  0.3197
  807TIP3    H223837   0.212   3.221  15.559 -0.6203  0.2822 -0.4497
  808TIP3   OH223838   2.893   4.221   1.376 -0.4339 -0.2164 -0.3502
  808TIP3    H123839   2.827   4.286   1.400  1.0031  1.5983 -1.3111
  808TIP3    H223840   2.884   4.153   1.444  0.2192  2.4748  2.5348
  809TIP3   OH223841   4.534   5.316   2.987 -0.6031 -0.7605 -0.1614
  809TIP3    H123842   4.565   5.268   3.063 -2.2733 -0.7014  0.5582
  809TIP3    H223843   4.442   5.334   3.004 -0.5898  0.7032 -1.4465
  810TIP3   OH223844   1.572   0.559   1.620  0.1266 -0.2357 -0.2466
  810TIP3    H123845   1.571   0.520   1.708  3.4522 -0.2575 -0.1463
  810TIP3    H223846   1.515   0.504   1.568 -0.1283 -1.5480  1.3935
  811TIP3   OH223847   4.418   0.647   0.328  0.2057 -1.1765 -0.1432
  811TIP3    H123848   4.392   0.731   0.367  0.8709 -0.6359 -0.8385
  811TIP3    H223849   4.386   0.581   0.390 -0.1118 -0.4024  0.5358
  812TIP3   OH223850   4.708   4.489   0.462  0.1636  0.4634 -0.4458
  812TIP3    H123851   4.749   4.441   0.389  1.1848  0.8920 -0.1673
  812TIP3    H223852   4.748   4.451   0.540 -1.3785 -0.4102 -0.0767
  813TIP3   OH223853   1.021   5.258  16.459 -0.2330  0.1055  0.3818
  813TIP3    H123854   0.973   5.239  16.540  0.8668  0.4586  1.1266
  813TIP3    H223855   1.113   5.261  16.485  0.0812  0.9555 -0.7455
  814TIP3   OH223856   0.915   3.597   2.526  0.4325 -0.0317 -0.5702
  814TIP3    H123857   0.848   3.563   2.466 -0.5283  1.4195 -0.3423
  814TIP3    H223858   0.959   3.666   2.476  0.5272  0.2632 -0.0764
  815TIP3   OH223859   3.428   3.969  16.231 -0.1262 -0.2424 -0.1292
  815TIP3    H123860   3.435   4.043  16.292  3.1851  0.6321 -1.4420
  815TIP3    H223861   3.443   3.892  16.285  2.3881  0.4977  0.3300
  816TIP3   OH223862   3.666   4.213   2.842  0.5690 -0.2127 -0.0355
  816TIP3    H123863   3.661   4.266   2.921 -1.4916  0.2190 -0.4386
  816TIP3    H223864   3.709   4.132   2.871  0.0660  0.0366  1.4722
  817TIP3   OH223865   4.210   4.905   5.546  0.3561 -0.0774  0.3246
  817TIP3    H123866   4.265   4.897   5.468 -0.4396  0.3924 -0.2948
  817TIP3    H223867   4.200   5.000   5.558  0.6393 -0.1468  1.1101
  818TIP3   OH223868   3.513   1.372   5.640  0.1841  0.3590 -0.2038
  818TIP3    H123869   3.586   1.373   5.702 -0.6538 -1.3523  0.8438
  818TIP3    H223870   3.551   1.402   5.558  1.6252  1.3238  0.7848
  819TIP3   OH223871   3.270   5.351  10.578  0.4711 -0.2368  0.5853
  819TIP3    H123872   3.278   5.319  10.668  0.5369 -1.1931  0.2497
  819TIP3    H223873   3.264   5.271  10.525  0.6047  0.3172 -0.2721
  820TIP3   OH223874   0.044   3.292   5.275 -0.3322 -0.6837 -0.0790
  820TIP3    H123875   0.036   3.383   5.246  0.8149 -0.4063  0.4397
  820TIP3    H223876  -0.041   3.271   5.314 -0.2964  0.4698  0.6324
  821TIP3   OH223877   4.722   4.687   0.161  0.4150  0.2915 -0.1794
  821TIP3    H123878   4.667   4.705   0.237 -1.5391 -1.2875 -1.2001
  821TIP3    H223879   4.783   4.762   0.158 -1.5003  1.9503  1.0926
  822TIP3   OH223880   6.600   2.394   1.539  0.3655 -0.5138 -0.0679
  822TIP3    H123881   6.533   2.329   1.560  1.3404 -1.3443  0.4910
  822TIP3    H223882   6.564   2.442   1.464 -1.8646  0.5703  1.6178
  823TIP3   OH223883   3.244   3.199   0.330 -0.4760 -0.2711 -0.0901
  823TIP3    H123884   3.244   3.193   0.425 -0.2608  0.1592 -0.0630
  823TIP3    H223885   3.153   3.217   0.307 -0.7398 -1.4750 -0.0392
  824TIP3   OH223886   3.169   3.792  15.354  0.1162 -0.2144 -0.1134
  824TIP3    H123887   3.188   3.745  15.436 -0.2643 -0.4469 -0.1602
  824TIP3    H223888   3.254   3.796  15.310  0.3930  0.2142  0.4499
  825TIP3   OH223889   4.597   3.860  12.400 -0.1266 -0.0918  0.0682
  825TIP3    H123890   4.641   3.821  12.476 -0.4822 -1.9883 -0.6802
  825TIP3    H223891   4.667   3.906  12.354  0.4136 -0.2850  0.6790
  826TIP3   OH223892   4.164   5.898  11.651 -0.4850 -0.0081  0.3505
  826TIP3    H123893   4.156   5.888  11.557  0.9054 -1.6188  0.3620
  826TIP3    H223894   4.252   5.934  11.664 -0.1109 -1.1434  1.0813
  827TIP3   OH223895   5.892   2.784  14.675 -0.1892 -0.0741  0.0535
  827TIP3    H123896   5.907   2.805  14.583 -0.1482 -0.7076 -0.0824
  827TIP3    H223897   5.853   2.864  14.711  1.1702  0.7167 -0.1664
  828TIP3   OH223898   4.022   2.865   4.420  0.5129  0.0225  0.2897
  828TIP3    H123899   3.954   2.834   4.480  1.8044 -0.8834  1.3198
  828TIP3    H223900   4.015   2.808   4.344  0.6448 -0.5981  0.7387
  829TIP3   OH223901   1.263   1.684   2.797 -0.1007 -0.4564  0.1090
  829TIP3    H123902   1.269   1.621   2.725  1.0358 -0.9769  0.6386
  829TIP3    H223903   1.181   1.730   2.783  0.4273 -0.1079 -1.8914
  830TIP3   OH223904   1.887   6.112   2.659  0.1895 -0.2100  0.0137
  830TIP3    H123905   1.841   6.086   2.739  2.4554  0.6893  1.6634
  830TIP3    H223906   1.857   6.201   2.642  0.0226 -0.2549  0.0675
  831TIP3   OH223907   1.754   4.745   3.522  0.7186 -0.2288  0.4523
  831TIP3    H123908   1.767   4.797   3.602  1.6725 -1.3374  1.0207
  831TIP3    H223909   1.830   4.765   3.468 -1.0931  2.4179 -1.2734
  832TIP3   OH223910   1.644   1.237  12.472  0.2880  0.1541 -0.1597
  832TIP3    H123911   1.591   1.301  12.424  1.3130  1.3807  0.3170
  832TIP3    H223912   1.653   1.163  12.412 -2.5197 -0.3703 -0.0007
  833TIP3   OH223913   5.369   4.467  13.978 -0.0012 -0.1177  0.0532
  833TIP3    H123914   5.395   4.401  13.915  0.8795  1.0842 -0.8786
  833TIP3    H223915   5.451   4.493  14.021 -0.2949  0.5194  0.2441
  834TIP3   OH223916   3.463   5.048   2.006  0.1827 -0.4871 -0.2460
  834TIP3    H123917   3.538   5.003   1.966 -0.3290 -2.6054  1.0954
  834TIP3    H223918   3.426   5.100   1.935  0.4861 -2.5943 -2.0001
  835TIP3   OH223919   3.341   5.412  13.047  0.6887  0.1884 -0.1474
  835TIP3    H123920   3.254   5.431  13.013 -0.2751  1.7067  2.9670
  835TIP3    H223921   3.337   5.321  13.074  0.4401 -0.0636 -1.0110
  836TIP3   OH223922   1.096   3.723   5.351  0.3901  0.0596 -0.3644
  836TIP3    H123923   1.013   3.730   5.398  0.4095  0.2370 -0.3569
  836TIP3    H223924   1.093   3.794   5.287 -0.1337 -0.8899 -1.4019
  837TIP3   OH223925   4.504   1.666  17.087  0.2214 -0.1508 -0.2809
  837TIP3    H123926   4.577   1.615  17.124 -0.0820 -0.1359  0.3525
  837TIP3    H223927   4.528   1.679  16.995  0.7157 -0.6918 -0.2352
  838TIP3   OH223928   6.143   1.666  13.754 -0.0599 -0.1410 -0.1670
  838TIP3    H123929   6.097   1.660  13.670 -1.0564 -1.8246  0.4905
  838TIP3    H223930   6.083   1.627  13.817  2.4802 -2.9113  0.6210
  839TIP3   OH223931   5.491   0.397  16.388  0.3440  0.2827 -0.0949
  839TIP3    H123932   5.550   0.343  16.440  0.5821  0.1304 -0.5267
  839TIP3    H223933   5.435   0.335  16.342  1.7487  0.3507 -1.9391
  840TIP3   OH223934   4.526   3.406  15.892 -0.0417  0.5827  0.8046
  840TIP3    H123935   4.528   3.475  15.826 -0.1283 -0.6093 -0.4434
  840TIP3    H223936   4.536   3.453  15.975 -1.3769  2.2214  0.0667
  841TIP3   OH223937   5.319   0.217  16.604 -0.5280  0.1634  0.2627
  841TIP3    H123938   5.323   0.312  16.619  0.3269  0.5887 -2.4216
  841TIP3    H223939   5.226   0.196  16.606 -0.9005  1.5275 -1.7877
  842TIP3   OH223940   4.497   2.231   4.879  0.4646 -0.2412  0.1574
  842TIP3    H123941   4.490   2.290   4.954  2.0127  0.2757 -0.0771
  842TIP3    H223942   4.460   2.281   4.806 -0.7135 -0.6081  0.5013
  843TIP3   OH223943   2.837   0.037  15.197 -0.0712 -0.0421  0.0265
  843TIP3    H123944   2.902   0.069  15.134  0.9736 -0.0432  1.0957
  843TIP3    H223945   2.777  -0.016  15.145  0.4037  0.4964 -1.0851
  844TIP3   OH223946   2.027   1.722  16.082  0.5128  0.9443  0.7909
  844TIP3    H123947   1.998   1.807  16.113  0.6925  2.6453 -3.4372
  844TIP3    H223948   1.949   1.666  16.089 -0.9870  2.7590 -0.9112
  845TIP3   OH223949   6.031   2.717   1.399 -0.5478 -0.0967 -0.3581
  845TIP3    H123950   6.016   2.631   1.439  0.5499  0.0771  0.4607
  845TIP3    H223951   6.084   2.698   1.322  0.5168 -0.0865  0.3485
  846TIP3   OH223952   6.023   5.367  15.324 -0.4749 -0.2068  0.0127
  846TIP3    H123953   5.979   5.352  15.407  0.3522  0.6923  0.6178
  846TIP3    H223954   6.081   5.441  15.340 -0.1321 -0.1775 -1.2971
  847TIP3   OH223955   2.437   4.538   4.480  0.1129  0.5784  0.1779
  847TIP3    H123956   2.504   4.470   4.484  0.6182  1.1144  1.0985
  847TIP3    H223957   2.377   4.509   4.411  1.1083 -0.0752 -0.4305
  848TIP3   OH223958   1.935   4.144   2.661 -0.0157 -0.3806  0.6490
  848TIP3    H123959   1.952   4.205   2.733 -2.1843  1.9297 -0.7654
  848TIP3    H223960   1.851   4.104   2.683 -0.0996 -0.5748 -0.0348
  849TIP3   OH223961   4.316   4.109  16.958 -0.4825 -0.3955  0.1353
  849TIP3    H123962   4.353   4.055  16.888  0.5671  0.0533  0.3295
  849TIP3    H223963   4.271   4.047  17.015  0.6213 -1.0524  0.3068
  850TIP3   OH223964   2.085   0.957  11.537 -0.5434  0.2737 -0.1588
  850TIP3    H123965   2.074   0.917  11.451 -0.2593  1.9944 -1.0042
  850TIP3    H223966   2.000   0.994  11.558 -0.8478 -0.8743  0.6959
  851TIP3   OH223967   0.187   4.143   0.320 -0.0779 -0.3731  0.4459
  851TIP3    H123968   0.279   4.160   0.298  0.2534 -1.3625  1.0453
  851TIP3    H223969   0.140   4.155   0.237  0.3563  1.7061  0.4648
  852TIP3   OH223970   4.966   5.058  10.519  0.7707  0.2021 -0.6536
  852TIP3    H123971   4.877   5.091  10.530  0.6996 -0.6142  1.3334
  852TIP3    H223972   4.958   4.984  10.459  0.5752  2.0416 -3.0080
  853TIP3   OH223973   5.221   1.883   1.671  0.2141  0.4697  0.1786
  853TIP3    H123974   5.298   1.833   1.698  1.8782  2.8538  0.0717
  853TIP3    H223975   5.212   1.951   1.738 -1.7537  0.2936  0.1276
  854TIP3   OH223976   5.810   1.127   4.695 -0.1663 -0.1722 -0.1533
  854TIP3    H123977   5.834   1.167   4.778 -0.7561  2.7793 -1.3657
  854TIP3    H223978   5.864   1.171   4.630 -1.5892 -0.5970 -1.6724
  855TIP3   OH223979   4.915   5.705   1.421 -0.0108 -0.3095  0.2782
  855TIP3    H123980   4.959   5.743   1.497 -0.9417 -0.2292  0.7822
  855TIP3    H223981   4.840   5.658   1.457 -0.6963  0.0725 -0.6200
  856TIP3   OH223982   5.851   4.887  15.567  0.1506 -0.1323 -0.4582
  856TIP3    H123983   5.927   4.942  15.587  0.3110 -0.5041 -0.0409
  856TIP3    H223984   5.799   4.939  15.506 -0.0289  0.7726  0.4415
  857TIP3   OH223985   0.101   5.752  10.829  0.2930  0.7437 -0.0926
  857TIP3    H123986   0.048   5.756  10.908  1.7557 -0.2677  0.9778
  857TIP3    H223987   0.083   5.666  10.792  0.5113  0.7467 -0.2090
  858TIP3   OH223988   1.238   2.162  11.295  0.1711  0.3046  0.6114
  858TIP3    H123989   1.256   2.068  11.304 -0.9418  0.0158 -0.1941
  858TIP3    H223990   1.198   2.171  11.209  0.6972  1.5935  0.4918
  859TIP3   OH223991   6.619   2.850   3.647 -0.0991 -0.0268  0.0045
  859TIP3    H123992   6.694   2.828   3.702 -0.6164  0.9647  1.1241
  859TIP3    H223993   6.545   2.805   3.688 -0.2185 -0.5631 -0.7848
  860TIP3   OH223994   6.271   0.370  11.407  0.4056  0.4916 -0.4664
  860TIP3    H123995   6.254   0.383  11.500  0.7931  1.1047 -0.4800
  860TIP3    H223996   6.261   0.457  11.368  0.8045  0.3433 -0.9070
  861TIP3   OH223997   2.120   4.745   0.823  0.5576 -0.0621 -0.4922
  861TIP3    H123998   2.179   4.792   0.764  0.2058  0.9401 -0.0554
  861TIP3    H223999   2.118   4.798   0.902 -1.8153  0.5437 -0.9008
  862TIP3   OH224000   5.173   0.993   6.660  0.0695  0.2184 -0.1122
  862TIP3    H124001   5.087   0.950   6.670 -1.4646  2.2708 -3.7184
  862TIP3    H224002   5.213   0.949   6.585  0.7245  1.5846 -0.5686
  863TIP3   OH224003   4.767   1.571  14.055  0.0753 -0.5017  0.3193
  863TIP3    H124004   4.722   1.550  14.137 -0.7687  0.0358 -0.0104
  863TIP3    H224005   4.700   1.565  13.987 -0.2912  3.4565  0.2277
  864TIP3   OH224006   1.012   3.791   6.377  0.1312  0.1362 -0.3268
  864TIP3    H124007   1.079   3.781   6.445 -1.1608  0.5266  1.0199
  864TIP3    H224008   0.964   3.709   6.379 -1.5617  1.1094  1.0685
  865TIP3   OH224009   1.462   2.952  13.271  0.0314 -0.1572 -0.6448
  865TIP3    H124010   1.471   2.903  13.353  0.8462 -3.1861 -2.4770
  865TIP3    H224011   1.514   3.031  13.285 -0.2526 -0.3823  1.9204
  866TIP3   OH224012   0.475   6.052   4.709  0.2307 -0.0123 -0.1528
  866TIP3    H124013   0.542   6.066   4.642  0.4806  0.7499  0.2535
  866TIP3    H224014   0.513   5.988   4.769 -0.4456 -1.5875 -1.3636
  867TIP3   OH224015   0.273   5.171  15.338  0.4984 -0.1023 -0.8441
  867TIP3    H124016   0.300   5.087  15.302  0.3197  0.1536 -1.5862
  867TIP3    H224017   0.346   5.230  15.321  0.0022  0.2752 -1.7219
  868TIP3   OH224018   1.520   6.364   1.137  0.4635  0.0017  0.2863
  868TIP3    H124019   1.579   6.437   1.117  1.8553 -1.5211 -1.3198
  868TIP3    H224020   1.438   6.387   1.094  2.3817 -1.6255 -4.6142
  869TIP3   OH224021   0.036   6.756  14.355  0.1815 -0.4408 -0.5248
  869TIP3    H124022   0.026   6.835  14.302 -1.1451 -0.6527 -0.5913
  869TIP3    H224023   0.078   6.786  14.436 -2.4890  0.7633  0.4787
  870TIP3   OH224024   5.882   4.143   6.547  0.1924 -0.0496 -0.0737
  870TIP3    H124025   5.906   4.129   6.639 -1.8183  0.5437  0.5755
  870TIP3    H224026   5.790   4.117   6.542  0.4097 -0.5325 -2.0410
  871TIP3   OH224027   0.053   5.127   1.539 -0.1173  0.0923 -0.4638
  871TIP3    H124028   0.071   5.221   1.550  0.2441 -0.0882  0.4769
  871TIP3    H224029   0.119   5.083   1.592 -0.4833 -0.6967 -0.6529
  872TIP3   OH224030   6.367   0.665   0.371 -0.2251 -0.3343  0.6570
  872TIP3    H124031   6.285   0.627   0.401 -0.4837  0.5463  1.0979
  872TIP3    H224032   6.377   0.745   0.424  0.2712  0.2383 -0.2813
  873TIP3   OH224033   2.866   3.682   2.327  0.5586  0.0658  0.0228
  873TIP3    H124034   2.818   3.754   2.368 -0.8261 -0.6469 -0.3126
  873TIP3    H224035   2.954   3.717   2.313  0.6468  0.8420  2.2031
  874TIP3   OH224036   4.933   4.781   1.708  0.1629 -0.2954 -0.0964
  874TIP3    H124037   4.992   4.711   1.739 -1.0239 -1.4266 -0.3323
  874TIP3    H224038   4.980   4.862   1.728  1.6726 -1.1640 -0.0106
  875TIP3   OH224039   0.051   2.470  16.791 -0.4692  0.0127  0.5850
  875TIP3    H124040  -0.008   2.470  16.715  0.6408 -2.5861 -0.3283
  875TIP3    H224041   0.016   2.403  16.849  1.2637 -1.1790  0.2796
  876TIP3   OH224042   0.845   6.137   1.898  0.0705  0.0894  0.4853
  876TIP3    H124043   0.750   6.149   1.905 -0.2895 -2.1963 -0.1480
  876TIP3    H224044   0.855   6.063   1.838  2.3048  1.3564 -0.7702
  877TIP3   OH224045   0.436   3.331   3.312 -0.3596  0.5154 -0.4088
  877TIP3    H124046   0.422   3.237   3.321  0.5076  0.4852  0.7624
  877TIP3    H224047   0.378   3.370   3.378 -1.0247  0.8346 -1.1690
  878TIP3   OH224048   4.253   5.851   3.176 -0.2516  0.3230  0.2787
  878TIP3    H124049   4.224   5.760   3.169  1.1881 -0.1901  0.9926
  878TIP3    H224050   4.172   5.902   3.171 -1.0363 -0.9778 -0.4252
  879TIP3   OH224051   3.511   5.250  12.765  0.7862  0.0668  0.2465
  879TIP3    H124052   3.593   5.200  12.767  1.8661  1.8266  1.3509
  879TIP3    H224053   3.488   5.261  12.857  0.2047  1.0463 -0.0136
  880TIP3   OH224054   0.786   6.620   3.390 -0.4977 -0.2017 -0.7315
  880TIP3    H124055   0.704   6.632   3.438 -0.7910 -0.5376 -1.1479
  880TIP3    H224056   0.854   6.635   3.456 -0.8961 -1.1199 -0.0960
  881TIP3   OH224057   1.010   5.067  15.998  0.1523 -0.0840 -0.0643
  881TIP3    H124058   0.946   5.110  16.055  0.3181 -0.3611  0.3452
  881TIP3    H224059   1.087   5.124  16.000 -0.6811  1.0929 -1.9019
  882TIP3   OH224060   2.958   5.575   3.813  0.1325  0.0814  0.2602
  882TIP3    H124061   2.982   5.556   3.904 -0.6642 -1.1686  0.2083
  882TIP3    H224062   2.864   5.558   3.809  0.2095 -0.0837 -0.8606
  883TIP3   OH224063   5.311   0.580  11.867  0.2419  0.5404 -0.1445
  883TIP3    H124064   5.268   0.637  11.931 -0.7108  2.0871 -2.1092
  883TIP3    H224065   5.244   0.516  11.842  0.2004  0.7343 -0.5361
  884TIP3   OH224066   5.373   0.318   4.456  0.1341 -0.1894 -0.0006
  884TIP3    H124067   5.369   0.243   4.397 -0.5172  0.4333 -0.7533
  884TIP3    H224068   5.448   0.300   4.513  1.0662 -0.5545 -1.3360
  885TIP3   OH224069   0.053   1.003   5.407 -0.1306 -0.0749 -0.0852
  885TIP3    H124070   0.067   1.096   5.387  0.5166  0.0079  0.6822
  885TIP3    H224071   0.004   1.004   5.489  2.3649 -0.3928  1.4734
  886TIP3   OH224072   2.689   0.774  11.242  0.1279  0.1986  0.0772
  886TIP3    H124073   2.677   0.818  11.158 -0.1224 -0.5549 -0.2884
  886TIP3    H224074   2.697   0.681  11.220 -1.5744 -0.2031  1.0174
  887TIP3   OH224075   0.204   1.461   4.977  0.5317  0.4095 -0.4254
  887TIP3    H124076   0.263   1.386   4.988  1.8538  1.5860  0.8104
  887TIP3    H224077   0.138   1.450   5.045  1.0986  0.6936  0.1797
  888TIP3   OH224078   0.204   2.872  13.211  0.2934 -0.2631  0.1469
  888TIP3    H124079   0.126   2.820  13.193 -0.4512  0.5873  0.8281
  888TIP3    H224080   0.172   2.945  13.265  1.5282  0.1866  0.2915
  889TIP3   OH224081   1.791   2.240  15.220 -0.3787  0.1869  0.2211
  889TIP3    H124082   1.783   2.335  15.228  0.7823  0.2529  0.6028
  889TIP3    H224083   1.842   2.228  15.140 -0.5388 -0.1239  0.1656
  890TIP3   OH224084   3.351   5.605  16.922 -0.5932  0.5202  0.3485
  890TIP3    H124085   3.430   5.653  16.897  1.1584 -2.0280  0.8102
  890TIP3    H224086   3.362   5.519  16.882 -1.9899 -0.6712  2.4559
  891TIP3   OH224087   0.314   2.425   0.547  0.1620 -0.4391 -0.2970
  891TIP3    H124088   0.403   2.410   0.516  0.2325  0.0118 -0.3106
  891TIP3    H224089   0.272   2.476   0.479  0.2070  0.2363  0.1748
  892TIP3   OH224090   3.205   3.803  12.353 -0.2343 -0.3743 -0.0252
  892TIP3    H124091   3.169   3.883  12.313 -0.0729 -0.1982  0.1772
  892TIP3    H224092   3.298   3.806  12.331 -0.1301 -0.2365  0.4298
  893TIP3   OH224093   6.537   3.214  13.494 -0.6788  0.1423 -0.2768
  893TIP3    H124094   6.508   3.185  13.408  1.2463 -0.5236 -0.7362
  893TIP3    H224095   6.592   3.290  13.477  0.0438 -0.2332  0.3130
  894TIP3   OH224096   5.711   2.057  10.956 -0.5225  0.2462 -0.1706
  894TIP3    H124097   5.652   2.105  10.898  0.2957  0.4204 -0.8612
  894TIP3    H224098   5.792   2.108  10.957 -0.4633  0.1422  0.9718
  895TIP3   OH224099   1.014   4.995  17.020 -0.3410  0.4293  0.1708
  895TIP3    H124100   1.062   4.913  17.021 -0.5292  0.3357  2.3088
  895TIP3    H224101   1.082   5.063  17.019 -0.1774  0.2612  0.0378
  896TIP3   OH224102   2.935   0.760   0.501  0.0820 -0.0255 -0.2053
  896TIP3    H124103   2.981   0.804   0.430 -0.5417  0.0656 -0.5499
  896TIP3    H224104   2.844   0.758   0.474 -0.1538 -0.0392  0.5674
  897TIP3   OH224105   2.673   2.789   4.293 -0.0431  0.2344 -0.1979
  897TIP3    H124106   2.588   2.805   4.333 -0.3507 -0.9752 -0.3511
  897TIP3    H224107   2.681   2.855   4.224 -0.4706  0.9013  0.3844
  898TIP3   OH224108   2.580   5.687   2.765  0.3257  0.4099 -0.7174
  898TIP3    H124109   2.492   5.716   2.738  0.0842  0.3323 -0.0174
  898TIP3    H224110   2.624   5.767   2.792  0.4850  0.4524 -1.0966
  899TIP3   OH224111   5.349   2.948   0.126  1.0979 -0.4618  1.1013
  899TIP3    H124112   5.332   2.861   0.090 -1.3966  0.0902  0.8595
  899TIP3    H224113   5.421   2.982   0.073  1.6628 -2.1093  0.7680
  900TIP3   OH224114   5.844   1.655  10.508 -0.3335 -0.2766  0.4751
  900TIP3    H124115   5.825   1.616  10.422 -1.2501  0.2393  0.4339
  900TIP3    H224116   5.834   1.582  10.570  0.0978 -0.5955  0.1725
  901TIP3   OH224117   2.004   1.736   5.223  0.0550  0.9672  0.3898
  901TIP3    H124118   1.909   1.750   5.215 -0.1461 -0.1512  0.6839
  901TIP3    H224119   2.016   1.708   5.314  0.5456  0.1287  0.0681
  902TIP3   OH224120   1.590   1.609  11.939 -0.7859  0.2810  0.0694
  902TIP3    H124121   1.526   1.582  11.874 -0.8527  1.2306 -0.2715
  902TIP3    H224122   1.675   1.590  11.899 -0.8325  0.5551 -0.1642
  903TIP3   OH224123   2.567   5.575  15.226 -0.0349  0.0330 -0.0059
  903TIP3    H124124   2.604   5.617  15.149  0.8191  0.3248  0.5584
  903TIP3    H224125   2.643   5.545  15.276 -0.5667  0.1712  0.9035
  904TIP3   OH224126   0.668   1.482  11.864  0.2303 -0.6042  0.1641
  904TIP3    H124127   0.669   1.577  11.856  0.8078 -0.5239  1.0506
  904TIP3    H224128   0.596   1.453  11.808 -0.9739  0.4771  1.1240
  905TIP3   OH224129   5.504   3.705   4.419 -0.1803  0.0876 -0.4291
  905TIP3    H124130   5.512   3.795   4.389  0.0438  0.4174  0.5871
  905TIP3    H224131   5.472   3.656   4.343 -0.3487  1.0290 -0.9628
  906TIP3   OH224132   2.928   0.870  16.318  0.1604  0.1236 -0.3616
  906TIP3    H124133   2.944   0.961  16.293 -0.1230  0.4031  0.4474
  906TIP3    H224134   2.833   0.859  16.310  0.2372 -0.2205 -0.8429
  907TIP3   OH224135   5.630   0.088   1.613  0.0518 -0.3265 -0.7258
  907TIP3    H124136   5.654   0.177   1.639 -0.7745  0.3690 -2.2340
  907TIP3    H224137   5.706   0.035   1.636  0.9247  0.9285 -0.6371
  908TIP3   OH224138   4.766   3.450  12.417  0.4280 -0.6937 -0.0566
  908TIP3    H124139   4.720   3.369  12.439  2.2323 -1.7469 -0.0629
  908TIP3    H224140   4.821   3.468  12.494 -0.1741  0.7024  0.0714
  909TIP3   OH224141   5.046   5.614   5.884 -0.0433 -0.4480  0.8024
  909TIP3    H124142   5.049   5.521   5.905 -2.1319 -0.9204 -0.8691
  909TIP3    H224143   5.006   5.654   5.962  0.7802 -0.9408  1.4897
  910TIP3   OH224144   1.917   0.970  12.588 -0.4867  0.3473  0.4517
  910TIP3    H124145   1.899   0.990  12.496  0.1955  0.4608  0.3443
  910TIP3    H224146   1.892   0.878  12.598  1.2798 -0.2427 -0.3310
  911TIP3   OH224147   4.869   1.476  15.238 -0.1009  0.1512 -0.3924
  911TIP3    H124148   4.942   1.438  15.190  0.2207 -0.3615  0.4817
  911TIP3    H224149   4.854   1.561  15.198 -1.1949 -1.1118 -2.7877
  912TIP3   OH224150   3.146   3.180  15.976 -0.7261  0.1270  0.6370
  912TIP3    H124151   3.222   3.177  15.918 -0.2806 -1.7399  1.2691
  912TIP3    H224152   3.093   3.252  15.943  0.4013  0.2437 -0.9688
  913TIP3   OH224153   6.514   5.016   3.101  0.9628  0.3435 -0.2495
  913TIP3    H124154   6.432   5.026   3.150  2.2802 -0.3037  2.1613
  913TIP3    H224155   6.488   5.025   3.009 -2.0056 -1.1194  0.3786
  914TIP3   OH224156   2.627   3.181  12.651 -0.0599  0.0244  0.3808
  914TIP3    H124157   2.592   3.104  12.606 -0.5126  1.0429 -1.0265
  914TIP3    H224158   2.664   3.146  12.733  0.3355 -1.7793 -0.5382
  915TIP3   OH224159   3.902   1.030   5.261 -0.9300 -0.1504 -0.1497
  915TIP3    H124160   3.983   1.073   5.289  0.0651 -2.3919  0.5216
  915TIP3    H224161   3.884   1.068   5.175 -1.1628  2.9823  1.2374
  916TIP3   OH224162   1.618   5.008  11.109  0.1166  0.1248 -0.2191
  916TIP3    H124163   1.710   5.026  11.090  0.4032 -0.7064  0.3356
  916TIP3    H224164   1.585   5.089  11.148  1.0438 -0.0848  1.0624
  917TIP3   OH224165   5.734   5.656   1.353  0.1502  0.5813 -0.6247
  917TIP3    H124166   5.725   5.726   1.417 -0.2221 -0.2314  0.2237
  917TIP3    H224167   5.699   5.578   1.397  2.1411 -0.5113 -0.9331
  918TIP3   OH224168   4.379   6.596  11.886  0.1488  0.0049 -0.6055
  918TIP3    H124169   4.373   6.532  11.815  0.4187 -0.9779  0.2415
  918TIP3    H224170   4.298   6.585  11.935 -0.1203  0.8130 -0.8670
  919TIP3   OH224171   4.859   0.127  15.115 -0.1079 -0.2134 -0.3949
  919TIP3    H124172   4.827   0.040  15.093 -0.7616 -0.4439  1.3542
  919TIP3    H224173   4.950   0.129  15.084 -0.4647 -1.0698 -1.5285
  920TIP3   OH224174   2.754   1.864   2.553  0.0161  0.0401  0.1865
  920TIP3    H124175   2.719   1.901   2.634 -0.9369 -0.8773  0.2112
  920TIP3    H224176   2.848   1.859   2.568 -0.1231  0.1163  1.1495
  921TIP3   OH224177   0.222   2.666  16.746 -0.2763  0.3417  0.2600
  921TIP3    H124178   0.186   2.579  16.762  1.0897 -0.5587 -1.4362
  921TIP3    H224179   0.313   2.660  16.774  0.0284  0.9867 -0.5660
  922TIP3   OH224180   3.376   2.811   2.601 -0.1396  0.6392 -0.2538
  922TIP3    H124181   3.289   2.824   2.563 -0.6775 -1.0993  0.3440
  922TIP3    H224182   3.435   2.811   2.526 -0.9296 -0.4964 -0.9008
  923TIP3   OH224183   6.392   1.769  15.495 -0.0136  0.0944  0.0131
  923TIP3    H124184   6.460   1.806  15.438  0.8454 -0.8402  0.4177
  923TIP3    H224185   6.440   1.738  15.571 -1.0371  0.3681  0.7724
  924TIP3   OH224186   6.097   5.488   3.047  0.1527 -0.2090 -0.1303
  924TIP3    H124187   6.105   5.533   3.132  0.8387 -0.3816 -0.1037
  924TIP3    H224188   6.175   5.433   3.041  0.3694  0.2042 -1.1230
  925TIP3   OH224189   6.326   0.975  16.697  0.5040  0.2267  0.1141
  925TIP3    H124190   6.294   1.057  16.734  0.6235  0.3368 -0.0295
  925TIP3    H224191   6.421   0.986  16.693  0.4762  0.2849 -0.3986
  926TIP3   OH224192   5.266   2.235  13.068  0.2543 -0.1129 -0.0873
  926TIP3    H124193   5.297   2.228  12.978  1.7766 -0.5480  0.4402
  926TIP3    H224194   5.189   2.178  13.072 -1.4968  2.0605 -1.7883
  927TIP3   OH224195   3.033   5.925  15.139 -0.0283 -0.5788  0.4138
  927TIP3    H124196   3.000   5.857  15.080 -1.8336 -0.2330  1.0060
  927TIP3    H224197   3.117   5.891  15.170  1.4081 -0.3908 -2.9841
  928TIP3   OH224198   4.532   2.779  11.709 -0.0939 -0.3999  0.2484
  928TIP3    H124199   4.571   2.692  11.718  0.6099 -0.1845 -0.6011
  928TIP3    H224200   4.582   2.820  11.638 -1.3847  0.1621 -0.3529
  929TIP3   OH224201   0.610   2.818  15.697 -0.7671  0.2308 -0.2184
  929TIP3    H124202   0.596   2.729  15.667 -0.4611  0.1204 -0.0364
  929TIP3    H224203   0.616   2.811  15.793  0.7658  0.2495 -0.3124
  930TIP3   OH224204   5.585   1.365   5.072  0.1934  0.3792  0.0146
  930TIP3    H124205   5.569   1.329   4.985 -0.5892 -1.9418  1.0682
  930TIP3    H224206   5.506   1.342   5.122  1.1831  0.5406  1.6840
  931TIP3   OH224207   2.863   1.709   5.477 -0.4063 -0.4203  0.5811
  931TIP3    H124208   2.876   1.750   5.392 -0.0640 -1.0984  0.3091
  931TIP3    H224209   2.772   1.731   5.500 -0.4674 -0.1545  0.0948
  932TIP3   OH224210   6.783   1.669  15.575 -0.4394 -0.4925 -0.2082
  932TIP3    H124211   6.753   1.645  15.487  1.4372 -0.8414 -0.7771
  932TIP3    H224212   6.869   1.629  15.582  0.6486  1.9277  0.7049
  933TIP3   OH224213   0.399   5.131  16.125  0.3501 -0.8357 -0.2245
  933TIP3    H124214   0.320   5.134  16.070  1.1575 -0.4193 -1.3743
  933TIP3    H224215   0.408   5.038  16.147  0.9512 -1.2806 -2.1984
  934TIP3   OH224216   5.484   2.502  12.509 -0.3004 -0.6130  0.4898
  934TIP3    H124217   5.573   2.478  12.486 -0.0027  0.2256  0.7487
  934TIP3    H224218   5.465   2.578  12.455 -0.4264 -0.0583  1.3116
  935TIP3   OH224219   0.078   4.038  13.461  0.6925 -0.3996 -0.3517
  935TIP3    H124220   0.074   3.961  13.518 -0.0509  0.3120  0.5633
  935TIP3    H224221   0.170   4.042  13.434  1.0125 -0.8784  0.6179
  936TIP3   OH224222   6.641   2.921  12.917 -0.2791  0.2745  0.4023
  936TIP3    H124223   6.663   2.999  12.865 -1.2465 -1.2560 -2.4310
  936TIP3    H224224   6.547   2.909  12.903 -0.5426 -0.2527  2.4803
  937TIP3   OH224225   3.105   2.580  14.108  0.0433 -0.2393 -0.4992
  937TIP3    H124226   3.090   2.513  14.042 -1.5245 -0.1130 -0.2897
  937TIP3    H224227   3.114   2.661  14.059 -0.0884 -0.2984 -0.6212
  938TIP3   OH224228   6.707   4.903  14.255 -0.3341 -0.5159 -0.5234
  938TIP3    H124229   6.784   4.929  14.305 -0.9347  1.3811 -0.5431
  938TIP3    H224230   6.633   4.942  14.302 -1.3473 -2.7195 -0.2322
  939TIP3   OH224231   2.624   0.606  13.729 -0.2169 -0.0497 -0.0015
  939TIP3    H124232   2.714   0.577  13.716 -0.3192 -0.8908  1.1404
  939TIP3    H224233   2.594   0.631  13.641  1.0122 -0.0688 -0.4331
  940TIP3   OH224234   3.358   3.937   6.489  0.5999 -0.2765  0.1075
  940TIP3    H124235   3.288   3.932   6.554 -0.1413  1.3931 -0.5303
  940TIP3    H224236   3.359   3.851   6.448  0.2295 -0.9362  1.4524
  941TIP3   OH224237   2.321   0.972  12.797  0.1990 -0.0581 -0.1131
  941TIP3    H124238   2.355   1.062  12.790  1.8220 -0.7009 -0.6102
  941TIP3    H224239   2.334   0.949  12.889 -0.6297  0.3697  0.1156
  942TIP3   OH224240   5.601   5.335   6.237 -1.0599 -0.4088  0.8001
  942TIP3    H124241   5.645   5.251   6.221  0.5696 -0.2630  4.1483
  942TIP3    H224242   5.643   5.396   6.177 -0.0425 -1.3077  0.5847
  943TIP3   OH224243   0.700   2.135  12.721  0.3601 -0.2989  0.2501
  943TIP3    H124244   0.624   2.177  12.680  0.0185  0.0466  1.2271
  943TIP3    H224245   0.722   2.063  12.662 -1.0852 -0.7543  0.2599
  944TIP3   OH224246   0.294   6.187  11.323 -0.2325  0.1761  0.0917
  944TIP3    H124247   0.212   6.194  11.373  0.1123  1.2754  0.5177
  944TIP3    H224248   0.302   6.271  11.279  0.8224  0.1924  0.2940
  945TIP3   OH224249   5.802   4.086   1.421 -0.0373 -0.5096 -0.5174
  945TIP3    H124250   5.819   4.177   1.395  1.9656 -0.7609 -0.0888
  945TIP3    H224251   5.726   4.093   1.479  0.6189  1.0047  0.1990
  946TIP3   OH224252   5.717   2.787  12.690 -0.0447 -0.6934  0.2906
  946TIP3    H124253   5.685   2.757  12.775 -1.2837  0.9370  0.4341
  946TIP3    H224254   5.760   2.870  12.708 -2.9613  1.2023 -1.0316
  947TIP3   OH224255   1.397   5.530  15.029  0.0766 -0.2419 -0.0577
  947TIP3    H124256   1.450   5.450  15.030  1.6834  0.7995 -0.7035
  947TIP3    H224257   1.398   5.558  14.937  0.5975  1.2119  0.3787
  948TIP3   OH224258   5.756   0.420   1.294  0.6356  0.6234 -0.3846
  948TIP3    H124259   5.804   0.501   1.281  1.9746 -0.0461  0.2647
  948TIP3    H224260   5.677   0.429   1.239  1.9431  1.3609 -2.1846
  949TIP3   OH224261   2.106   0.103   1.633 -0.7792  0.1672  0.4657
  949TIP3    H124262   2.157   0.184   1.633 -0.4853  0.0034 -1.4977
  949TIP3    H224263   2.168   0.035   1.607 -1.5932 -0.3078 -0.2456
  950TIP3   OH224264   1.349   1.594   5.204  0.6146  0.3263 -0.1161
  950TIP3    H124265   1.280   1.595   5.270 -0.3707 -0.3680 -1.0959
  950TIP3    H224266   1.430   1.605   5.253 -0.0164 -1.1696  1.3064
  951TIP3   OH224267   6.781   6.582  13.328  0.1642 -0.4902 -0.0638
  951TIP3    H124268   6.732   6.583  13.411 -0.8676  0.2677 -0.6771
  951TIP3    H224269   6.782   6.673  13.299 -1.3202 -1.0475 -1.9604
  952TIP3   OH224270   0.755   1.606   5.141  0.1659 -0.6287  0.0690
  952TIP3    H124271   0.697   1.588   5.215 -1.2847 -0.7709 -1.0636
  952TIP3    H224272   0.715   1.682   5.097  0.9845 -0.5591 -0.5743
  953TIP3   OH224273   3.855   2.365  15.202  0.1130  0.2891 -0.4857
  953TIP3    H124274   3.818   2.391  15.117  1.1976  1.9056 -0.4785
  953TIP3    H224275   3.930   2.423  15.215  1.2601 -1.3690  0.6014
  954TIP3   OH224276   4.921   4.440   1.398 -0.8621  0.1378 -0.0704
  954TIP3    H124277   4.969   4.517   1.426 -1.7206  0.8890 -0.6028
  954TIP3    H224278   4.931   4.378   1.469  1.7126 -0.1014 -0.6117
  955TIP3   OH224279   6.584   0.745  15.128 -0.3307 -0.3274  0.0585
  955TIP3    H124280   6.523   0.818  15.140 -0.6800 -0.5330 -0.4229
  955TIP3    H224281   6.648   0.777  15.066  1.0954  0.5066  1.9064
  956TIP3   OH224282   5.261   3.318  16.043 -0.8520 -0.0094 -0.2010
  956TIP3    H124283   5.333   3.364  15.999 -0.7557  0.6193  0.6005
  956TIP3    H224284   5.275   3.336  16.136 -1.3321 -0.9172  0.0532
  957TIP3   OH224285   5.938   3.561   0.399  0.2786 -0.3492 -0.9923
  957TIP3    H124286   6.009   3.524   0.452  0.9380 -0.6924 -2.0960
  957TIP3    H224287   5.980   3.583   0.316 -0.9019 -0.4759 -1.6252
  958TIP3   OH224288   5.209   4.294  15.567 -0.0946 -0.7577  0.6188
  958TIP3    H124289   5.264   4.215  15.572  1.1107 -0.0347 -0.9517
  958TIP3    H224290   5.271   4.367  15.565 -1.1124  0.1040 -0.4340
  959TIP3   OH224291   3.227   2.921   6.149  0.4715  0.2107 -0.2450
  959TIP3    H124292   3.154   2.966   6.107 -1.6679 -2.1516  0.8083
  959TIP3    H224293   3.250   2.977   6.224 -1.6676 -0.0492  0.6335
  960TIP3   OH224294   5.946   3.765   3.784  0.1525  0.0912 -0.6370
  960TIP3    H124295   6.017   3.714   3.822 -0.7817 -1.5779 -1.1060
  960TIP3    H224296   5.891   3.701   3.739 -1.3166  1.4367 -0.8084
  961TIP3   OH224297   5.103   4.656  13.586  0.0145 -0.0039  0.1999
  961TIP3    H124298   5.138   4.664  13.674 -0.1686 -0.7566  0.3510
  961TIP3    H224299   5.037   4.587  13.593 -0.5530  0.4781 -0.3611
  962TIP3   OH224300   3.714   2.501  13.846 -0.1469  0.1745 -0.1575
  962TIP3    H124301   3.719   2.405  13.850  1.2828  0.2589  0.0839
  962TIP3    H224302   3.746   2.524  13.759  1.0939  0.5277  0.3805
  963TIP3   OH224303   4.326   6.427  13.690 -0.1099 -0.5072  0.0663
  963TIP3    H124304   4.336   6.440  13.596 -0.6722 -0.8805 -0.0496
  963TIP3    H224305   4.343   6.513  13.729 -1.0975 -0.0679 -0.4704
  964TIP3   OH224306   4.804   4.744  16.377 -0.2033  0.5264  0.1871
  964TIP3    H124307   4.834   4.655  16.359  1.1743  0.5050  2.4399
  964TIP3    H224308   4.709   4.738  16.379 -0.0640 -1.4897  3.0418
  965TIP3   OH224309   0.921   1.525   4.916  0.0490  0.0499 -0.2638
  965TIP3    H124310   0.942   1.600   4.972 -0.5278 -1.4659  2.0694
  965TIP3    H224311   0.836   1.495   4.948  0.5718 -1.9893 -0.7359
  966TIP3   OH224312   5.249   5.150   1.504 -0.4545  0.0658  0.0801
  966TIP3    H124313   5.189   5.223   1.491  0.6307  0.6541 -1.7311
  966TIP3    H224314   5.313   5.158   1.434  1.0150 -1.2965  1.2172
  967TIP3   OH224315   2.892   4.468   4.206 -0.1541  0.0199 -0.4888
  967TIP3    H124316   2.936   4.483   4.122  0.2772 -0.8630 -0.4272
  967TIP3    H224317   2.956   4.496   4.272 -1.3779  2.9537 -0.4858
  968TIP3   OH224318   6.053   0.427  13.657 -0.0669 -0.9557  0.4054
  968TIP3    H124319   6.103   0.351  13.626 -0.8062 -0.5373 -1.9126
  968TIP3    H224320   5.984   0.390  13.711  0.3053 -1.8521  0.2708
  969TIP3   OH224321   0.892   3.136  12.392 -0.6901 -0.5419 -0.0231
  969TIP3    H124322   0.801   3.123  12.365 -0.9396  0.5459  0.2886
  969TIP3    H224323   0.892   3.124  12.487 -0.6925  0.4346  0.1050
  970TIP3   OH224324   3.080   2.358  11.458  0.3599  0.7831  0.1478
  970TIP3    H124325   3.103   2.266  11.462  1.9192  1.2072  1.3408
  970TIP3    H224326   3.112   2.387  11.372 -1.8128 -0.1890 -1.0303
  971TIP3   OH224327   5.808   0.749   5.745  0.2901  0.8510 -0.4299
  971TIP3    H124328   5.890   0.703   5.763 -0.3859 -0.6364 -1.1175
  971TIP3    H224329   5.761   0.692   5.685 -0.7179  2.2846 -1.0301
  972TIP3   OH224330   3.735   5.094   0.287  0.0027  0.3105 -0.3172
  972TIP3    H124331   3.656   5.147   0.279  0.2017  0.3826 -2.0683
  972TIP3    H224332   3.758   5.097   0.380  0.3737  3.8166 -0.4657
  973TIP3   OH224333   1.342   4.975   5.817 -0.3208 -0.2404  0.4588
  973TIP3    H124334   1.404   4.975   5.890 -0.5541  0.7644  0.6705
  973TIP3    H224335   1.291   4.895   5.828  0.3059 -0.5822  0.8371
  974TIP3   OH224336   4.678   6.657  17.178  0.0181  0.2294  0.3319
  974TIP3    H124337   4.610   6.637  17.242  0.4789  0.7582  0.9913
  974TIP3    H224338   4.760   6.657  17.228  0.1701  2.5649  0.1573
  975TIP3   OH224339   1.006   3.884   5.116 -0.1904  0.2475 -0.2902
  975TIP3    H124340   1.050   3.898   5.032  3.6472  0.8254  1.6773
  975TIP3    H224341   1.011   3.969   5.160 -1.9486 -0.1029  0.6087
  976TIP3   OH224342   3.793   4.805  14.071  0.0951  0.6008  0.0081
  976TIP3    H124343   3.869   4.823  14.127  0.6359  2.8095 -1.3895
  976TIP3    H224344   3.828   4.749  14.002 -0.0898 -0.3421  0.6728
  977TIP3   OH224345   5.708   4.597  11.957 -0.2642 -0.2877  0.4525
  977TIP3    H124346   5.720   4.692  11.955 -0.3609 -0.2684  0.7700
  977TIP3    H224347   5.701   4.572  11.865 -0.2310  0.0116  0.3667
  978TIP3   OH224348   2.656   1.866   1.611  0.5851 -0.0854  0.2115
  978TIP3    H124349   2.627   1.944   1.659  0.2067 -0.9533  1.4006
  978TIP3    H224350   2.606   1.869   1.530 -1.2330 -0.3794  1.2981
  979TIP3   OH224351   6.264   6.213  15.272  0.0899 -0.0725  0.0535
  979TIP3    H124352   6.318   6.151  15.321 -1.3175 -0.9951  0.4360
  979TIP3    H224353   6.261   6.177  15.183 -1.2464 -0.8785  0.4291
  980TIP3   OH224354   2.682   0.359   4.003  0.0898  0.6056 -0.5638
  980TIP3    H124355   2.645   0.287   4.053  2.6775  1.1000  2.1832
  980TIP3    H224356   2.618   0.430   4.009 -0.7568 -0.2060 -0.1080
  981TIP3   OH224357   3.356   1.842  16.608  0.2660  0.6490 -0.1449
  981TIP3    H124358   3.323   1.913  16.552 -0.9319 -0.9013 -1.4341
  981TIP3    H224359   3.340   1.762  16.558 -0.2584 -0.7318  2.1581
  982TIP3   OH224360   6.483   4.492   3.169 -0.3820  0.1380  0.2764
  982TIP3    H124361   6.404   4.505   3.116  0.5428 -2.7149 -1.8985
  982TIP3    H224362   6.539   4.566   3.145 -0.8400  0.0566 -1.1237
  983TIP3   OH224363   3.388   3.028   1.896 -0.1823 -0.5145  0.4904
  983TIP3    H124364   3.414   2.937   1.885 -0.9166 -0.6245 -0.4063
  983TIP3    H224365   3.466   3.078   1.874  0.3181 -0.9274  1.2892
  984TIP3   OH224366   4.249   2.724   0.726  0.2479  0.2072  0.1880
  984TIP3    H124367   4.294   2.739   0.809  1.6391  3.0632 -1.0154
  984TIP3    H224368   4.306   2.662   0.680  0.6633  0.3713  0.4698
  985TIP3   OH224369   2.743   5.838   3.456 -0.7446  0.2961 -0.0954
  985TIP3    H124370   2.652   5.808   3.457 -0.5063 -0.4367  2.0298
  985TIP3    H224371   2.794   5.760   3.477  0.1531  1.3373  1.7629
  986TIP3   OH224372   0.893   3.573  14.654  0.6171 -0.0687 -0.2393
  986TIP3    H124373   0.930   3.507  14.712  0.1265  0.2001  0.3907
  986TIP3    H224374   0.823   3.528  14.607  1.8576 -0.6346 -1.5866
  987TIP3   OH224375   5.515   4.766   0.075 -0.2998  0.2203 -0.4181
  987TIP3    H124376   5.477   4.689   0.032 -0.7148  0.8652 -1.2196
  987TIP3    H224377   5.440   4.815   0.108  0.0145 -0.2332  1.0166
  988TIP3   OH224378   5.870   5.680   1.089 -0.2595  0.1714  0.2744
  988TIP3    H124379   5.823   5.704   1.168 -0.6304  0.0978  0.0751
  988TIP3    H224380   5.806   5.633   1.036  0.8358 -2.5551  1.2665
  989TIP3   OH224381   4.013   4.357   6.479  0.3371  0.3581 -0.2287
  989TIP3    H124382   4.071   4.433   6.487  0.1964  0.4490 -0.0468
  989TIP3    H224383   3.983   4.359   6.388  0.4251  0.4547 -0.2564
  990TIP3   OH224384   4.440   4.769   0.077  0.0655 -0.3854 -0.2553
  990TIP3    H124385   4.479   4.844   0.121  2.9023 -0.9984 -1.6149
  990TIP3    H224386   4.347   4.775   0.097  0.5033  2.4698  1.1297
  991TIP3   OH224387   2.581   0.039   2.178 -0.0355 -0.3026  0.2892
  991TIP3    H124388   2.675   0.038   2.158 -0.2693  1.4044 -1.0115
  991TIP3    H224389   2.555   0.130   2.165 -2.5322 -1.3263 -2.5834
  992TIP3   OH224390   4.697   2.441   4.786  0.2366 -0.8165  0.5768
  992TIP3    H124391   4.611   2.473   4.758 -0.2362 -2.8584 -0.3898
  992TIP3    H224392   4.682   2.400   4.871  0.2132 -1.3777  0.3015
  993TIP3   OH224393   3.670   1.465  15.181 -0.4909  0.0645  0.0603
  993TIP3    H124394   3.715   1.431  15.258  1.1762 -0.5201 -1.1369
  993TIP3    H224395   3.626   1.389  15.143 -1.2040  0.3270  0.3386
  994TIP3   OH224396   6.253   3.133  16.540 -0.4306  0.0021  0.0430
  994TIP3    H124397   6.265   3.059  16.481  0.4651 -0.3677  0.6712
  994TIP3    H224398   6.183   3.185  16.501 -0.8093 -0.9854 -0.5851
  995TIP3   OH224399   6.238   0.108   2.028 -0.4412  0.3492  0.6605
  995TIP3    H124400   6.187   0.189   2.030 -0.1381  0.6246 -1.5971
  995TIP3    H224401   6.301   0.118   2.099 -0.8013  1.8343  0.7866
  996TIP3   OH224402   0.583   4.777  14.549 -0.3718  0.2171  0.5424
  996TIP3    H124403   0.608   4.869  14.539 -0.2323  0.3475  1.9687
  996TIP3    H224404   0.488   4.779  14.561 -0.5019  0.0868 -0.4348
  997TIP3   OH224405   3.235   2.121  11.903 -0.7522  0.1363  0.3013
  997TIP3    H124406   3.231   2.207  11.863 -0.1232 -0.6859 -1.5784
  997TIP3    H224407   3.232   2.060  11.829  1.5550 -1.3950  1.4237
  998TIP3   OH224408   6.339   4.021   4.749  0.1712 -0.4653  0.0490
  998TIP3    H124409   6.428   3.987   4.742  0.8327  0.9092  1.3547
  998TIP3    H224410   6.322   4.025   4.844 -0.5867  0.9484 -0.1288
  999TIP3   OH224411   3.056   5.482  11.791 -0.4302  0.6511  0.4905
  999TIP3    H124412   3.041   5.573  11.819 -1.0613  0.6275  0.2205
  999TIP3    H224413   2.978   5.459  11.741 -0.4014 -0.1416  0.8081
 1000TIP3   OH224414   2.602   1.708   6.028 -0.6489  0.3901  0.3535
 1000TIP3    H124415   2.559   1.744   6.105 -0.6272  0.8020  0.1734
 1000TIP3    H224416   2.690   1.685   6.059 -1.4555 -1.8054  1.0883
 1001TIP3   OH224417   1.728   2.913   2.839  0.2955  0.4591  0.3858
 1001TIP3    H124418   1.761   2.984   2.893 -2.0384  1.5611  0.3965
 1001TIP3    H224419   1.754   2.833   2.886  0.9246  1.3435  1.5658
 1002TIP3   OH224420   2.581   3.251  14.605  0.3265  0.2801  0.0134
 1002TIP3    H124421   2.672   3.238  14.632  0.4010  0.9070  0.0597
 1002TIP3    H224422   2.539   3.294  14.680  0.1247  0.4965 -0.2247
 1003TIP3   OH224423   2.772   3.521   3.120  0.4677 -0.1970  0.5490
 1003TIP3    H124424   2.858   3.529   3.163  0.5732  1.3448  0.0757
 1003TIP3    H224425   2.784   3.451   3.057  1.0971 -0.6637  1.1678
 1004TIP3   OH224426   4.768   0.549   5.339  0.7759 -0.8784  0.1159
 1004TIP3    H124427   4.679   0.585   5.346  0.6932 -1.2783  1.3011
 1004TIP3    H224428   4.808   0.596   5.267  0.7105  1.6989  1.6989
 1005TIP3   OH224429   2.446   5.971   5.295  0.2899 -0.2831  0.3460
 1005TIP3    H124430   2.427   5.968   5.201 -0.4884 -1.7164  0.5264
 1005TIP3    H224431   2.521   5.912   5.307 -0.0036 -0.5963  0.6939
 1006TIP3   OH224432   1.366   0.502   5.386  0.0745 -0.2004 -0.2622
 1006TIP3    H124433   1.313   0.449   5.446 -0.3660  0.5766  0.0434
 1006TIP3    H224434   1.408   0.438   5.329 -2.1676 -0.7828 -1.3115
 1007TIP3   OH224435   3.920   6.219   3.434  0.2266  0.4605 -0.3042
 1007TIP3    H124436   3.989   6.257   3.488  0.2038 -2.1600  1.6468
 1007TIP3    H224437   3.884   6.293   3.386  2.6260  2.2927  0.5998
 1008TIP3   OH224438   3.488   5.769  13.654 -0.3688 -0.9669  0.1045
 1008TIP3    H124439   3.476   5.684  13.612  1.1822 -1.4800  0.6634
 1008TIP3    H224440   3.532   5.823  13.588 -0.7327 -0.7986 -0.0053
 1009TIP3   OH224441   2.613   5.706   1.306 -0.2309  0.3630 -0.2244
 1009TIP3    H124442   2.702   5.708   1.340  0.1504 -1.3505 -1.0861
 1009TIP3    H224443   2.573   5.629   1.346 -0.4937 -0.3632 -1.8528
 1010TIP3   OH224444   5.031   1.287   1.114  0.6124  0.2793  0.3403
 1010TIP3    H124445   4.958   1.307   1.056  0.7187  0.0712  0.1356
 1010TIP3    H224446   5.101   1.256   1.056  1.1763  1.3455  0.4358
 1011TIP3   OH224447   1.876   2.332  16.017 -0.2260  0.0569 -0.1387
 1011TIP3    H124448   1.807   2.393  16.041  0.1270  0.5133 -0.2689
 1011TIP3    H224449   1.889   2.278  16.095 -0.3883  0.2916  0.0517
 1012TIP3   OH224450   3.115   6.571  15.974 -0.5010  0.1345  0.3839
 1012TIP3    H124451   3.068   6.608  16.049 -0.6152 -0.3647  0.5641
 1012TIP3    H224452   3.146   6.646  15.925 -1.3918  0.4738  0.3342
 1013TIP3   OH224453   3.099   3.558   4.537  0.1711  0.0740  0.1014
 1013TIP3    H124454   3.057   3.547   4.622 -0.7586  2.6404  0.0033
 1013TIP3    H224455   3.047   3.505   4.477 -0.4380 -0.0558  0.7497
 1014TIP3   OH224456   2.174   3.047   0.684  0.3696 -0.4555  0.0797
 1014TIP3    H124457   2.110   3.118   0.687 -0.7264 -1.4943  2.2930
 1014TIP3    H224458   2.161   3.007   0.598  0.8731  1.8785 -1.1195
 1015TIP3   OH224459   4.472   3.376  14.770  0.2562  0.4082  0.4786
 1015TIP3    H124460   4.444   3.446  14.829  0.2386  1.9347 -1.3046
 1015TIP3    H224461   4.557   3.405  14.737 -0.1042 -0.0408 -0.8649
 1016TIP3   OH224462   2.092   6.574  15.037 -0.2619  0.3706 -0.3182
 1016TIP3    H124463   2.024   6.604  14.977 -0.0910  0.3982 -0.5000
 1016TIP3    H224464   2.171   6.569  14.983 -0.3948 -0.9048 -0.4176
 1017TIP3   OH224465   4.599   5.265  14.044 -0.4143  0.1065 -0.2516
 1017TIP3    H124466   4.529   5.232  13.988  3.0098 -4.3211 -2.3063
 1017TIP3    H224467   4.638   5.337  13.994 -1.5823  0.5671 -0.4959
 1018TIP3   OH224468   0.078   0.873  12.676  0.7995 -0.4193  0.5327
 1018TIP3    H124469   0.108   0.806  12.737 -0.8770 -1.1924  0.5533
 1018TIP3    H224470   0.042   0.824  12.603 -0.9432  0.4351  0.7855
 1019TIP3   OH224471   4.644   2.284  12.852  0.2820  0.0540 -0.2461
 1019TIP3    H124472   4.596   2.220  12.799  0.3908  0.5232 -0.9279
 1019TIP3    H224473   4.586   2.360  12.856  0.6157  0.3190 -0.3792
 1020TIP3   OH224474   0.447   6.282   5.058 -0.1835 -0.5682 -0.6502
 1020TIP3    H124475   0.429   6.201   5.105 -0.8299 -0.3759 -0.5671
 1020TIP3    H224476   0.543   6.285   5.052 -0.0698 -0.4345  0.9429
 1021TIP3   OH224477   4.440   2.192   0.966  0.2619  0.2670  0.2953
 1021TIP3    H124478   4.524   2.191   1.013  0.5134 -1.5123 -0.1844
 1021TIP3    H224479   4.396   2.111   0.993 -0.6264  0.4096 -0.6841
 1022TIP3   OH224480   6.487   4.090   0.032  0.4003 -0.5143  0.5094
 1022TIP3    H124481   6.542   4.086  -0.046 -0.2354 -3.1789  0.1651
 1022TIP3    H224482   6.549   4.081   0.105  0.6141 -1.7655  0.1786
 1023TIP3   OH224483   5.418   3.593   5.458  0.0658  0.1137 -1.0508
 1023TIP3    H124484   5.406   3.643   5.539 -2.2405 -0.2931 -1.1242
 1023TIP3    H224485   5.431   3.660   5.391 -1.3256  0.5824 -0.8686
 1024TIP3   OH224486   5.495   4.866  11.245 -0.0233 -0.0126  0.0755
 1024TIP3    H124487   5.510   4.934  11.310  1.7038  0.6608 -1.0022
 1024TIP3    H224488   5.436   4.907  11.181 -0.1506 -0.0215  0.1872
 1025TIP3   OH224489   4.639   3.560  15.147 -0.2239  0.0780  0.3039
 1025TIP3    H124490   4.567   3.608  15.186 -1.2309 -1.0158 -0.1838
 1025TIP3    H224491   4.673   3.505  15.217 -1.5953 -1.3830 -0.1492
 1026TIP3   OH224492   0.001   6.004   3.632 -0.2874 -0.3652 -0.3677
 1026TIP3    H124493   0.001   6.058   3.552  0.3873 -0.5910 -0.5228
 1026TIP3    H224494  -0.092   5.996   3.655 -0.4623  0.0265 -0.9101
 1027TIP3   OH224495   3.437   2.061  15.195 -0.3329 -0.2685  0.2945
 1027TIP3    H124496   3.437   2.061  15.099 -0.0470  1.5261  0.2740
 1027TIP3    H224497   3.433   2.153  15.219  0.1583 -0.6714  2.0169
 1028TIP3   OH224498   4.620   3.551   6.332 -0.9493  0.1402 -0.2314
 1028TIP3    H124499   4.641   3.644   6.331 -0.7809  0.1216  0.9186
 1028TIP3    H224500   4.543   3.543   6.275 -1.1786  1.0362 -0.0525
 1029TIP3   OH224501   3.325   0.342  16.934  0.0306  0.0287  0.6313
 1029TIP3    H124502   3.416   0.312  16.940 -0.0397 -0.2269  0.4436
 1029TIP3    H224503   3.277   0.284  16.993 -0.1136 -0.2667  0.2286
 1030TIP3   OH224504   0.987   6.463   3.630 -0.7136  0.4185 -0.6363
 1030TIP3    H124505   0.926   6.488   3.699 -1.5660  0.8490 -1.5374
 1030TIP3    H224506   1.035   6.543   3.609  1.4802 -0.3207  1.3397
 1031TIP3   OH224507   4.911   6.240  11.209 -0.0360  0.2696  0.7258
 1031TIP3    H124508   4.919   6.159  11.259  1.9480 -0.6715 -1.0675
 1031TIP3    H224509   4.877   6.214  11.124  1.6235  1.1367 -0.2414
 1032TIP3   OH224510   5.705   5.956  13.594  0.1013 -0.2752  0.1712
 1032TIP3    H124511   5.610   5.969  13.601 -0.1845 -1.8810 -0.4469
 1032TIP3    H224512   5.726   5.984  13.505 -0.0015 -1.0881 -0.1116
 1033TIP3   OH224513   5.667   4.684   2.193 -0.5785  0.0004  0.1030
 1033TIP3    H124514   5.592   4.639   2.232  0.7597 -1.2139  1.3558
 1033TIP3    H224515   5.707   4.618   2.136  0.4016  0.1738  0.5957
 1034TIP3   OH224516   4.484   2.098   1.705 -0.1307 -0.7080 -0.9805
 1034TIP3    H124517   4.543   2.162   1.666  0.8547 -1.5327 -0.8694
 1034TIP3    H224518   4.542   2.034   1.747 -1.0991 -1.4996 -0.8206
 1035TIP3   OH224519   0.509   2.498   5.097  0.0908 -0.1469  0.9306
 1035TIP3    H124520   0.490   2.502   5.191 -2.4603 -0.0532  0.4559
 1035TIP3    H224521   0.439   2.443   5.061 -0.0078  1.2905 -1.1474
 1036TIP3   OH224522   1.933   5.316   0.322 -0.1386 -0.3811  0.5651
 1036TIP3    H124523   1.941   5.240   0.380  0.2655 -1.1619 -0.4812
 1036TIP3    H224524   1.931   5.278   0.234 -0.7223  0.7805  0.0657
 1037TIP3   OH224525   2.692   5.449  17.006 -0.1630 -0.0156  0.4155
 1037TIP3    H124526   2.636   5.519  16.972 -0.7731 -2.1562 -3.3128
 1037TIP3    H224527   2.631   5.384  17.041 -0.0546 -1.6192 -2.1967
 1038TIP3   OH224528   2.962   4.190  11.485  0.1257  0.2139 -0.4395
 1038TIP3    H124529   2.907   4.264  11.512 -0.5905 -0.3769 -0.2955
 1038TIP3    H224530   3.028   4.184  11.554  0.6930  1.2449 -0.8678
 1039TIP3   OH224531   4.232   1.878   3.161 -0.0374 -0.3483  0.2190
 1039TIP3    H124532   4.224   1.898   3.254  1.7973 -1.2084  0.5921
 1039TIP3    H224533   4.280   1.795   3.159 -1.6604 -1.2578 -1.4519
 1040TIP3   OH224534   4.962   5.000  12.250 -0.4750  0.1551  0.4661
 1040TIP3    H124535   4.918   4.918  12.228  0.9735 -0.5980  0.2841
 1040TIP3    H224536   4.895   5.053  12.292 -2.0158 -0.2735 -1.4003
 1041TIP3   OH224537   3.513   5.077  14.486  0.3901  0.0226 -0.9224
 1041TIP3    H124538   3.551   5.024  14.556 -2.1451 -1.2813 -0.5021
 1041TIP3    H224539   3.518   5.021  14.408  1.7059  0.8613 -1.4710
 1042TIP3   OH224540   6.167   6.448  11.076  0.0391  0.1767  0.0332
 1042TIP3    H124541   6.251   6.423  11.039  0.2894  0.4444  0.4249
 1042TIP3    H224542   6.162   6.543  11.064  0.4961  0.3819  1.4674
 1043TIP3   OH224543   1.643   2.106   2.777 -0.1482 -0.1238 -0.4497
 1043TIP3    H124544   1.606   2.191   2.801  0.5556 -0.0289  0.3043
 1043TIP3    H224545   1.618   2.048   2.849  0.7558 -0.1798 -0.1869
 1044TIP3   OH224546   4.529   4.400  15.351  0.2655 -0.2357  0.2369
 1044TIP3    H124547   4.561   4.342  15.282 -1.7338 -0.9458 -0.1399
 1044TIP3    H224548   4.453   4.443  15.312  1.3901  2.2699  0.6912
 1045TIP3   OH224549   5.657   5.498  10.403  0.0355 -0.6083 -0.6222
 1045TIP3    H124550   5.592   5.566  10.381  0.4635  0.0678  0.1621
 1045TIP3    H224551   5.609   5.436  10.458 -0.0282 -0.2645 -0.2871
 1046TIP3   OH224552   0.528   2.491   0.816  0.0430 -0.0550  0.0538
 1046TIP3    H124553   0.554   2.502   0.907 -0.8735 -3.1042  0.7523
 1046TIP3    H224554   0.452   2.548   0.806 -0.4144 -0.3946  1.4821
 1047TIP3   OH224555   2.913   6.659  17.088  0.1322 -0.6399 -0.1102
 1047TIP3    H124556   2.876   6.747  17.086 -1.2541 -1.1996  0.5612
 1047TIP3    H224557   3.001   6.671  17.124  0.6195  0.6823 -1.6704
 1048TIP3   OH224558   4.587   4.026   1.424 -0.3854 -0.5703 -0.0951
 1048TIP3    H124559   4.515   4.062   1.373  0.1678  0.1021 -0.4115
 1048TIP3    H224560   4.660   4.085   1.407  0.7599 -2.2569 -1.2247
 1049TIP3   OH224561   3.598   2.276   2.666  0.2227 -0.3400  0.5683
 1049TIP3    H124562   3.550   2.347   2.624 -0.4896 -1.2685 -0.2127
 1049TIP3    H224563   3.534   2.205   2.673  0.6003 -0.5291  2.3632
 1050TIP3   OH224564   0.594   3.982  12.903 -0.3907  0.4832 -0.0536
 1050TIP3    H124565   0.582   3.944  12.815  0.6170 -0.1277  0.0662
 1050TIP3    H224566   0.627   4.070  12.887  2.0471 -0.4406 -0.2672
 1051TIP3   OH224567   5.222   2.852  17.059 -0.2128 -0.4497 -0.1674
 1051TIP3    H124568   5.264   2.767  17.054 -1.7562 -1.1959 -1.1493
 1051TIP3    H224569   5.152   2.841  17.123 -0.2263  0.1720 -0.0676
 1052TIP3   OH224570   3.928   5.234   5.305 -0.2716  0.5399 -0.2097
 1052TIP3    H124571   4.012   5.234   5.350 -0.8724 -1.1828  0.9494
 1052TIP3    H224572   3.946   5.275   5.220  1.6119  0.6482  0.2267
 1053TIP3   OH224573   5.020   4.927  11.106 -0.0236  0.5976  0.0118
 1053TIP3    H124574   4.971   4.939  11.025 -1.3316  0.6581  0.8017
 1053TIP3    H224575   4.969   4.863  11.156  0.7825  0.5408  0.7748
 1054TIP3   OH224576   6.710   0.970  13.874 -0.1563  0.0210 -0.1725
 1054TIP3    H124577   6.793   0.922  13.866 -0.0193 -0.0566  1.6119
 1054TIP3    H224578   6.665   0.953  13.791  1.2895 -0.5315 -0.8715
 1055TIP3   OH224579   6.003   5.334  16.963 -0.4237  0.0028 -0.5787
 1055TIP3    H124580   5.924   5.385  16.945 -0.5915  0.1688  0.6042
 1055TIP3    H224581   6.015   5.280  16.885 -1.0802  0.7778 -1.2275
 1056TIP3   OH224582   6.643   1.582  10.522  0.6978 -0.4251  0.3483
 1056TIP3    H124583   6.734   1.588  10.549  0.3637  0.0241  1.3694
 1056TIP3    H224584   6.606   1.668  10.540 -0.1083 -0.8116  0.5727
 1057TIP3   OH224585   4.888   2.732  16.788 -0.4319  0.4666  0.0013
 1057TIP3    H124586   4.871   2.783  16.709  0.6018  0.7690 -0.0311
 1057TIP3    H224587   4.896   2.796  16.858 -0.4003  0.2599  0.1902
 1058TIP3   OH224588   1.359   0.797  16.260 -0.2816 -0.0048 -0.0182
 1058TIP3    H124589   1.320   0.733  16.320 -1.9829  1.7172  0.7341
 1058TIP3    H224590   1.310   0.787  16.178 -0.8553  0.6462  0.2438
 1059TIP3   OH224591   2.286   3.195  15.212 -0.1080  0.3320  0.1465
 1059TIP3    H124592   2.196   3.212  15.238  0.2819  2.7112  0.0837
 1059TIP3    H224593   2.284   3.193  15.116 -0.0501  0.7365  0.1346
 1060TIP3   OH224594   4.858   0.461   0.100  0.0501 -0.1172  0.3011
 1060TIP3    H124595   4.866   0.538   0.043 -0.9280 -0.8393 -0.8448
 1060TIP3    H224596   4.941   0.415   0.091  0.3255  0.3698  0.3427
 1061TIP3   OH224597   2.436   4.361   3.121  0.1144  0.7630 -0.3075
 1061TIP3    H124598   2.415   4.317   3.039 -1.3904 -0.1892  0.5757
 1061TIP3    H224599   2.450   4.452   3.096  2.3560 -0.0132 -2.0139
 1062TIP3   OH224600   1.397   5.044   0.545 -0.1164  0.1453  0.0438
 1062TIP3    H124601   1.401   5.140   0.541  0.1387  0.2506  2.3009
 1062TIP3    H224602   1.353   5.025   0.628 -0.3217 -1.6933 -0.4723
 1063TIP3   OH224603   1.178   6.765   4.430  0.4164 -0.0022  0.3646
 1063TIP3    H124604   1.264   6.766   4.470 -0.0007  1.3381  1.2853
 1063TIP3    H224605   1.176   6.844   4.376  0.8662 -1.6367 -2.1188
 1064TIP3   OH224606   5.119   4.737   6.213  0.1100  0.3774 -0.0037
 1064TIP3    H124607   5.173   4.674   6.262 -2.0387 -1.4905  0.0398
 1064TIP3    H224608   5.144   4.724   6.122  0.5738  0.3735  0.1198
 1065TIP3   OH224609   6.562   1.568   1.264 -0.9684  0.1383  0.6019
 1065TIP3    H124610   6.600   1.580   1.178 -0.1645 -0.0827  0.9215
 1065TIP3    H224611   6.618   1.618   1.323 -2.2615  1.3613  0.8270
 1066TIP3   OH224612   3.625   3.015  13.008 -0.2408 -0.0857 -0.2197
 1066TIP3    H124613   3.622   2.990  13.101 -1.5642  0.0043 -0.2228
 1066TIP3    H224614   3.713   3.048  12.995  0.0775 -0.4404  0.9258
 1067TIP3   OH224615   2.955   4.589   1.306  0.0330  0.2948 -0.6516
 1067TIP3    H124616   2.897   4.646   1.357  0.2029 -0.9383  0.9961
 1067TIP3    H224617   3.022   4.561   1.370  0.1756 -1.4032 -1.5242
 1068TIP3   OH224618   5.079   1.165   0.544 -0.2870  0.4394  0.2729
 1068TIP3    H124619   5.099   1.161   0.451 -0.7419  0.6842  0.1619
 1068TIP3    H224620   4.990   1.131   0.551  0.0115 -0.2671  0.7109
 1069TIP3   OH224621   2.564   0.729  13.166 -0.0304 -0.3553 -0.3392
 1069TIP3    H124622   2.476   0.756  13.142 -0.1093  0.2485  0.6133
 1069TIP3    H224623   2.611   0.811  13.182 -0.0632 -0.7446  1.8412
 1070TIP3   OH224624   4.175   2.440   6.191  0.3694  0.1144 -0.2322
 1070TIP3    H124625   4.248   2.499   6.214  0.7674 -0.9276  1.2244
 1070TIP3    H224626   4.124   2.433   6.272 -0.9617  0.2537 -1.0455
 1071TIP3   OH224627   4.285   6.396  14.024  0.4136 -0.1319  0.1707
 1071TIP3    H124628   4.316   6.312  13.990 -1.0428 -0.3358 -0.6998
 1071TIP3    H224629   4.236   6.373  14.103  2.8035  0.2305  1.7958
 1072TIP3   OH224630   1.006   3.382  13.028 -0.6318 -0.1267 -0.0266
 1072TIP3    H124631   0.932   3.363  13.086 -0.4702 -2.9429 -0.6404
 1072TIP3    H224632   0.985   3.466  12.988 -2.3664  0.2296  1.5846
 1073TIP3   OH224633   0.739   0.071  15.640 -0.3399 -0.3005  0.3263
 1073TIP3    H124634   0.755   0.029  15.725  0.8537 -0.1156  0.2049
 1073TIP3    H224635   0.739   0.165  15.659  0.2783 -0.2454  0.0711
 1074TIP3   OH224636   2.065   2.196   3.585 -0.8293 -0.0114  0.0421
 1074TIP3    H124637   2.089   2.245   3.507 -0.8745  0.4825  0.3390
 1074TIP3    H224638   1.970   2.187   3.580 -0.7838 -0.3993 -0.2036
 1075TIP3   OH224639   2.768   5.398  11.955 -0.1550  0.3307  0.0030
 1075TIP3    H124640   2.764   5.404  11.860 -1.9275 -0.0322  0.0390
 1075TIP3    H224641   2.710   5.467  11.986 -0.9219 -0.6398  0.7778
 1076TIP3   OH224642   6.735   4.810  13.593  0.0764  0.3769 -0.6394
 1076TIP3    H124643   6.650   4.849  13.613  1.0502  2.9627 -1.4575
 1076TIP3    H224644   6.796   4.852  13.654  1.4171  1.3370 -2.6116
 1077TIP3   OH224645   4.729   3.593  10.804 -0.6072  0.4790  0.1373
 1077TIP3    H124646   4.688   3.657  10.862  2.0736  0.3550  2.2549
 1077TIP3    H224647   4.786   3.645  10.747 -0.2048  0.2198  0.2995
 1078TIP3   OH224648   6.460   6.600   2.295  0.0856  0.5582  0.1795
 1078TIP3    H124649   6.528   6.563   2.352 -1.2652 -1.4800  0.5043
 1078TIP3    H224650   6.503   6.612   2.210  0.8171 -0.8059  0.3520
 1079TIP3   OH224651   4.019   5.733   3.487 -0.0141 -0.4774  0.0187
 1079TIP3    H124652   3.975   5.796   3.544 -0.3387 -0.4832 -0.2206
 1079TIP3    H224653   4.107   5.768   3.474  0.4397 -1.0679  1.4659
 1080TIP3   OH224654   0.483   0.237  13.360 -0.0754 -0.4427 -0.1142
 1080TIP3    H124655   0.463   0.261  13.450  0.8575 -0.8561  0.2026
 1080TIP3    H224656   0.510   0.146  13.364  3.5746  0.5614 -0.2622
 1081TIP3   OH224657   2.413   0.060  16.699 -1.0889 -0.0943 -1.2648
 1081TIP3    H124658   2.349   0.037  16.767 -0.7673  1.6226 -0.3317
 1081TIP3    H224659   2.387   0.148  16.672  0.5086  0.3746 -1.3209
 1082TIP3   OH224660   3.353   0.154  14.069  0.1606  0.2018 -0.5301
 1082TIP3    H124661   3.363   0.204  13.988 -0.0143  1.2600  0.0986
 1082TIP3    H224662   3.276   0.191  14.111  0.4039 -0.1690  0.2525
 1083TIP3   OH224663   4.591   1.947  10.222 -0.2400 -0.8649 -0.3560
 1083TIP3    H124664   4.597   2.018  10.287 -0.7600  0.3590 -1.6279
 1083TIP3    H224665   4.551   1.875  10.270 -0.1433 -0.1528  0.8320
 1084TIP3   OH224666   1.293   5.565   3.475  0.3355  0.2845 -0.2291
 1084TIP3    H124667   1.330   5.525   3.554 -0.4602 -0.5360 -0.2598
 1084TIP3    H224668   1.212   5.606   3.505  1.4055  2.3400 -0.1007
 1085TIP3   OH224669   1.720   5.702  13.675  0.0216 -0.2295  0.1065
 1085TIP3    H124670   1.628   5.682  13.690 -0.1608 -0.1355 -0.8380
 1085TIP3    H224671   1.767   5.626  13.708 -0.3990 -0.3371  0.4606
 1086TIP3   OH224672   1.862   5.691   2.112 -0.2798 -0.0827  0.3292
 1086TIP3    H124673   1.823   5.765   2.158 -1.4682 -1.1500  1.0558
 1086TIP3    H224674   1.957   5.704   2.122 -0.4563  1.7640 -0.2461
 1087TIP3   OH224675   4.081   0.515   5.083 -0.2250 -0.1774 -0.1445
 1087TIP3    H124676   4.114   0.447   5.142 -1.2412 -0.3118  0.2847
 1087TIP3    H224677   4.156   0.537   5.027  0.1080 -1.6433 -0.2950
 1088TIP3   OH224678   0.273   6.687   3.466 -0.1558  0.3530 -0.3250
 1088TIP3    H124679   0.212   6.710   3.536 -0.2000 -0.2212 -0.1722
 1088TIP3    H224680   0.292   6.770   3.422  2.5864  1.3345  2.5304
 1089TIP3   OH224681   6.779   3.856   6.103  0.5386 -0.2154  0.9698
 1089TIP3    H124682   6.821   3.832   6.186 -0.6167 -1.9321  1.0900
 1089TIP3    H224683   6.689   3.825   6.113  0.2526  0.0569 -0.7200
 1090TIP3   OH224684   3.986   4.339  16.046  0.3702  0.6302  0.0454
 1090TIP3    H124685   3.946   4.330  16.133  0.8911 -1.0268  0.1296
 1090TIP3    H224686   3.912   4.334  15.985  0.2730 -1.0440  0.2685
 1091TIP3   OH224687   6.512   1.447   6.107  0.1303  0.6370  0.1932
 1091TIP3    H124688   6.593   1.416   6.065 -0.2377 -2.0195  1.3040
 1091TIP3    H224689   6.527   1.540   6.121  3.1836  0.1490  0.6905
 1092TIP3   OH224690   4.975   3.919  11.992 -0.1088 -0.2633 -0.0851
 1092TIP3    H124691   4.929   3.878  11.919 -1.7326  0.0023  0.7756
 1092TIP3    H224692   5.039   3.977  11.950 -0.9090 -0.2348 -1.2981
 1093TIP3   OH224693   2.497   3.675  14.178 -0.0208 -0.4330  0.4815
 1093TIP3    H124694   2.593   3.680  14.179  0.0337  0.0543 -2.1867
 1093TIP3    H224695   2.468   3.766  14.177 -0.5042 -0.5823  0.7180
 1094TIP3   OH224696   0.099   0.310  12.423  0.0384 -0.1120  0.4873
 1094TIP3    H124697   0.023   0.262  12.389  0.2319 -0.7285  0.8950
 1094TIP3    H224698   0.079   0.320  12.517 -0.1886  0.9761  0.3248
 1095TIP3   OH224699   6.729   5.585  12.526 -0.4534 -0.9633  0.1041
 1095TIP3    H124700   6.772   5.652  12.473  0.2826 -0.6372  1.0984
 1095TIP3    H224701   6.794   5.516  12.535  0.1942 -0.1154  2.2915
 1096TIP3   OH224702   3.435   2.265  10.524 -0.5027 -0.7714  0.1931
 1096TIP3    H124703   3.511   2.252  10.467 -0.6316  0.5100 -0.2761
 1096TIP3    H224704   3.445   2.198  10.592  1.9677  0.4625  1.1089
 1097TIP3   OH224705   4.261   3.378   3.122 -0.4165 -0.5913 -0.0588
 1097TIP3    H124706   4.222   3.336   3.199 -1.0238 -1.8632 -1.0468
 1097TIP3    H224707   4.190   3.382   3.058  0.3373 -0.4003 -0.8957
 1098TIP3   OH224708   1.490   5.620  12.217 -0.1560  0.1501  0.3361
 1098TIP3    H124709   1.536   5.628  12.133 -0.7766 -0.8355 -0.0966
 1098TIP3    H224710   1.559   5.634  12.282  0.6371 -0.6647 -0.3175
 1099TIP3   OH224711   0.442   3.393  12.753 -0.4017 -0.3283  0.1849
 1099TIP3    H124712   0.483   3.331  12.693 -0.7766 -2.0017  1.6414
 1099TIP3    H224713   0.514   3.426  12.807 -0.7164 -2.2142  1.8021
 1100TIP3   OH224714   4.215   5.888   1.024 -0.4423 -0.2333  0.2064
 1100TIP3    H124715   4.238   5.833   0.949 -2.1647  0.8902 -1.1697
 1100TIP3    H224716   4.232   5.977   0.994  2.0114  0.0812  2.3087
 1101TIP3   OH224717   0.122   3.839   2.278 -0.4147  0.4641  0.4096
 1101TIP3    H124718   0.180   3.905   2.240  1.8763 -1.1066  1.0440
 1101TIP3    H224719   0.061   3.888   2.332  0.2579  2.1827 -0.3759
 1102TIP3   OH224720   3.385   1.297  15.800  0.5561 -0.3467  0.2168
 1102TIP3    H124721   3.346   1.274  15.884  0.9171  1.1364  0.8088
 1102TIP3    H224722   3.348   1.383  15.779  1.1794 -0.2910 -0.6893
 1103TIP3   OH224723   0.526   3.469   3.730 -0.1218  0.1210  0.9316
 1103TIP3    H124724   0.538   3.387   3.778 -0.9180 -0.7688 -0.3469
 1103TIP3    H224725   0.590   3.466   3.659 -0.7652  0.1667  0.3353
 1104TIP3   OH224726   0.607   4.864  12.515 -0.2454  0.0642  0.1736
 1104TIP3    H124727   0.600   4.770  12.531  0.9724 -0.1224 -0.3075
 1104TIP3    H224728   0.531   4.885  12.461  1.1180 -1.2679 -2.3670
 1105TIP3   OH224729   1.061   3.866   1.405 -0.0329  0.0766 -0.0530
 1105TIP3    H124730   0.987   3.843   1.348 -1.5347  0.1193  1.8273
 1105TIP3    H224731   1.138   3.836   1.357 -1.1151  1.4197 -2.7730
 1106TIP3   OH224732   1.669   0.972  16.474 -0.6653  0.6387 -0.9968
 1106TIP3    H124733   1.756   1.002  16.448 -0.1728  1.0448  1.0692
 1106TIP3    H224734   1.684   0.890  16.520 -1.2108  1.5434  0.8222
 1107TIP3   OH224735   2.626   1.231   1.852 -0.7592  0.2514 -0.8445
 1107TIP3    H124736   2.538   1.247   1.885  0.1424  1.3642  1.1779
 1107TIP3    H224737   2.623   1.144   1.814 -2.4042 -0.2639  0.4234
 1108TIP3   OH224738   3.078   3.942  11.565  0.1559 -0.8327 -0.1585
 1108TIP3    H124739   3.154   3.992  11.535  0.4663 -1.5881 -0.6192
 1108TIP3    H224740   3.062   3.975  11.653 -0.7982  1.4418 -1.1406
 1109TIP3   OH224741   1.005   1.067   4.429 -0.6422 -0.2796 -0.1834
 1109TIP3    H124742   1.046   1.039   4.348  2.5448  0.1496  1.2212
 1109TIP3    H224743   1.061   1.031   4.498 -3.5329 -1.0391  1.8686
 1110TIP3   OH224744   5.807   4.071  16.175 -0.1758  0.4517 -0.4169
 1110TIP3    H124745   5.749   4.061  16.099  0.8279 -1.7329 -0.9330
 1110TIP3    H224746   5.753   4.044  16.250 -0.4437  0.3544 -0.6411
 1111TIP3   OH224747   2.411   5.810  13.525 -0.5052  0.0073 -0.3992
 1111TIP3    H124748   2.394   5.716  13.510 -0.6720 -0.2533  1.3569
 1111TIP3    H224749   2.378   5.826  13.613 -1.5199  1.9952 -1.1141
 1112TIP3   OH224750   0.652   2.923  15.443 -0.1550  0.1955  0.1777
 1112TIP3    H124751   0.697   3.005  15.464  1.2573 -0.0816 -1.5907
 1112TIP3    H224752   0.658   2.871  15.523  0.6267  1.0915  0.7110
 1113TIP3   OH224753   1.040   5.618   1.003 -0.7844  0.4113 -0.1974
 1113TIP3    H124754   1.133   5.638   1.018 -0.3730 -3.1499  2.5053
 1113TIP3    H224755   0.993   5.691   1.043  0.7838  1.6727 -0.5864
 1114TIP3   OH224756   1.833   1.562  11.745  0.1141 -0.6451  0.0232
 1114TIP3    H124757   1.851   1.543  11.653  0.3870 -0.1269 -0.0340
 1114TIP3    H224758   1.906   1.617  11.773  0.8366 -2.0712  0.9888
 1115TIP3   OH224759   2.172   3.433  11.365 -0.2491 -0.2170 -0.0037
 1115TIP3    H124760   2.133   3.417  11.279 -0.8605  1.0552  0.0355
 1115TIP3    H224761   2.238   3.500  11.349 -0.5750  0.2365  0.5801
 1116TIP3   OH224762   4.168   3.340   4.205  0.1845  0.1349  0.0291
 1116TIP3    H124763   4.224   3.412   4.175 -1.5109  0.3289 -2.9174
 1116TIP3    H224764   4.196   3.265   4.153 -0.0508 -0.6138  0.9735
 1117TIP3   OH224765   5.871   0.656   1.210 -0.2375  0.3620  0.5759
 1117TIP3    H124766   5.847   0.665   1.118 -1.3561  3.6008  1.1026
 1117TIP3    H224767   5.964   0.681   1.212 -0.2681  0.4972  0.3669
 1118TIP3   OH224768   6.372   3.017   2.663  0.7335  0.0117 -0.3179
 1118TIP3    H124769   6.446   2.971   2.624  0.6800  0.4007 -0.8887
 1118TIP3    H224770   6.307   3.022   2.593  0.3735  0.1304  0.0201
 1119TIP3   OH224771   4.483   0.006   0.489  0.3605  0.5157 -0.0730
 1119TIP3    H124772   4.506   0.046   0.573 -2.1494  0.4620  0.6797
 1119TIP3    H224773   4.449  -0.080   0.511  0.5631  0.1238 -1.2323
 1120TIP3   OH224774   0.892   3.300  14.325  0.0812  0.4846 -0.2303
 1120TIP3    H124775   0.796   3.305  14.332  0.2485  1.8410  1.2239
 1120TIP3    H224776   0.914   3.362  14.255 -0.1459 -0.4563 -1.1638
 1121TIP3   OH224777   5.092   1.160   0.276  0.4165  0.2950  0.7218
 1121TIP3    H124778   5.047   1.242   0.253  0.1999  0.0953  0.4260
 1121TIP3    H224779   5.059   1.096   0.212 -0.6672 -0.4234  1.9630
 1122TIP3   OH224780   6.161   0.994   4.963 -0.0827  0.5877 -0.1816
 1122TIP3    H124781   6.167   0.925   5.029  0.9372  1.5401  0.7339
 1122TIP3    H224782   6.128   1.070   5.011 -3.2859  0.1810 -1.6275
 1123TIP3   OH224783   5.711   3.014   2.056 -0.3913 -0.1056 -0.8746
 1123TIP3    H124784   5.671   3.100   2.067 -0.0188  0.2423 -2.1762
 1123TIP3    H224785   5.795   3.020   2.102 -0.0582  0.4605 -1.5449
 1124TIP3   OH224786   3.728   0.666  16.698  0.8415 -1.1707  0.1801
 1124TIP3    H124787   3.815   0.706  16.688 -0.7048  2.0346 -0.9541
 1124TIP3    H224788   3.714   0.665  16.793  1.3129  0.1094  0.2749
 1125TIP3   OH224789   3.547   4.807  12.814 -0.0493 -0.1461  0.4113
 1125TIP3    H124790   3.622   4.812  12.755  1.0511  0.0077  1.7904
 1125TIP3    H224791   3.477   4.769  12.761  1.4207 -1.6674 -0.5005
 1126TIP3   OH224792   0.028   4.465  11.182 -0.3227 -0.3219  0.1048
 1126TIP3    H124793   0.038   4.391  11.122 -1.2073  1.4703 -2.3542
 1126TIP3    H224794  -0.053   4.446  11.230  0.3508 -1.7347  0.7167
 1127TIP3   OH224795   2.652   0.038   6.323  0.8516  0.5214  0.1990
 1127TIP3    H124796   2.562   0.046   6.292  0.3373 -0.4586  1.3634
 1127TIP3    H224797   2.684  -0.043   6.283 -0.3738 -1.6664  3.4193
 1128TIP3   OH224798   2.355   6.342  12.997  0.0060 -0.1265 -0.0064
 1128TIP3    H124799   2.400   6.270  13.040  1.1029  1.0652  0.8776
 1128TIP3    H224800   2.378   6.333  12.904 -2.1836 -2.5592 -0.3789
 1129TIP3   OH224801   2.224   3.180  10.895 -0.1201  0.2826  0.1120
 1129TIP3    H124802   2.246   3.233  10.971 -0.4679  2.0898 -1.0170
 1129TIP3    H224803   2.203   3.093  10.931  0.9682  0.7512  1.9294
 1130TIP3   OH224804   2.938   2.422  14.775 -0.0758 -0.2967  0.0794
 1130TIP3    H124805   2.891   2.422  14.858  1.3078 -0.5804  0.8776
 1130TIP3    H224806   2.890   2.484  14.720 -0.4022  0.6578  1.4222
 1131TIP3   OH224807   0.935   4.447   3.545  1.3350  1.0073 -0.1658
 1131TIP3    H124808   0.844   4.442   3.515  1.1506  1.5861  0.2859
 1131TIP3    H224809   0.982   4.489   3.473  1.3106  0.3957 -0.5400
 1132TIP3   OH224810   0.555   1.939  11.530  0.1184  0.0643 -0.1037
 1132TIP3    H124811   0.618   1.915  11.462 -0.2093  0.4384 -0.5446
 1132TIP3    H224812   0.490   1.993  11.484  0.6322  1.4569  0.7766
 1133TIP3   OH224813   6.194   4.640   6.092  0.3994  0.5053  0.2627
 1133TIP3    H124814   6.117   4.693   6.111  0.0595  0.3185 -0.5748
 1133TIP3    H224815   6.158   4.555   6.065  0.9388 -0.7320  3.1585
 1134TIP3   OH224816   4.334   1.491   5.345 -0.6160 -0.3943  0.0071
 1134TIP3    H124817   4.428   1.505   5.333 -0.9155 -0.4079 -2.7727
 1134TIP3    H224818   4.306   1.562   5.403  0.6071  1.3858 -1.5080
 1135TIP3   OH224819   5.102   6.110   4.047  0.6026  0.4240  0.6417
 1135TIP3    H124820   5.036   6.171   4.080  1.2104  0.6993  1.3590
 1135TIP3    H224821   5.070   6.085   3.960 -0.7177  0.1483  1.1885
 1136TIP3   OH224822   0.612   6.634   0.171 -0.0026  0.1427  0.4098
 1136TIP3    H124823   0.554   6.706   0.146  0.2842  0.3475  0.3324
 1136TIP3    H224824   0.684   6.638   0.108  0.1463 -0.0467  0.5671
 1137TIP3   OH224825   0.493   2.941   1.438 -0.2270  0.3932 -0.7887
 1137TIP3    H124826   0.494   2.857   1.484  1.3878  0.8195 -0.0151
 1137TIP3    H224827   0.402   2.970   1.442 -0.6129 -0.8899 -0.2544
 1138TIP3   OH224828   3.520   5.257   4.880 -0.8308  0.9720 -0.4008
 1138TIP3    H124829   3.605   5.300   4.884 -0.0320 -0.5882 -0.2465
 1138TIP3    H224830   3.471   5.306   4.814  0.1520  1.9192 -0.4385
 1139TIP3   OH224831   0.575   6.194  16.852  0.7751 -0.4083  0.3366
 1139TIP3    H124832   0.591   6.269  16.795  0.9667 -0.2311  0.6272
 1139TIP3    H224833   0.657   6.145  16.852  1.1509  0.2107  1.3878
 1140TIP3   OH224834   0.642   6.413   3.628 -0.8860 -0.2044  0.4064
 1140TIP3    H124835   0.605   6.329   3.600  2.9222 -1.8404 -0.1193
 1140TIP3    H224836   0.702   6.389   3.700 -0.7933  2.2624  1.1897
 1141TIP3   OH224837   6.739   2.544  14.956 -0.2613  0.1758 -0.4714
 1141TIP3    H124838   6.705   2.507  14.874  0.2537  0.8474 -0.9958
 1141TIP3    H224839   6.804   2.609  14.928 -0.2950  0.6229  0.4633
 1142TIP3   OH224840   2.299   1.757  16.221  0.2997  0.0470  0.0904
 1142TIP3    H124841   2.288   1.797  16.308 -0.1668  0.2399 -0.0582
 1142TIP3    H224842   2.210   1.751  16.186  0.2177 -2.0751  0.5400
 1143TIP3   OH224843   2.196   5.141   0.334 -0.3461  0.1391 -0.2751
 1143TIP3    H124844   2.117   5.093   0.358  1.3760 -2.7299 -0.1541
 1143TIP3    H224845   2.179   5.231   0.363 -3.8730 -0.2098 -1.0188
 1144TIP3   OH224846   1.657   1.950  12.847  0.0743 -0.3717  0.2483
 1144TIP3    H124847   1.741   1.914  12.875  0.8491  1.3371  0.1777
 1144TIP3    H224848   1.666   1.958  12.752  0.5193  1.4688  0.4258
 1145TIP3   OH224849   5.182   3.462   5.485  0.3265  0.0913 -0.9401
 1145TIP3    H124850   5.118   3.529   5.460  0.6341  0.7160 -0.0920
 1145TIP3    H224851   5.264   3.493   5.449  0.5495  0.4002 -0.1884
 1146TIP3   OH224852   0.908   1.726   1.556 -0.4267 -0.6417 -0.5550
 1146TIP3    H124853   0.975   1.685   1.611  1.9255  2.4760 -0.9847
 1146TIP3    H224854   0.835   1.744   1.615  1.5299  1.4160  1.2937
 1147TIP3   OH224855   3.440   1.836   0.618 -0.7145 -0.1234  0.1789
 1147TIP3    H124856   3.458   1.930   0.628 -0.5133 -0.2490  1.0769
 1147TIP3    H224857   3.349   1.826   0.646 -1.0581 -0.0425 -0.8984
 1148TIP3   OH224858   3.812   1.983   6.434 -0.0371  0.2005 -0.3261
 1148TIP3    H124859   3.807   1.909   6.373 -1.3081 -0.5596  0.6759
 1148TIP3    H224860   3.738   2.039   6.410  0.4967  0.7833 -0.6147
 1149TIP3   OH224861   0.291   2.499   6.334  0.0956 -0.0039  0.5563
 1149TIP3    H124862   0.274   2.467   6.245 -0.8338 -1.4537  1.2234
 1149TIP3    H224863   0.384   2.517   6.336  0.2581 -0.6701 -0.4981
 1150TIP3   OH224864   0.050   4.444   4.933 -0.3381 -0.2595  0.9133
 1150TIP3    H124865  -0.022   4.490   4.889 -0.4662 -1.7688 -0.5010
 1150TIP3    H224866   0.107   4.514   4.965 -1.0149  0.9131 -0.3926
 1151TIP3   OH224867   0.054   1.425  14.309  0.1320  0.3788 -0.1200
 1151TIP3    H124868   0.003   1.505  14.294 -2.7008 -1.3916 -0.3895
 1151TIP3    H224869   0.104   1.443  14.388 -0.3237  2.4838 -0.2664
 1152TIP3   OH224870   1.325   5.655   1.086 -0.7698 -1.0104  0.0347
 1152TIP3    H124871   1.368   5.693   1.162 -2.2199  0.8079 -0.0116
 1152TIP3    H224872   1.393   5.604   1.042  0.9671  0.6795  0.7000
 1153TIP3   OH224873   2.917   4.645  13.231 -0.2644  0.3949  0.4287
 1153TIP3    H124874   2.873   4.722  13.269  1.1773  1.3015  0.3013
 1153TIP3    H224875   3.009   4.655  13.256  0.1106 -0.7831 -0.4297
 1154TIP3   OH224876   5.770   4.034   0.323  0.2936 -0.3693 -0.4093
 1154TIP3    H124877   5.841   4.094   0.347 -0.8458  0.8160  0.0476
 1154TIP3    H224878   5.775   3.964   0.389  0.3079  0.3083  0.3119
 1155TIP3   OH224879   1.554   2.966   5.777 -0.1265  0.4827  0.3756
 1155TIP3    H124880   1.636   3.009   5.755  0.4108 -0.6460  0.1651
 1155TIP3    H224881   1.546   2.895   5.714 -0.7541 -0.0456  1.0441
 1156TIP3   OH224882   5.801   4.283  15.961  0.2888  0.2100  0.4233
 1156TIP3    H124883   5.731   4.279  16.025  0.8271 -1.8686  0.9144
 1156TIP3    H224884   5.881   4.296  16.013  0.3301  2.3714 -0.1170
 1157TIP3   OH224885   1.677   6.709   0.249  0.9994  0.4468 -0.0363
 1157TIP3    H124886   1.583   6.724   0.244  1.3060  3.0017  1.0869
 1157TIP3    H224887   1.685   6.621   0.284 -0.9843  0.5770  0.8105
 1158TIP3   OH224888   3.036   2.856   2.448 -0.0498 -0.3875 -0.0369
 1158TIP3    H124889   3.095   2.860   2.373 -0.5103 -3.2421 -0.5860
 1158TIP3    H224890   2.991   2.773   2.440 -3.5446  1.3193  0.8800
 1159TIP3   OH224891   4.897   3.831  16.447  0.3563  0.2716  0.1413
 1159TIP3    H124892   4.808   3.855  16.473 -0.0885  0.4826 -1.5514
 1159TIP3    H224893   4.903   3.854  16.355  2.2954  0.5900  0.3151
 1160TIP3   OH224894   6.315   5.332   3.079  0.4089  0.2514  0.4571
 1160TIP3    H124895   6.410   5.337   3.071  0.3333 -0.0967 -0.7893
 1160TIP3    H224896   6.301   5.268   3.149  1.0931  1.0639  1.3481
 1161TIP3   OH224897   6.593   2.371  12.256  0.6296 -0.2245 -0.2081
 1161TIP3    H124898   6.560   2.356  12.344 -2.1217 -3.4439 -1.6915
 1161TIP3    H224899   6.630   2.287  12.229  3.7533  1.3913 -1.2415
 1162TIP3   OH224900   4.595   2.816   3.641  0.1086 -0.3484 -0.1942
 1162TIP3    H124901   4.660   2.812   3.712  0.4551  0.5673 -0.4552
 1162TIP3    H224902   4.512   2.835   3.685  0.5763  1.6999 -0.1721
 1163TIP3   OH224903   6.131   1.978  12.202 -0.5929  0.1388  0.3477
 1163TIP3    H124904   6.061   1.946  12.259 -1.9649  0.4678 -1.0983
 1163TIP3    H224905   6.170   2.051  12.250 -1.5704  0.2612  0.9731
 1164TIP3   OH224906   6.137   4.259  16.521  0.0392 -0.3198 -0.2330
 1164TIP3    H124907   6.142   4.251  16.617 -2.2615  1.0101  0.0406
 1164TIP3    H224908   6.119   4.170  16.491 -1.3997 -0.3994  0.7819
 1165TIP3   OH224909   3.318   4.778  16.566  0.0987 -0.0946  0.4158
 1165TIP3    H124910   3.394   4.804  16.618  0.2534 -0.1445  0.2106
 1165TIP3    H224911   3.305   4.851  16.505 -0.0187 -0.0853  0.4518
 1166TIP3   OH224912   3.892   0.942   5.659  0.3320 -0.5990  0.1641
 1166TIP3    H124913   3.976   0.935   5.613 -0.2757  0.7059 -1.1804
 1166TIP3    H224914   3.826   0.940   5.589 -0.6506  0.4379  1.0442
 1167TIP3   OH224915   1.821   4.711   0.440 -0.6722 -0.2753 -0.2864
 1167TIP3    H124916   1.795   4.626   0.473 -1.4506  0.0284 -0.0953
 1167TIP3    H224917   1.738   4.754   0.416 -0.2117 -0.0245 -1.4735
 1168TIP3   OH224918   4.685   2.732   1.249  0.2502  0.4014  0.4405
 1168TIP3    H124919   4.655   2.778   1.327 -0.2697  0.7909  0.0109
 1168TIP3    H224920   4.622   2.661   1.237  1.6643 -1.0989  1.7287
 1169TIP3   OH224921   2.057   0.002  17.117 -0.3020 -0.2922 -0.2900
 1169TIP3    H124922   1.962  -0.007  17.127 -0.2051 -1.1066 -0.0022
 1169TIP3    H224923   2.093  -0.063  17.178  0.4047 -1.8639 -2.3335
 1170TIP3   OH224924   0.336   1.111   3.261  0.0193  0.2314  0.5737
 1170TIP3    H124925   0.392   1.118   3.339  0.0574  0.0647  0.5611
 1170TIP3    H224926   0.398   1.095   3.189 -0.2075 -2.0154  0.8541
 1171TIP3   OH224927   5.390   2.002  12.134  0.1609 -0.2606  0.3214
 1171TIP3    H124928   5.395   1.989  12.040  0.2445 -2.1343  0.5530
 1171TIP3    H224929   5.427   2.089  12.149 -0.1540  0.1815 -1.3935
 1172TIP3   OH224930   5.610   4.260  12.822  0.7724  0.3735  0.3561
 1172TIP3    H124931   5.542   4.286  12.883  1.3669  0.7568  0.8584
 1172TIP3    H224932   5.563   4.242  12.740 -0.0013  0.0350  0.8664
 1173TIP3   OH224933   4.985   0.929  12.594 -0.2491  0.5104  0.3458
 1173TIP3    H124934   4.956   0.913  12.504  4.1535 -1.2781 -0.8737
 1173TIP3    H224935   4.956   0.852  12.643  1.4657 -0.7951 -0.6354
 1174TIP3   OH224936   0.011   4.334   3.003 -0.1267 -0.6937 -0.6498
 1174TIP3    H124937   0.072   4.344   3.076  1.3045 -0.8735 -1.8019
 1174TIP3    H224938   0.044   4.394   2.936 -1.7701 -0.0976 -0.9275
 1175TIP3   OH224939   3.091   0.233  10.873  0.1657  0.4365  0.2838
 1175TIP3    H124940   3.035   0.204  10.801  1.5403 -0.1430 -0.5799
 1175TIP3    H224941   3.081   0.165  10.939 -1.5588  1.2654  0.9119
 1176TIP3   OH224942   5.526   0.240   3.701  0.1234 -0.1177  0.4584
 1176TIP3    H124943   5.537   0.276   3.789  1.2765 -1.3342  0.8317
 1176TIP3    H224944   5.585   0.292   3.646 -1.1811  1.1644  0.2313
 1177TIP3   OH224945   5.840   5.236  17.221  0.1060  0.2333 -0.1813
 1177TIP3    H124946   5.770   5.171  17.232  0.6636 -0.1353  1.2725
 1177TIP3    H224947   5.905   5.192  17.168 -0.8150  0.6223 -1.6565
 1178TIP3   OH224948   4.772   3.977  12.192 -0.2320 -0.1531  0.3968
 1178TIP3    H124949   4.825   3.937  12.123 -0.9026 -0.7617  0.2210
 1178TIP3    H224950   4.711   4.034  12.145 -0.6514 -0.5253  0.4893
 1179TIP3   OH224951   4.051   4.097  16.548 -0.8220 -0.3067 -0.7934
 1179TIP3    H124952   3.988   4.052  16.604  0.8205 -1.1169  0.4688
 1179TIP3    H224953   4.072   4.177  16.596 -0.8179 -0.0859 -1.1622
 1180TIP3   OH224954   0.835   5.288  10.851 -0.5996 -1.0745 -0.5317
 1180TIP3    H124955   0.745   5.296  10.821 -0.5285 -2.9356 -1.2868
 1180TIP3    H224956   0.835   5.215  10.912  0.5792 -1.7384 -1.3034
 1181TIP3   OH224957   3.978   5.755  10.969  0.5017  0.8699  0.1393
 1181TIP3    H124958   3.950   5.715  10.887  0.0319  0.8618  0.3004
 1181TIP3    H224959   3.901   5.801  11.001  0.1800 -0.5000  1.3984
 1182TIP3   OH224960   0.366   5.117  11.758  0.5390  0.1469 -0.0504
 1182TIP3    H124961   0.439   5.137  11.699 -0.0546 -0.6937 -1.0734
 1182TIP3    H224962   0.362   5.192  11.818  1.7662  0.5427 -0.4546
 1183TIP3   OH224963   2.788   5.428   2.897  0.3606 -0.1306  0.0730
 1183TIP3    H124964   2.745   5.510   2.924  0.4861 -0.0707  0.0879
 1183TIP3    H224965   2.864   5.456   2.846  0.2619 -0.2410 -0.1371
 1184TIP3   OH224966   5.614   3.472  16.512 -0.4731 -0.0055  0.8660
 1184TIP3    H124967   5.575   3.524  16.441  0.2283  1.3950  1.4811
 1184TIP3    H224968   5.619   3.533  16.586  3.9527  0.2545  0.4691
 1185TIP3   OH224969   0.222   0.158   2.040  0.1124  0.0094 -0.6249
 1185TIP3    H124970   0.151   0.117   2.089  1.4186 -0.5365  0.8280
 1185TIP3    H224971   0.222   0.112   1.956  0.5750 -1.9263  0.4192
 1186TIP3   OH224972   4.455   0.598  17.122  0.1854  0.1313 -0.4913
 1186TIP3    H124973   4.426   0.530  17.183  0.4119 -0.7536 -1.3553
 1186TIP3    H224974   4.375   0.623  17.075 -0.1307  1.3302  0.6506
 1187TIP3   OH224975   6.176   6.134  13.461 -0.0845  0.3674  0.4603
 1187TIP3    H124976   6.101   6.162  13.514 -0.0607 -0.0531  0.7139
 1187TIP3    H224977   6.249   6.129  13.523 -0.2544 -0.9836  0.5703
 1188TIP3   OH224978   4.154   4.092  14.628  0.2719  0.0760 -0.1186
 1188TIP3    H124979   4.220   4.103  14.697  0.3508  0.7279 -0.3022
 1188TIP3    H224980   4.079   4.142  14.658  0.4806  0.7652 -0.7428
 1189TIP3   OH224981   3.516   2.987   5.215 -0.1208 -0.0930 -0.2170
 1189TIP3    H124982   3.584   3.039   5.257 -1.6080  1.1245  0.7377
 1189TIP3    H224983   3.479   2.934   5.286 -0.1664 -0.7748 -0.7361
 1190TIP3   OH224984   1.963   5.390  15.336 -0.4484  0.1761 -0.2001
 1190TIP3    H124985   2.045   5.398  15.385  0.0196  0.8767 -1.0737
 1190TIP3    H224986   1.960   5.469  15.281 -1.5939  0.0437 -0.3436
 1191TIP3   OH224987   4.318   5.966   3.864  0.6588 -0.0826  0.5738
 1191TIP3    H124988   4.256   6.033   3.835  0.2715 -0.4683  0.5192
 1191TIP3    H224989   4.268   5.911   3.923 -0.3481 -3.1693 -2.9944
 1192TIP3   OH224990   5.036   0.185  14.412  0.1909 -0.9529  0.1840
 1192TIP3    H124991   5.079   0.113  14.365 -1.2973 -1.7348 -0.0164
 1192TIP3    H224992   5.018   0.251  14.345 -0.0725 -1.1813  0.0292
 1193TIP3   OH224993   4.374   0.109   3.883 -0.1716  0.0070 -0.0012
 1193TIP3    H124994   4.323   0.029   3.870 -1.9794  1.2918 -0.9810
 1193TIP3    H224995   4.352   0.138   3.971  0.4927 -0.5700  0.3589
 1194TIP3   OH224996   6.009   2.491   2.776  0.2274 -0.6312 -0.3683
 1194TIP3    H124997   6.003   2.406   2.820  2.2310 -0.8823 -0.5441
 1194TIP3    H224998   5.923   2.530   2.788 -0.0093 -1.7229  1.7268
 1195TIP3   OH224999   3.405   1.993  11.063  0.3274 -0.4217 -0.3708
 1195TIP3    H125000   3.454   1.986  10.981 -0.6219 -2.9016 -0.7593
 1195TIP3    H225001   3.332   1.932  11.053 -0.5745  0.2512  1.7890
 1196TIP3   OH225002   4.497   2.493  12.725 -0.2203  0.1960 -0.4678
 1196TIP3    H125003   4.416   2.479  12.675  0.2678  0.6901 -1.4049
 1196TIP3    H225004   4.566   2.499  12.658  0.5060  0.4132  0.2918
 1197TIP3   OH225005   2.627   2.976   1.724  0.0543  0.2639  0.0909
 1197TIP3    H125006   2.578   3.049   1.687 -2.6446 -0.7301  1.5055
 1197TIP3    H225007   2.664   2.931   1.648 -1.0261  1.2002 -1.0181
 1198TIP3   OH225008   3.088   4.628  16.044 -0.0021 -0.8820  0.0831
 1198TIP3    H125009   3.056   4.563  16.106  0.8846 -0.6884  0.7549
 1198TIP3    H225010   3.015   4.689  16.033  0.0745 -0.5288  1.4750
 1199TIP3   OH225011   0.142   1.632   2.755 -0.2550 -0.1895  0.3931
 1199TIP3    H125012   0.215   1.604   2.698  0.0511 -0.4932  0.9312
 1199TIP3    H225013   0.064   1.614   2.703  0.0438 -0.0285 -0.1222
 1200TIP3   OH225014   0.277   4.944  17.080  0.0078 -0.4062  0.3228
 1200TIP3    H125015   0.326   4.951  16.998  0.6012 -0.1526  0.6967
 1200TIP3    H225016   0.299   5.024  17.128  0.7317 -1.1831  1.3113
 1201TIP3   OH225017   1.671   4.045   5.418  0.1928 -0.8087  0.0071
 1201TIP3    H125018   1.607   4.106   5.456  1.4222  0.0705  0.7332
 1201TIP3    H225019   1.678   4.072   5.327 -0.9990 -1.3778 -0.2655
 1202TIP3   OH225020   2.508   3.643  12.030 -0.0047  0.2172  0.3893
 1202TIP3    H125021   2.434   3.616  12.083 -0.9141 -0.2098 -1.0770
 1202TIP3    H225022   2.567   3.568  12.031  1.2723  1.1900  3.0107
 1203TIP3   OH225023   0.852   6.545   2.290 -0.2886  0.1619  0.3845
 1203TIP3    H125024   0.925   6.483   2.287 -0.2352  0.1869  1.0759
 1203TIP3    H225025   0.822   6.542   2.380 -2.2335 -1.1067 -0.2805
 1204TIP3   OH225026   6.531   3.590   1.117  0.3036  0.3639 -0.6610
 1204TIP3    H125027   6.515   3.507   1.162  3.1843  0.5046  0.7811
 1204TIP3    H225028   6.572   3.564   1.034  0.5194  0.2916 -0.5346
 1205TIP3   OH225029   3.158   0.174  13.408 -0.0547  0.6250  0.2012
 1205TIP3    H125030   3.182   0.082  13.407  0.5157  0.7624  0.8845
 1205TIP3    H225031   3.066   0.175  13.433  0.1385  0.2766  0.9386
 1206TIP3   OH225032   4.931   1.093  10.878 -0.2946  0.0162 -1.1731
 1206TIP3    H125033   4.866   1.160  10.900 -1.8011 -1.2676 -1.6300
 1206TIP3    H225034   4.883   1.028  10.827  0.7760 -2.1560  0.4632
 1207TIP3   OH225035   1.575   6.049   1.093 -0.0497  0.0191 -0.4201
 1207TIP3    H125036   1.589   6.142   1.073  3.0032 -0.3280 -0.0493
 1207TIP3    H225037   1.587   6.042   1.187 -1.8778 -0.5218 -0.2010
 1208TIP3   OH225038   4.021   0.175  16.330 -0.2300 -0.2157  0.6359
 1208TIP3    H125039   3.931   0.200  16.351 -0.0921 -0.3383  1.3749
 1208TIP3    H225040   4.016   0.084  16.301 -0.6799  0.5001 -1.6804
 1209TIP3   OH225041   1.920   5.276  14.401 -0.1911  0.1754 -0.6098
 1209TIP3    H125042   1.970   5.353  14.425 -1.4614  1.2848 -1.4431
 1209TIP3    H225043   1.948   5.208  14.463  2.6622  0.6124 -1.3808
 1210TIP3   OH225044   2.275   1.680  12.575  0.2227 -0.4140  0.4241
 1210TIP3    H125045   2.284   1.662  12.481  2.2966 -0.5826  0.6281
 1210TIP3    H225046   2.276   1.593  12.616 -1.1652 -0.3670  0.5839
 1211TIP3   OH225047   6.703   0.835  15.733 -0.9478 -0.2726 -0.3882
 1211TIP3    H125048   6.695   0.742  15.752 -0.2087 -0.6209 -1.7371
 1211TIP3    H225049   6.638   0.851  15.664 -0.9191  0.1593 -0.3181
 1212TIP3   OH225050   4.985   3.504   3.049 -0.3825 -0.6523  0.4702
 1212TIP3    H125051   4.895   3.527   3.073 -0.2007  0.4326  0.1250
 1212TIP3    H225052   5.007   3.430   3.106 -2.0512 -1.9691 -0.5299
 1213TIP3   OH225053   5.874   0.583   5.035  0.1306  0.4877  0.1542
 1213TIP3    H125054   5.870   0.598   5.130  0.5675  0.5805  0.1591
 1213TIP3    H225055   5.886   0.489   5.026 -2.9506  0.0183  0.1199
 1214TIP3   OH225056   3.072   6.771   0.753 -0.1723  0.2453 -0.6802
 1214TIP3    H125057   3.023   6.850   0.729 -1.1827 -0.0714  0.2677
 1214TIP3    H225058   3.124   6.751   0.675  0.5779  2.1971 -0.7109
 1215TIP3   OH225059   1.760   5.768  13.033  0.0585 -0.0593  0.3659
 1215TIP3    H125060   1.840   5.718  13.015 -1.2958 -1.4323 -2.0630
 1215TIP3    H225061   1.690   5.704  13.027 -1.3056  1.2083  2.1422
 1216TIP3   OH225062   2.521   5.025   5.813  0.0614 -0.5045  0.0736
 1216TIP3    H125063   2.551   4.937   5.789 -0.4534 -0.4482 -0.8082
 1216TIP3    H225064   2.485   5.015   5.900 -1.0405 -1.4140 -0.4795
 1217TIP3   OH225065   1.173   5.184   5.047  0.1075  0.2163  0.4464
 1217TIP3    H125066   1.226   5.105   5.041  1.4563  1.0200  1.5288
 1217TIP3    H225067   1.225   5.251   5.003 -1.3347  0.3579 -1.0677
 1218TIP3   OH225068   4.493   1.189   2.265  0.4505  0.2615  0.2095
 1218TIP3    H125069   4.470   1.188   2.358 -0.7935 -0.3123 -0.0967
 1218TIP3    H225070   4.417   1.152   2.220  1.3490 -0.2006 -0.9792
 1219TIP3   OH225071   1.953   4.692   3.776  0.2063 -0.3214 -0.3252
 1219TIP3    H125072   1.960   4.768   3.718 -0.9694 -0.8807 -1.2245
 1219TIP3    H225073   2.013   4.711   3.848 -0.8819  1.9502  0.0133
 1220TIP3   OH225074   5.949   3.481  15.559 -0.1263 -0.0622 -0.2283
 1220TIP3    H125075   6.017   3.548  15.573  0.7614 -0.8258 -0.8142
 1220TIP3    H225076   5.939   3.478  15.464 -0.3570 -0.5633 -0.1877
 1221TIP3   OH225077   4.684   5.301  15.073  0.0123  0.8206  0.5777
 1221TIP3    H125078   4.641   5.218  15.091 -0.3641  0.6698 -0.9695
 1221TIP3    H225079   4.700   5.300  14.978  0.3325  2.3420  0.6061
 1222TIP3   OH225080   0.247   2.227  16.170  0.1337  0.2523 -0.4766
 1222TIP3    H125081   0.177   2.275  16.215  0.1408 -0.4449  0.2906
 1222TIP3    H225082   0.232   2.245  16.077 -1.6290 -0.6320 -0.3788
 1223TIP3   OH225083   4.092   5.950   5.040 -0.1154  0.6321  0.5885
 1223TIP3    H125084   4.057   5.878   4.988  0.4772 -0.1532  1.2652
 1223TIP3    H225085   4.017   5.983   5.089 -0.2889  0.1645  0.6395
 1224TIP3   OH225086   3.071   3.313  14.476  0.1443  0.1988  0.6998
 1224TIP3    H125087   3.158   3.275  14.491 -0.3611 -0.3677  2.3324
 1224TIP3    H225088   3.066   3.387  14.536 -1.0260 -0.6282  1.6463
 1225TIP3   OH225089   3.406   2.816  14.005 -0.2244 -0.3542 -0.0617
 1225TIP3    H125090   3.421   2.897  13.957 -1.9716 -0.5701 -1.0209
 1225TIP3    H225091   3.411   2.747  13.939  0.1896 -0.9174  0.5583
 1226TIP3   OH225092   3.506   0.994  10.171 -0.4013  0.0707  0.2689
 1226TIP3    H125093   3.427   1.042  10.197 -1.0640 -1.0970  0.4257
 1226TIP3    H225094   3.573   1.024  10.233 -0.4860  1.6911 -0.3798
 1227TIP3   OH225095   3.861   2.836  13.339  0.1819 -0.1089 -0.3377
 1227TIP3    H125096   3.920   2.813  13.411 -0.9287  2.0277  1.3155
 1227TIP3    H225097   3.848   2.931  13.348 -1.7772 -0.1919 -2.0033
 1228TIP3   OH225098   0.648   5.469  15.548  0.2744  0.0876  0.0145
 1228TIP3    H125099   0.693   5.494  15.629  1.1944 -0.3118 -0.3667
 1228TIP3    H225100   0.564   5.515  15.553  0.3383  0.1015  1.1695
 1229TIP3   OH225101   5.234   5.000  11.421  0.1855 -0.4447  0.3197
 1229TIP3    H125102   5.267   5.046  11.498  1.4488 -1.0306  0.1452
 1229TIP3    H225103   5.192   5.068  11.368  0.2312  0.1418  1.0288
 1230TIP3   OH225104   2.110   2.865   5.124 -0.3534 -0.4271  0.1033
 1230TIP3    H125105   2.198   2.882   5.156 -0.0962 -1.5234  0.0095
 1230TIP3    H225106   2.063   2.831   5.200  0.0818 -2.4338 -0.4898
 1231TIP3   OH225107   0.449   1.457  16.376 -0.5310  0.2083  0.4218
 1231TIP3    H125108   0.394   1.505  16.438  0.5617  0.8771  0.8959
 1231TIP3    H225109   0.467   1.519  16.306 -1.2733 -0.3579 -0.2714
 1232TIP3   OH225110   3.133   5.792   0.970 -0.0038 -0.3557  0.0920
 1232TIP3    H125111   3.172   5.844   1.040 -0.2322  1.2498 -0.9267
 1232TIP3    H225112   3.204   5.737   0.937  0.6765  0.4959  0.1277
 1233TIP3   OH225113   0.533   5.448   2.252 -0.4496 -0.1550 -0.3965
 1233TIP3    H125114   0.548   5.519   2.189 -0.9857  1.2500  1.0376
 1233TIP3    H225115   0.453   5.405   2.221 -0.1528 -0.1104 -1.2365
 1234TIP3   OH225116   1.463   1.978  15.715 -0.2828  0.6915  0.1393
 1234TIP3    H125117   1.499   2.047  15.772 -2.1820  0.6822  1.3887
 1234TIP3    H225118   1.506   1.898  15.745  1.1569  1.1677 -0.6236
 1235TIP3   OH225119   1.858   1.476  10.483 -0.0682  0.1798  0.2614
 1235TIP3    H125120   1.886   1.425  10.407 -0.1547  0.1549  0.2449
 1235TIP3    H225121   1.939   1.496  10.531 -0.2158 -1.6715  1.3361
 1236TIP3   OH225122   3.175   1.500  12.661 -0.0672 -0.0172 -0.3260
 1236TIP3    H125123   3.188   1.513  12.755  0.1640 -3.2357  0.1499
 1236TIP3    H225124   3.081   1.487  12.651 -0.2145  1.2375 -0.6986
 1237TIP3   OH225125   5.741   6.719  11.807  0.0530 -0.5225  0.3101
 1237TIP3    H125126   5.700   6.738  11.722 -1.5062  0.1973  1.2029
 1237TIP3    H225127   5.820   6.670  11.784 -0.0736  0.0921 -1.5918
 1238TIP3   OH225128   0.286   3.837  12.069 -0.4927 -0.8014  0.6829
 1238TIP3    H125129   0.350   3.869  12.006 -0.5132 -0.4337  0.8476
 1238TIP3    H225130   0.201   3.848  12.026 -0.5868  0.3927  1.1691
 1239TIP3   OH225131   3.403   2.176   0.820  0.3096  1.0385  0.8454
 1239TIP3    H125132   3.401   2.272   0.823  1.4659  1.0988 -0.2548
 1239TIP3    H225133   3.438   2.155   0.734 -1.7196 -0.4109  0.3451
 1240TIP3   OH225134   6.764   0.749   0.581 -0.6078  0.0742 -0.3924
 1240TIP3    H125135   6.809   0.811   0.639  0.0207  0.5473 -1.3695
 1240TIP3    H225136   6.700   0.705   0.638  0.2692  0.2387  0.7481
 1241TIP3   OH225137   6.186   4.676   4.915  0.0880  0.2635 -0.0153
 1241TIP3    H125138   6.111   4.733   4.901 -0.0145 -0.4270 -2.5329
 1241TIP3    H225139   6.212   4.648   4.827  1.1405 -2.2431  1.0353
 1242TIP3   OH225140   5.702   6.064   1.125 -1.0625 -0.1485  0.0203
 1242TIP3    H125141   5.658   6.072   1.210  0.3157  1.4361  0.6145
 1242TIP3    H225142   5.793   6.091   1.143  0.1557 -3.1970 -1.1796
 1243TIP3   OH225143   0.826   1.377   3.203 -0.6577  0.0568  0.1652
 1243TIP3    H125144   0.874   1.297   3.226 -1.3395 -0.2534  0.5421
 1243TIP3    H225145   0.834   1.433   3.281 -1.5119 -0.2927  0.5124
 1244TIP3   OH225146   3.381   4.894   0.809 -0.3663 -0.1034  0.3607
 1244TIP3    H125147   3.354   4.804   0.829 -1.1987  0.5723  2.3975
 1244TIP3    H225148   3.300   4.939   0.786  0.0319  0.1728 -0.5235
 1245TIP3   OH225149   0.214   1.314  14.102  0.0310 -0.4439  0.1491
 1245TIP3    H125150   0.202   1.393  14.155  0.2815  0.0186 -0.4728
 1245TIP3    H225151   0.125   1.282  14.086 -0.2971  1.5673 -2.3582
 1246TIP3   OH225152   1.447   4.072  12.079  0.2305  0.2777  0.0477
 1246TIP3    H125153   1.526   4.083  12.025  0.0605 -1.3937 -0.5662
 1246TIP3    H225154   1.401   3.999  12.039 -0.7630  0.1222  1.4609
 1247TIP3   OH225155   3.426   5.551   1.632 -0.0954  0.5612 -0.8810
 1247TIP3    H125156   3.501   5.492   1.637 -0.8962 -0.2262  2.2895
 1247TIP3    H225157   3.448   5.623   1.691  0.3519  2.9272 -3.8072
 1248TIP3   OH225158   4.700   5.697   1.213  0.2592  1.0001  0.5460
 1248TIP3    H125159   4.765   5.700   1.283  0.3369 -0.7094  0.5589
 1248TIP3    H225160   4.750   5.677   1.134 -0.2837 -0.6243  0.6066
 1249TIP3   OH225161   3.439   0.068   2.421 -0.2061 -0.1970 -0.7440
 1249TIP3    H125162   3.465   0.070   2.513 -2.1271 -0.6444 -0.1713
 1249TIP3    H225163   3.456  -0.022   2.393 -0.7248 -0.3753 -0.4913
 1250TIP3   OH225164   2.947   4.716   3.385  0.0957 -0.6077  0.4168
 1250TIP3    H125165   2.931   4.665   3.464 -0.7441 -2.4362 -0.9081
 1250TIP3    H225166   2.970   4.651   3.318 -0.2066  0.8075 -1.0960
 1251TIP3   OH225167   2.689   4.681  16.312  0.2401  0.0249 -0.6168
 1251TIP3    H125168   2.703   4.723  16.227  0.2802  1.5544  0.1212
 1251TIP3    H225169   2.644   4.748  16.364  0.7922 -0.6605  0.7718
 1252TIP3   OH225170   4.142   5.711  12.402 -0.5310 -0.2737  0.3878
 1252TIP3    H125171   4.057   5.739  12.435 -0.5002 -0.6233  0.7631
 1252TIP3    H225172   4.176   5.652  12.469 -0.0759 -0.2841  0.1502
 1253TIP3   OH225173   0.252   1.403  15.911 -0.6826 -0.1620 -0.4088
 1253TIP3    H125174   0.214   1.338  15.971 -0.7131  0.1944 -0.0393
 1253TIP3    H225175   0.191   1.477  15.914  0.6254  0.9018  1.1072
 1254TIP3   OH225176   4.899   6.239  13.791  0.9272  0.5742  0.4279
 1254TIP3    H125177   4.804   6.243  13.787  0.9204  0.2679  0.2711
 1254TIP3    H225178   4.927   6.226  13.700  1.1452  1.1736  0.4009
 1255TIP3   OH225179   5.894   1.402   0.889 -0.0774  0.1778 -0.3768
 1255TIP3    H125180   5.893   1.323   0.943 -0.8604 -0.5627 -1.4585
 1255TIP3    H225181   5.831   1.461   0.930 -0.1201 -0.0919 -0.0568
 1256TIP3   OH225182   5.529   5.595   4.127 -0.3974 -0.0353 -0.0102
 1256TIP3    H125183   5.500   5.594   4.218 -0.3566  2.8070  0.0658
 1256TIP3    H225184   5.623   5.611   4.132 -0.4864  0.6559 -0.5698
 1257TIP3   OH225185   3.203   6.716   3.303  0.4163  0.2150  0.2539
 1257TIP3    H125186   3.291   6.716   3.264  0.4674 -1.1556  0.3181
 1257TIP3    H225187   3.211   6.769   3.382  1.0757  0.4887  0.0028
 1258TIP3   OH225188   5.829   0.207   3.207 -0.0302  0.1958  0.7808
 1258TIP3    H125189   5.873   0.238   3.286 -0.2388  1.2341  0.5075
 1258TIP3    H225190   5.892   0.147   3.166  0.0322 -0.4185  1.7872
 1259TIP3   OH225191   1.742   2.756  15.169  0.3083  0.0301 -0.1712
 1259TIP3    H125192   1.833   2.783  15.185  0.1934  0.7427 -0.7099
 1259TIP3    H225193   1.729   2.681  15.227  1.1710  0.0682  0.0811
 1260TIP3   OH225194   4.810   5.408   2.287 -0.2652  0.6726 -0.0297
 1260TIP3    H125195   4.838   5.357   2.210 -0.4225  0.5949 -0.0372
 1260TIP3    H225196   4.837   5.355   2.362 -1.0799  0.2173 -0.0439
 1261TIP3   OH225197   6.339   2.786  12.660 -0.0131  0.7008 -0.3506
 1261TIP3    H125198   6.415   2.729  12.669  0.7872  1.9918  1.2731
 1261TIP3    H225199   6.347   2.849  12.731 -3.0163  0.3985  0.3588
 1262TIP3   OH225200   6.032   2.674   4.585  0.1788  0.1415  0.5608
 1262TIP3    H125201   6.035   2.693   4.491 -1.2627  0.3433  0.5513
 1262TIP3    H225202   6.080   2.747   4.625  0.5284  0.2172  0.0151
 1263TIP3   OH225203   3.089   4.490   2.270  0.8140 -0.3282  0.2081
 1263TIP3    H125204   3.008   4.464   2.313  0.2269 -1.1643 -1.3839
 1263TIP3    H225205   3.114   4.572   2.313  0.5870 -1.4665  2.5702
 1264TIP3   OH225206   5.331   5.508  15.370  0.0372  0.0529 -0.5447
 1264TIP3    H125207   5.277   5.515  15.449 -1.8673  1.2422 -1.9178
 1264TIP3    H225208   5.384   5.587  15.370 -0.7578  0.5915 -1.0194
 1265TIP3   OH225209   6.261   6.231  11.314  0.0021  0.1199  0.3636
 1265TIP3    H125210   6.315   6.190  11.246  1.4292  1.3924  0.6824
 1265TIP3    H225211   6.219   6.305  11.270  1.3840  1.2935  0.9786
 1266TIP3   OH225212   4.366   6.567   6.035 -0.3085  0.2580 -0.4975
 1266TIP3    H125213   4.437   6.629   6.051  2.4894 -2.6004 -1.3333
 1266TIP3    H225214   4.287   6.620   6.036  1.7073  3.3775  1.6062
 1267TIP3   OH225215   5.891   4.163   2.087  0.2696  0.1109  0.7584
 1267TIP3    H125216   5.971   4.216   2.094  0.7883 -0.6977  0.9733
 1267TIP3    H225217   5.866   4.147   2.177  1.8157 -2.5599  0.7600
 1268TIP3   OH225218   1.346   4.960  17.214  0.1743 -0.5610  0.2700
 1268TIP3    H125219   1.353   4.981  17.308 -1.9036  0.5060  0.2349
 1268TIP3    H225220   1.397   5.028  17.171 -0.0973 -0.1630  0.5645
 1269TIP3   OH225221   1.327   2.401   3.064 -0.0861  0.1591  0.3847
 1269TIP3    H125222   1.307   2.395   2.970 -0.9472  0.1200  0.5623
 1269TIP3    H225223   1.256   2.353   3.106  0.6166 -0.3143  1.0263
 1270TIP3   OH225224   6.514   1.628  11.415  0.2212 -0.2027 -0.0455
 1270TIP3    H125225   6.453   1.685  11.368  0.0386 -0.3332  0.0308
 1270TIP3    H225226   6.525   1.553  11.357  1.3199  0.4167 -0.6371
 1271TIP3   OH225227   6.198   2.434   3.316 -0.0382 -0.7757  0.4068
 1271TIP3    H125228   6.212   2.370   3.247 -0.7710 -0.9737  0.4441
 1271TIP3    H225229   6.286   2.468   3.335  0.3770 -1.8836  0.5113
 1272TIP3   OH225230   5.820   5.088   2.918 -0.0251 -0.7679 -0.0800
 1272TIP3    H125231   5.855   5.130   2.839 -1.0551 -1.4236 -0.9079
 1272TIP3    H225232   5.833   4.994   2.904  0.1916 -0.8616  0.7308
 1273TIP3   OH225233   4.445   3.730  16.337  0.4552 -0.5503 -0.0991
 1273TIP3    H125234   4.364   3.779  16.324  1.4691  0.8621 -1.2348
 1273TIP3    H225235   4.439   3.657  16.276  1.1283  0.9639 -2.0334
 1274TIP3   OH225236   2.320   5.715  15.880 -0.1065 -0.5877 -0.3065
 1274TIP3    H125237   2.279   5.714  15.793  0.0752  1.8374 -0.4652
 1274TIP3    H225238   2.404   5.761  15.866  0.8209 -1.9163  0.7837
 1275TIP3   OH225239   3.155   3.539   1.484 -0.2147  0.1377 -0.0228
 1275TIP3    H125240   3.150   3.553   1.578 -0.0928 -0.6525  0.0980
 1275TIP3    H225241   3.240   3.577   1.459 -0.1029  0.0518  0.2300
 1276TIP3   OH225242   2.465   1.631   6.294  0.2957  0.1351 -0.4820
 1276TIP3    H125243   2.430   1.628   6.383 -1.4072  0.5625 -1.1142
 1276TIP3    H225244   2.560   1.620   6.305  0.0209 -0.6188  1.3126
 1277TIP3   OH225245   6.423   5.389   5.001  0.2072 -0.0615 -0.1664
 1277TIP3    H125246   6.502   5.379   4.948  0.1221 -0.6980 -0.1755
 1277TIP3    H225247   6.354   5.411   4.938  0.3736  0.4960 -0.1583
 1278TIP3   OH225248   2.500   6.514  13.841  0.5016  0.0249 -0.1391
 1278TIP3    H125249   2.444   6.578  13.797 -1.1733 -1.2035  0.1273
 1278TIP3    H225250   2.562   6.486  13.774 -0.8859 -0.5045 -1.2274
 1279TIP3   OH225251   3.067   2.637   2.028 -0.1166  0.5934 -0.4965
 1279TIP3    H125252   3.119   2.713   2.004  3.0690 -1.0315  0.9333
 1279TIP3    H225253   3.080   2.575   1.956  0.3027  0.0201  0.0606
 1280TIP3   OH225254   1.270   3.340  14.787  0.4140  0.0512  0.0899
 1280TIP3    H125255   1.328   3.404  14.827 -0.8151  0.8097  0.6834
 1280TIP3    H225256   1.306   3.255  14.814  1.8359  0.4755 -0.4106
 1281TIP3   OH225257   6.288   6.632   2.488 -0.6220 -0.2497 -0.2425
 1281TIP3    H125258   6.295   6.576   2.565  1.4477  0.9265  0.4576
 1281TIP3    H225259   6.371   6.621   2.443 -1.8956 -1.0704 -2.4437
 1282TIP3   OH225260   0.482   6.007  14.354  0.0115 -0.2880 -0.3995
 1282TIP3    H125261   0.551   6.036  14.413  0.2791 -1.9783  0.1461
 1282TIP3    H225262   0.480   6.073  14.285  2.8473 -0.6896 -0.9356
 1283TIP3   OH225263   4.549   6.771  10.746  0.3760  0.3568  0.2723
 1283TIP3    H125264   4.591   6.731  10.822  0.2441  0.6167  0.4836
 1283TIP3    H225265   4.506   6.849  10.781 -1.1262 -0.4354  0.2564
 1284TIP3   OH225266   5.917   1.321   3.745 -0.7350  0.0779  0.0618
 1284TIP3    H125267   5.889   1.296   3.657 -0.2352 -0.9866  0.1980
 1284TIP3    H225268   5.886   1.250   3.801 -2.0636  1.3082  0.9311
 1285TIP3   OH225269   2.556   4.050   1.357  0.3475  0.2810 -0.0368
 1285TIP3    H125270   2.470   4.035   1.318  0.4852  0.1784 -0.3015
 1285TIP3    H225271   2.569   3.976   1.416  0.1639  0.4056  0.1594
 1286TIP3   OH225272   1.221   1.967  15.568 -0.3867 -0.5910 -0.8406
 1286TIP3    H125273   1.310   1.964  15.602 -0.9512  1.8705  0.9301
 1286TIP3    H225274   1.169   1.919  15.632 -0.9937  1.6787  0.4310
 1287TIP3   OH225275   2.261   4.550  15.348 -0.9883 -0.4203  0.5263
 1287TIP3    H125276   2.209   4.530  15.270  0.6953  2.4600 -1.4053
 1287TIP3    H225277   2.220   4.629  15.385 -0.5213 -0.5855  1.4102
 1288TIP3   OH225278   2.218   2.629  15.113 -0.4532 -0.4643  0.0252
 1288TIP3    H125279   2.151   2.607  15.048 -0.3080 -0.1272 -0.2410
 1288TIP3    H225280   2.249   2.544  15.145  0.0016 -0.6459 -0.8885
 1289TIP3   OH225281   5.367   4.017  16.628  0.2953 -0.6364  0.1490
 1289TIP3    H125282   5.293   4.071  16.602  0.8719 -0.0159 -0.2191
 1289TIP3    H225283   5.444   4.068  16.602  0.8430 -1.3985  0.2707
 1290TIP3   OH225284   3.340   2.445   5.296 -0.4372  0.3899  0.0442
 1290TIP3    H125285   3.332   2.489   5.381 -1.8556 -0.7219  0.5045
 1290TIP3    H225286   3.253   2.451   5.257  0.1110  0.5445 -1.1566
 1291TIP3   OH225287   4.618   1.356   5.948  0.1326 -0.2453  0.1541
 1291TIP3    H125288   4.681   1.317   5.887  1.4983 -0.6764  1.7835
 1291TIP3    H225289   4.603   1.287   6.013  0.4158  0.9498  1.5175
 1292TIP3   OH225290   2.313   3.988   4.999 -0.1290 -0.5749 -0.0406
 1292TIP3    H125291   2.313   3.935   5.079  1.5407  0.2187  0.5190
 1292TIP3    H225292   2.388   3.957   4.949  0.3881  0.6926 -0.0745
 1293TIP3   OH225293   5.103   6.397   5.542 -0.0098 -0.3431 -0.1212
 1293TIP3    H125294   5.064   6.332   5.484 -0.7899  1.0321 -1.1596
 1293TIP3    H225295   5.062   6.479   5.516  1.3790  0.6482  0.8021
 1294TIP3   OH225296   2.182   6.668  11.911 -0.4135  0.5564  0.2492
 1294TIP3    H125297   2.186   6.619  11.994 -0.5801 -0.9375 -0.5941
 1294TIP3    H225298   2.222   6.608  11.847 -1.2582  1.2572 -0.9435
 1295TIP3   OH225299   5.923   4.580  15.445  0.5540 -0.2973  0.6827
 1295TIP3    H125300   5.979   4.504  15.458  0.1945 -0.5359  0.8310
 1295TIP3    H225301   5.857   4.574  15.514  1.6859  1.2348  1.9334
 1296TIP3   OH225302   4.257   2.331   2.904  0.0653  0.0389  0.3558
 1296TIP3    H125303   4.352   2.319   2.898  0.0209 -0.6272  0.9244
 1296TIP3    H225304   4.231   2.279   2.979 -1.1080 -1.8132 -1.2830
 1297TIP3   OH225305   0.140   5.681  16.742  0.5811 -0.1190  0.0327
 1297TIP3    H125306   0.080   5.625  16.791  0.5109  0.3790  0.5204
 1297TIP3    H225307   0.207   5.707  16.806  0.5552  0.4419 -0.1607
 1298TIP3   OH225308   4.583   4.872  16.608 -0.5785  0.4229 -0.0759
 1298TIP3    H125309   4.561   4.792  16.559 -2.2710  0.7791  0.0694
 1298TIP3    H225310   4.585   4.843  16.699 -1.4835  0.6073  0.0024
 1299TIP3   OH225311   3.786   3.786  11.440 -0.3875  0.1932  0.0498
 1299TIP3    H125312   3.755   3.726  11.507 -0.0031  0.2362  0.2622
 1299TIP3    H225313   3.710   3.842  11.422  0.4835  2.3932  2.8757
 1300TIP3   OH225314   5.538   5.868   5.648 -0.3753 -0.2667  0.0989
 1300TIP3    H125315   5.600   5.873   5.575 -1.4539 -1.4812 -0.9211
 1300TIP3    H225316   5.561   5.942   5.704  1.5732 -0.3206 -0.5968
 1301TIP3   OH225317   5.420   1.431  13.580 -0.1319  0.2310 -0.3123
 1301TIP3    H125318   5.488   1.430  13.512 -0.1102  0.6027 -0.2996
 1301TIP3    H225319   5.381   1.344  13.577  2.1457 -0.8807  1.5056
 1302TIP3   OH225320   5.928   2.664  11.299  0.1086  0.0343 -0.6375
 1302TIP3    H125321   5.896   2.642  11.211  0.5029  0.8259 -0.9833
 1302TIP3    H225322   5.888   2.749  11.319  0.8063  0.3322 -0.4682
 1303TIP3   OH225323   1.156   5.182   4.076 -0.1705  0.3897 -0.4273
 1303TIP3    H125324   1.224   5.183   4.008  0.6284  0.5485  0.3666
 1303TIP3    H225325   1.191   5.238   4.145 -1.1858  0.5972 -0.0787
 1304TIP3   OH225326   1.142   1.682   0.906  0.4383 -0.2291  0.1271
 1304TIP3    H125327   1.184   1.600   0.933 -1.3954 -0.9579  0.8199
 1304TIP3    H225328   1.086   1.657   0.833 -1.3027  0.1330  1.3343
 1305TIP3   OH225329   3.938   1.935  16.343  0.1457 -0.5644  0.2558
 1305TIP3    H125330   3.902   1.847  16.330  0.1910 -0.3684 -1.2941
 1305TIP3    H225331   3.873   1.981  16.395 -0.3174 -1.2364  0.2721
 1306TIP3   OH225332   2.647   2.238   2.637 -0.2123  0.0587  0.2017
 1306TIP3    H125333   2.615   2.213   2.550  0.3630  0.4689 -0.1384
 1306TIP3    H225334   2.624   2.165   2.693 -0.9328 -0.0436 -0.2182
 1307TIP3   OH225335   1.299   3.007  14.457 -0.4777 -0.1407  0.0550
 1307TIP3    H125336   1.377   3.045  14.416 -0.0320 -1.1456 -0.0305
 1307TIP3    H225337   1.226   3.045  14.408 -0.0310  0.4621 -0.1553
 1308TIP3   OH225338   3.161   1.547   3.138  0.2988  0.0191  0.2577
 1308TIP3    H125339   3.113   1.466   3.153  0.1742  0.4706  2.5182
 1308TIP3    H225340   3.253   1.522   3.146  0.2722  0.0283  0.6065
 1309TIP3   OH225341   6.560   6.434   3.397 -0.0888  0.2154  0.1350
 1309TIP3    H125342   6.496   6.492   3.438  0.5082  1.7441 -1.0150
 1309TIP3    H225343   6.516   6.404   3.317  1.0179  2.2391 -1.2915
 1310TIP3   OH225344   5.264   0.907   4.642 -0.3670 -0.0343 -0.7929
 1310TIP3    H125345   5.300   0.935   4.726 -0.8460 -1.2596 -0.1675
 1310TIP3    H225346   5.193   0.969   4.625  0.1288  0.5888 -0.5849
 1311TIP3   OH225347   1.538   1.988   5.900 -0.5181 -0.1600  0.7223
 1311TIP3    H125348   1.562   1.906   5.944  2.0050 -0.2809 -0.7373
 1311TIP3    H225349   1.620   2.017   5.860 -2.0969  1.4627 -1.3989
 1312TIP3   OH225350   2.295   3.365   1.941  0.4206 -0.1441 -0.3900
 1312TIP3    H125351   2.226   3.318   1.893 -0.3622  0.8894 -0.3013
 1312TIP3    H225352   2.280   3.344   2.033 -0.6554  1.1795 -0.2413
 1313TIP3   OH225353   3.688   2.178  16.110 -0.6429  0.1865  0.2539
 1313TIP3    H125354   3.676   2.083  16.100  1.1012  0.0572 -1.0001
 1313TIP3    H225355   3.779   2.187  16.139 -0.1872  1.5467 -1.5161
 1314TIP3   OH225356   0.637   3.151   1.605  0.0100 -0.6654  0.7359
 1314TIP3    H125357   0.588   3.085   1.556 -0.1345 -0.2989  0.3888
 1314TIP3    H225358   0.653   3.110   1.691 -1.0024 -0.7471  0.8906
 1315TIP3   OH225359   2.371   2.218  11.138  0.5054  0.4117 -0.4569
 1315TIP3    H125360   2.396   2.139  11.090  2.6343  0.7521  0.0480
 1315TIP3    H225361   2.395   2.290  11.080  0.6348  0.7478  0.0103
 1316TIP3   OH225362   5.813   5.649  15.287  0.5440 -0.1830 -0.0572
 1316TIP3    H125363   5.793   5.662  15.380  0.1799  2.3136 -0.4511
 1316TIP3    H225364   5.743   5.591  15.256 -0.4220  0.4876  0.8157
 1317TIP3   OH225365   2.924   0.200   2.223  0.3857  0.0496  0.4131
 1317TIP3    H125366   2.922   0.127   2.161  4.5738  1.4809 -1.5522
 1317TIP3    H225367   2.973   0.167   2.298  0.5195  0.2267  0.4027
 1318TIP3   OH225368   2.879   6.157   1.020  0.0942 -0.4643 -0.2113
 1318TIP3    H125369   2.838   6.121   0.941 -1.4826  0.3696  0.2044
 1318TIP3    H225370   2.963   6.191   0.990  0.3855 -1.9423 -1.1413
 1319TIP3   OH225371   3.743   2.172  11.187 -0.1497  0.3340  0.2312
 1319TIP3    H125372   3.683   2.144  11.256  0.5621  0.9661  1.1307
 1319TIP3    H225373   3.793   2.243  11.227  0.8152  0.1783 -0.6840
 1320TIP3   OH225374   4.504   1.882  14.831  0.3821  0.3659  0.0705
 1320TIP3    H125375   4.593   1.883  14.866  0.4638 -3.0331  0.1300
 1320TIP3    H225376   4.509   1.930  14.749  1.9570  1.4194  0.7682
 1321TIP3   OH225377   2.484   4.401   1.565  0.1370  0.2165  0.0488
 1321TIP3    H125378   2.424   4.350   1.510  1.1258 -1.0602  0.1195
 1321TIP3    H225379   2.432   4.423   1.643 -0.3141 -0.6982  0.0172
 1322TIP3   OH225380   6.157   0.690   0.698 -0.1187  0.5401  0.1994
 1322TIP3    H125381   6.208   0.760   0.739  1.5047 -0.1644 -0.5736
 1322TIP3    H225382   6.110   0.734   0.627  1.2849  0.7760 -0.6032
 1323TIP3   OH225383   1.216   6.524   5.288 -0.0680  0.1214 -0.0447
 1323TIP3    H125384   1.271   6.446   5.280  0.0757  0.4798 -3.3220
 1323TIP3    H225385   1.277   6.596   5.302  0.1088  0.1652 -1.0243
 1324TIP3   OH225386   4.713   0.544   4.246 -0.1475 -0.1409 -0.2738
 1324TIP3    H125387   4.720   0.616   4.183 -1.8275  0.2320 -0.0534
 1324TIP3    H225388   4.778   0.564   4.313  0.4151  0.3980 -0.9670
 1325TIP3   OH225389   0.133   3.162  17.138  0.4147  0.3448 -0.2693
 1325TIP3    H125390   0.038   3.162  17.152  0.3091  0.9357 -0.9804
 1325TIP3    H225391   0.143   3.154  17.044  1.0940 -0.6392 -0.1230
 1326TIP3   OH225392   2.272   2.706   4.270  1.0109  0.3089 -0.0569
 1326TIP3    H125393   2.199   2.699   4.331  0.5377  1.5347 -0.4732
 1326TIP3    H225394   2.333   2.767   4.312  1.4645 -0.1470 -0.0447
 1327TIP3   OH225395   1.358   1.528  12.156  0.5688  0.7100 -0.0378
 1327TIP3    H125396   1.367   1.539  12.062 -1.3211  0.9354 -0.2113
 1327TIP3    H225397   1.428   1.582  12.193 -0.0178  2.3521 -1.2519
 1328TIP3   OH225398   5.173   6.234   3.760 -0.0938  0.4333 -0.1923
 1328TIP3    H125399   5.095   6.191   3.794 -0.4143  1.4999  0.4545
 1328TIP3    H225400   5.237   6.163   3.750 -0.8345 -0.2993  0.1763
 1329TIP3   OH225401   4.480   3.246   2.419 -0.3247 -0.0243  0.1517
 1329TIP3    H125402   4.464   3.273   2.328  0.9534  0.1079 -0.0502
 1329TIP3    H225403   4.456   3.322   2.471  1.7529  0.9938 -0.3058
 1330TIP3   OH225404   4.921   2.706   3.572 -0.0552  0.2805 -1.1579
 1330TIP3    H125405   4.887   2.741   3.655  0.6509  1.3346 -1.3099
 1330TIP3    H225406   5.007   2.671   3.594 -0.2398 -0.2536 -1.2689
 1331TIP3   OH225407   2.313   5.059  12.551 -0.6107 -0.2796 -0.4001
 1331TIP3    H125408   2.406   5.051  12.573 -0.8645  1.0102  1.2725
 1331TIP3    H225409   2.311   5.113  12.473  0.0409 -0.3858 -0.4957
 1332TIP3   OH225410   2.369   3.152   5.377 -0.4323  0.5495  0.1016
 1332TIP3    H125411   2.359   3.247   5.383  0.6036  0.7012 -0.3552
 1332TIP3    H225412   2.310   3.125   5.306 -0.4758  0.8967  0.0080
 1333TIP3   OH225413   4.535   2.526   1.154 -0.0785 -0.5337  0.2152
 1333TIP3    H125414   4.442   2.547   1.145  0.1523  0.5781  0.3881
 1333TIP3    H225415   4.572   2.544   1.068 -0.0914 -1.3554  0.0341
 1334TIP3   OH225416   0.020   3.383  13.436 -0.3719  0.1242 -0.0219
 1334TIP3    H125417   0.056   3.471  13.445 -2.0476  1.0160 -1.6885
 1334TIP3    H225418   0.073   3.343  13.368 -2.0947  1.2496 -2.0873
 1335TIP3   OH225419   0.880   5.905   3.080  0.6556  0.2497  0.4014
 1335TIP3    H125420   0.949   5.941   3.024  1.8472 -0.9728  1.0516
 1335TIP3    H225421   0.927   5.860   3.150 -0.8057 -0.7045  0.7918
 1336TIP3   OH225422   1.649   5.436   2.436 -0.0864  0.6545  0.2250
 1336TIP3    H125423   1.576   5.448   2.497 -0.2105 -2.1067  0.7126
 1336TIP3    H225424   1.613   5.382   2.365  1.0795  0.5228 -0.2818
 1337TIP3   OH225425   2.123   3.786  16.208 -0.0997 -0.1491  0.8073
 1337TIP3    H125426   2.053   3.809  16.269 -0.3738  0.7053  0.1689
 1337TIP3    H225427   2.168   3.868  16.190  0.2885 -0.4805  0.2297
 1338TIP3   OH225428   0.728   4.983   1.173 -0.0758 -0.2876 -0.4887
 1338TIP3    H125429   0.679   4.902   1.166  1.3935 -1.1490 -1.1030
 1338TIP3    H225430   0.797   4.976   1.107 -0.5339  1.9066 -1.2616
 1339TIP3   OH225431   2.181   3.026   5.821 -0.7762 -0.2827 -0.7629
 1339TIP3    H125432   2.108   2.979   5.861 -0.2853 -0.5765 -0.1953
 1339TIP3    H225433   2.142   3.078   5.751 -1.7426  0.6971  0.4779
 1340TIP3   OH225434   2.104   5.238  12.348  0.5506 -0.0531  0.1346
 1340TIP3    H125435   2.061   5.251  12.263 -1.2499  0.6827  1.1227
 1340TIP3    H225436   2.053   5.292  12.409  2.0734 -0.2398  1.6118
 1341TIP3   OH225437   2.556   1.616  16.169  0.1579  0.1249  0.1798
 1341TIP3    H125438   2.468   1.651  16.185  0.0117 -0.1437 -0.0316
 1341TIP3    H225439   2.581   1.575  16.251 -0.8102 -1.7321 -0.4167
 1342TIP3   OH225440   2.565   3.270   4.005 -0.5763  0.0687 -0.3879
 1342TIP3    H125441   2.516   3.191   4.028 -1.5889  0.7741 -0.0917
 1342TIP3    H225442   2.545   3.332   4.074  1.5683  0.0534  0.2925
 1343TIP3   OH225443   6.358   6.392  16.116 -0.6224  0.5242  0.0728
 1343TIP3    H125444   6.376   6.302  16.090  0.5256  1.0802 -1.1209
 1343TIP3    H225445   6.271   6.389  16.154 -1.5131 -0.7037 -1.9856
 1344TIP3   OH225446   5.433   5.137  15.097 -0.4581 -0.3070 -0.4947
 1344TIP3    H125447   5.395   5.135  15.184  1.7532  2.2025  0.6153
 1344TIP3    H225448   5.365   5.174  15.041 -1.0366  0.3532  0.6422
 1345TIP3   OH225449   4.417   5.496   4.679 -0.6047  0.3078  0.8203
 1345TIP3    H125450   4.389   5.467   4.592  0.9040  0.5225  0.2443
 1345TIP3    H225451   4.386   5.428   4.738  0.2287 -0.9579 -0.1583
 1346TIP3   OH225452   4.632   2.225  14.877  0.0648  0.4283  0.1759
 1346TIP3    H125453   4.580   2.198  14.801 -0.4041  0.8332  0.3528
 1346TIP3    H225454   4.688   2.295  14.844 -1.4659  1.9072  0.6375
 1347TIP3   OH225455   3.311   1.004  13.173 -0.4574  0.2306  0.3022
 1347TIP3    H125456   3.374   0.985  13.104  1.1341 -0.9901  2.0274
 1347TIP3    H225457   3.227   1.010  13.128  0.4038 -1.4671 -1.6265
 1348TIP3   OH225458   3.915   4.822  13.168  0.4974  0.2878  0.3065
 1348TIP3    H125459   3.934   4.774  13.087 -1.1308  1.2225 -0.6896
 1348TIP3    H225460   3.826   4.856  13.154  0.7383  1.6339  1.9192
 1349TIP3   OH225461   3.636   0.927  13.409 -0.3325  0.0053 -0.7299
 1349TIP3    H125462   3.728   0.901  13.418 -0.0486  1.2335  0.1036
 1349TIP3    H225463   3.594   0.853  13.365  0.4671 -1.8093  1.4753
 1350TIP3   OH225464   5.316   2.587   2.450  0.2028 -0.3252 -0.2252
 1350TIP3    H125465   5.347   2.671   2.485  0.6715 -1.0563  1.1671
 1350TIP3    H225466   5.295   2.535   2.527 -3.3310 -0.3361 -1.1051
 1351TIP3   OH225467   2.347   2.412  15.486  0.0668  0.4925  0.1012
 1351TIP3    H125468   2.359   2.338  15.546 -0.4140  0.5141  0.2255
 1351TIP3    H225469   2.298   2.375  15.413  1.5244  0.2329 -0.7435
 1352TIP3   OH225470   3.999   4.574   4.544  0.0509  0.2836 -0.0486
 1352TIP3    H125471   3.979   4.626   4.622  0.4749 -0.4369  0.5476
 1352TIP3    H225472   3.994   4.483   4.574 -2.0178 -0.0913 -1.3814
 1353TIP3   OH225473   4.088   1.329  15.663 -0.3684 -0.0499  0.4159
 1353TIP3    H125474   4.161   1.268  15.657  0.1055  0.6098 -0.6730
 1353TIP3    H225475   4.129   1.415  15.661 -1.1587  0.3227  0.1996
 1354TIP3   OH225476   0.514   2.755   4.370  0.0069  0.0861 -0.3970
 1354TIP3    H125477   0.471   2.671   4.355 -1.7243  0.5476  1.6756
 1354TIP3    H225478   0.468   2.792   4.445 -0.7729  3.9121 -2.6129
 1355TIP3   OH225479   3.661   1.484  13.285  0.1815  0.4986 -0.2431
 1355TIP3    H125480   3.594   1.518  13.226 -2.4903 -2.2214  1.1258
 1355TIP3    H225481   3.678   1.395  13.253  0.1248 -0.2887  1.8775
 1356TIP3   OH225482   5.936   3.146   6.373  0.0904  0.0273  0.1515
 1356TIP3    H125483   5.961   3.173   6.461 -2.5755 -0.2429  1.0361
 1356TIP3    H225484   5.907   3.055   6.384 -0.2060 -0.0222 -1.0137
 1357TIP3   OH225485   1.153   6.552  15.108 -0.6600 -0.2019 -0.1423
 1357TIP3    H125486   1.163   6.633  15.059  0.5816 -0.1831  0.1383
 1357TIP3    H225487   1.061   6.529  15.096 -1.0736  1.3483 -0.0493
 1358TIP3   OH225488   0.771   4.151  13.943 -0.5056 -0.2154  0.1680
 1358TIP3    H125489   0.790   4.243  13.928 -0.4468 -0.1835  0.4354
 1358TIP3    H225490   0.811   4.106  13.869 -0.7025 -0.0090 -0.0628
 1359TIP3   OH225491   4.608   2.850  12.489 -0.5271  0.0737 -0.2845
 1359TIP3    H125492   4.597   2.840  12.394 -1.5258 -1.6975 -0.0023
 1359TIP3    H225493   4.520   2.865  12.523 -0.0414  1.8136  0.2700
 1360TIP3   OH225494   4.111   5.603  11.699 -0.0258 -0.0584 -0.4483
 1360TIP3    H125495   4.024   5.572  11.726  0.7964 -1.9063  0.0904
 1360TIP3    H225496   4.093   5.687  11.657 -1.9248  0.3213  1.0134
 1361TIP3   OH225497   5.808   6.021   0.724 -0.1171 -0.0300  0.1563
 1361TIP3    H125498   5.858   5.993   0.800  1.9281 -0.6065 -1.3915
 1361TIP3    H225499   5.872   6.063   0.667 -1.2011 -1.6460 -2.2938
 1362TIP3   OH225500   5.912   1.439  14.341  0.4835  0.2628 -0.0020
 1362TIP3    H125501   5.939   1.441  14.432 -1.5885 -0.5742  0.6716
 1362TIP3    H225502   5.990   1.462  14.291  1.6167  0.7586  1.9823
 1363TIP3   OH225503   0.415   4.196   1.072 -0.1612  0.0140  1.0779
 1363TIP3    H125504   0.390   4.246   0.994 -0.9606  0.5018  1.6365
 1363TIP3    H225505   0.482   4.135   1.041 -1.4578 -0.7631 -0.2923
 1364TIP3   OH225506   0.170   5.592  12.845  0.0890  0.1572  0.4510
 1364TIP3    H125507   0.229   5.531  12.889 -1.1753 -0.5111  1.2726
 1364TIP3    H225508   0.147   5.549  12.763  0.9451  0.5402  0.0058
 1365TIP3   OH225509   6.000   1.591  13.979  0.3543 -0.1047 -0.4378
 1365TIP3    H125510   5.942   1.651  14.028  0.9577 -0.0755  0.2483
 1365TIP3    H225511   6.055   1.551  14.046  0.8535 -0.4449 -1.0480
 1366TIP3   OH225512   2.117   3.019  11.757 -0.1230  0.3446  0.2132
 1366TIP3    H125513   2.138   3.065  11.676 -1.0555  1.2795  0.4985
 1366TIP3    H225514   2.033   3.054  11.784 -1.6325 -2.6361 -0.3767
 1367TIP3   OH225515   3.234   2.577   1.741  0.3388  0.0021 -0.6335
 1367TIP3    H125516   3.165   2.626   1.696 -0.1089 -0.8981 -0.9417
 1367TIP3    H225517   3.208   2.486   1.732  0.5765 -0.2348  0.9019
 1368TIP3   OH225518   2.918   0.432  10.634  0.6528  0.2128  0.1335
 1368TIP3    H125519   2.892   0.345  10.664  2.0815 -0.5932 -0.9463
 1368TIP3    H225520   2.882   0.439  10.546  1.7417  0.1654 -0.3206
 1369TIP3   OH225521   1.786   6.774   4.623 -0.2546  0.3110  0.3161
 1369TIP3    H125522   1.730   6.826   4.681 -0.4825 -0.8092  1.0979
 1369TIP3    H225523   1.813   6.836   4.555 -3.2487  0.6197 -0.6408
 1370TIP3   OH225524   0.566   6.646   1.459 -0.2541 -0.2193 -0.6150
 1370TIP3    H125525   0.554   6.574   1.521 -0.7278 -0.6872 -1.2411
 1370TIP3    H225526   0.478   6.684   1.450 -0.4236 -0.8535 -1.8299
 1371TIP3   OH225527   3.360   6.097  15.069 -0.0683  0.0318 -0.2538
 1371TIP3    H125528   3.391   6.095  14.979 -0.9401 -0.3943 -0.5560
 1371TIP3    H225529   3.292   6.165  15.069 -0.3998 -0.2965 -0.0317
 1372TIP3   OH225530   1.382   4.766  12.956  0.5135 -0.2145  0.4420
 1372TIP3    H125531   1.344   4.851  12.936  1.6066  0.0019 -0.7153
 1372TIP3    H225532   1.313   4.703  12.935 -0.7723  0.4401  2.5474
 1373TIP3   OH225533   6.262   3.632   4.312  0.4368 -0.4952 -0.5889
 1373TIP3    H125534   6.348   3.589   4.312 -0.8412 -3.2565  1.6041
 1373TIP3    H225535   6.267   3.695   4.384  0.8480 -0.1353 -0.9282
 1374TIP3   OH225536   6.181   4.381   3.040 -0.3610  0.2314 -0.0914
 1374TIP3    H125537   6.195   4.351   3.130 -0.8512  0.3849  0.0346
 1374TIP3    H225538   6.108   4.443   3.046  0.9030  1.7510 -0.3035
 1375TIP3   OH225539   5.171   2.933  12.698 -0.2283 -0.1108  0.3871
 1375TIP3    H125540   5.201   3.024  12.699 -0.6077  0.0256 -0.6529
 1375TIP3    H225541   5.171   2.908  12.606  2.5381 -2.0606  0.8327
 1376TIP3   OH225542   4.911   4.077  13.153  0.0507 -0.3147  0.1910
 1376TIP3    H125543   4.922   4.046  13.063  0.8337 -0.0885  0.2052
 1376TIP3    H225544   4.935   4.001  13.207  0.6133 -0.1169  0.2168
 1377TIP3   OH225545   0.599   5.347   5.594 -0.3624  0.1551 -0.0594
 1377TIP3    H125546   0.557   5.366   5.678 -0.2477  0.1552 -0.0025
 1377TIP3    H225547   0.605   5.251   5.592 -1.2096  0.1023 -0.4758
 1378TIP3   OH225548   2.978   0.430  12.753 -0.4540 -0.5599  0.0433
 1378TIP3    H125549   3.011   0.452  12.840  1.4628  1.0886 -1.0505
 1378TIP3    H225550   2.994   0.509  12.701 -4.3630 -0.3974 -1.0893
 1379TIP3   OH225551   6.376   1.810   5.601 -0.2257 -0.1105  0.2288
 1379TIP3    H125552   6.417   1.800   5.687 -2.1077 -0.1120  1.1461
 1379TIP3    H225553   6.367   1.905   5.590  3.4102  0.1254 -1.6542
 1380TIP3   OH225554   0.975   0.080   5.276  0.3168  0.0086  0.9813
 1380TIP3    H125555   0.987   0.160   5.225 -2.5343 -1.0410 -1.5207
 1380TIP3    H225556   0.903   0.101   5.336 -1.4617 -1.0664 -0.7111
 1381TIP3   OH225557   6.078   6.274   1.645  0.0144  0.5548  0.9102
 1381TIP3    H125558   6.128   6.277   1.564 -0.8218 -1.6701  0.2769
 1381TIP3    H225559   6.143   6.265   1.714  0.6100  0.0718  0.2885
 1382TIP3   OH225560   3.501   1.517  11.791  0.4697 -0.1196 -0.2044
 1382TIP3    H125561   3.566   1.501  11.722  0.7884  0.7258 -0.1040
 1382TIP3    H225562   3.515   1.446  11.854  2.8508  1.3242  0.9644
 1383TIP3   OH225563   5.270   1.197   0.974 -0.5702 -0.4425 -0.2348
 1383TIP3    H125564   5.346   1.241   1.013  0.2338  0.0366 -2.2748
 1383TIP3    H225565   5.282   1.105   0.994  0.8750 -0.4406 -1.0581
 1384TIP3   OH225566   0.780   5.763   3.619  0.1622  0.1941 -0.1692
 1384TIP3    H125567   0.766   5.801   3.706  0.4055 -0.6211  0.2342
 1384TIP3    H225568   0.853   5.813   3.582 -1.1121  1.7632 -0.6558
 1385TIP3   OH225569   0.347   6.078   2.858  0.1461  0.2628 -0.3094
 1385TIP3    H125570   0.398   6.127   2.793  0.8503 -0.4089 -0.2616
 1385TIP3    H225571   0.323   5.997   2.814  1.9171 -0.8656  0.7598
 1386TIP3   OH225572   4.406   0.634  14.209  0.3464  0.7216 -0.0732
 1386TIP3    H125573   4.312   0.636  14.190  0.4085 -2.5636 -0.9169
 1386TIP3    H225574   4.436   0.722  14.184 -2.0593  1.0460 -2.1385
 1387TIP3   OH225575   0.409   4.979  16.688 -0.3548 -0.3826  0.2333
 1387TIP3    H125576   0.494   5.000  16.727 -0.2362 -0.1341 -0.1589
 1387TIP3    H225577   0.347   5.039  16.730 -0.6195 -1.6685  1.7192
 1388TIP3   OH225578   5.757   6.034   2.848 -0.3973  0.3801  0.0943
 1388TIP3    H125579   5.799   6.080   2.920 -0.8572  1.0789 -0.0819
 1388TIP3    H225580   5.690   5.979   2.890 -0.3079  0.3876  0.2440
 1389TIP3   OH225581   1.130   6.500  15.397 -0.6142 -0.0108 -0.0660
 1389TIP3    H125582   1.197   6.432  15.396 -2.8723 -2.3250 -1.3810
 1389TIP3    H225583   1.107   6.512  15.304 -0.5925  2.2350  0.1881
 1390TIP3   OH225584   6.574   2.043   5.129  0.9865 -0.0674 -0.5350
 1390TIP3    H125585   6.605   2.114   5.073  1.9440 -0.7219 -0.8400
 1390TIP3    H225586   6.631   1.969   5.108 -0.0180 -0.9405 -0.2480
 1391TIP3   OH225587   4.602   1.899   3.502 -0.0577  0.5469  0.4019
 1391TIP3    H125588   4.553   1.826   3.464  2.1090 -0.2927 -0.8237
 1391TIP3    H225589   4.620   1.872   3.592 -1.5722  0.7630  0.8012
 1392TIP3   OH225590   3.033   5.604  15.832 -0.2793 -0.2423 -1.2635
 1392TIP3    H125591   2.965   5.566  15.777 -0.9611 -0.3333 -0.3703
 1392TIP3    H225592   2.993   5.609  15.919  0.7446  0.0001 -0.8029
 1393TIP3   OH225593   4.151   1.259  11.775 -0.8175 -0.1678 -0.6553
 1393TIP3    H125594   4.133   1.167  11.756  1.3479 -0.1527 -3.0635
 1393TIP3    H225595   4.246   1.265  11.775 -0.9117  1.7490  1.3078
 1394TIP3   OH225596   1.329   0.344   2.044 -0.6677 -0.2515  0.1196
 1394TIP3    H125597   1.241   0.379   2.061 -0.6194 -0.1089  0.0804
 1394TIP3    H225598   1.332   0.262   2.093  0.0280  0.9364  2.1478
 1395TIP3   OH225599   1.573   2.585   6.885  0.0564 -0.0790 -0.2908
 1395TIP3    H125600   1.524   2.568   6.805  0.6321  0.5180 -0.7719
 1395TIP3    H225601   1.507   2.611   6.949 -0.4120 -0.6177 -0.5502
 1396TIP3   OH225602   3.176   1.306   3.418 -0.3779 -0.2775  0.0580
 1396TIP3    H125603   3.089   1.324   3.381 -1.5648 -1.7339  2.0600
 1396TIP3    H225604   3.159   1.287   3.511  2.1191 -0.3239  0.5334
 1397TIP3   OH225605   2.051   3.782  11.302 -0.0245 -0.0719  0.5501
 1397TIP3    H125606   2.132   3.757  11.347 -0.1260  0.6712  1.1669
 1397TIP3    H225607   2.023   3.703  11.257 -0.0278 -0.9082  1.9847
 1398TIP3   OH225608   5.087   1.532   1.225  0.6494 -0.3623 -0.0548
 1398TIP3    H125609   5.044   1.463   1.175 -0.2332 -0.1080  0.3415
 1398TIP3    H225610   5.028   1.607   1.218  1.0554  0.0096  0.4518
 1399TIP3   OH225611   1.285   4.556  12.673  0.1453  0.1744  0.3452
 1399TIP3    H125612   1.297   4.561  12.768  2.3923 -0.1683  0.1109
 1399TIP3    H225613   1.270   4.646  12.645  1.4670  0.5324  0.7846
 1400TIP3   OH225614   6.533   1.457  11.959 -0.1598 -0.0166  0.2811
 1400TIP3    H125615   6.449   1.415  11.979  0.4862 -1.7841 -0.6370
 1400TIP3    H225616   6.521   1.497  11.873 -0.2078  0.1806  0.3773
 1401TIP3   OH225617   0.478   1.677  16.021 -0.2736 -0.3180  0.0859
 1401TIP3    H125618   0.391   1.690  16.059 -0.0487 -0.1561  0.5535
 1401TIP3    H225619   0.517   1.765  16.020 -0.5285 -0.2082 -1.1484
 1402TIP3   OH225620   0.401   5.329   0.964  0.2624  0.1154  0.6614
 1402TIP3    H125621   0.342   5.306   1.036 -1.4915 -0.1712 -0.8333
 1402TIP3    H225622   0.467   5.384   1.004  0.0360 -1.0849  2.7523
 1403TIP3   OH225623   3.248   0.503  14.271  0.2083 -0.3029 -0.1022
 1403TIP3    H125624   3.293   0.441  14.328 -0.2417 -0.2165  0.3529
 1403TIP3    H225625   3.208   0.449  14.203  1.3202 -0.3445 -0.7272
 1404TIP3   OH225626   2.495   5.835  16.063  0.3347 -0.0544 -0.6320
 1404TIP3    H125627   2.572   5.888  16.085  1.0603 -1.5687  0.6550
 1404TIP3    H225628   2.426   5.898  16.043  1.3017  1.3517  0.3938
 1405TIP3   OH225629   1.761   1.328   0.879  0.2057  0.9263 -0.0109
 1405TIP3    H125630   1.852   1.327   0.907  0.1780  1.1494  0.0864
 1405TIP3    H225631   1.765   1.342   0.784  0.2567  1.4126  0.0629
 1406TIP3   OH225632   3.678   2.111  16.962 -0.8063  0.4561  0.0820
 1406TIP3    H125633   3.684   2.020  16.991 -0.3228  0.6419  0.5770
 1406TIP3    H225634   3.629   2.107  16.880 -2.1080 -0.0800  0.8786
 1407TIP3   OH225635   3.546   4.737   3.658 -0.6954  0.2873 -0.7597
 1407TIP3    H125636   3.569   4.827   3.637 -0.0559  0.4427  0.5455
 1407TIP3    H225637   3.460   4.742   3.700  0.8346  0.7111  2.4813
 1408TIP3   OH225638   1.916   2.895  15.994 -0.2826 -0.5981 -0.1118
 1408TIP3    H125639   1.963   2.978  15.989  1.6167 -1.6827 -0.8743
 1408TIP3    H225640   1.885   2.890  16.084  0.0764  0.6690  0.0968
 1409TIP3   OH225641   1.807   2.210  16.243 -0.0747 -0.8132  0.0141
 1409TIP3    H125642   1.817   2.294  16.288 -0.9411 -0.1387 -0.9976
 1409TIP3    H225643   1.720   2.179  16.269  0.8041 -2.0951  1.4909
 1410TIP3   OH225644   5.366   4.298  11.972  0.5568 -0.0348  0.4989
 1410TIP3    H125645   5.389   4.262  11.886 -1.7385 -0.7067  0.1296
 1410TIP3    H225646   5.448   4.293  12.023  2.3522  1.7778 -2.0697
 1411TIP3   OH225647   0.643   3.115   0.978 -0.2550 -0.4155  0.2662
 1411TIP3    H125648   0.678   3.194   0.937 -0.3213 -0.9907 -0.9202
 1411TIP3    H225649   0.630   3.054   0.905 -1.9457 -0.8729  0.9284
 1412TIP3   OH225650   5.427   5.705   6.604 -0.1836  0.2065  1.0306
 1412TIP3    H125651   5.425   5.638   6.536  0.2704 -1.5298  2.6934
 1412TIP3    H225652   5.347   5.755   6.590  0.1025  0.1302 -1.0206
 1413TIP3   OH225653   0.660   3.543  11.581 -0.0803  0.0083  0.1960
 1413TIP3    H125654   0.747   3.581  11.592  0.3041 -0.1633 -2.0464
 1413TIP3    H225655   0.600   3.610  11.615  0.8619  0.5896  0.7115
 1414TIP3   OH225656   1.257   3.600   2.134  0.2842 -0.0634 -0.0269
 1414TIP3    H125657   1.336   3.549   2.152  0.4987 -0.4694 -2.0319
 1414TIP3    H225658   1.288   3.691   2.130  0.8971 -0.3318 -2.0214
 1415TIP3   OH225659   5.514   4.564  14.718  0.9143 -0.1993 -0.3729
 1415TIP3    H125660   5.564   4.487  14.689 -1.2932 -0.7067 -2.9843
 1415TIP3    H225661   5.460   4.588  14.642 -2.1718  0.8511  2.0551
 1416TIP3   OH225662   0.323   2.890  14.504  0.1943 -0.8747  0.2425
 1416TIP3    H125663   0.347   2.981  14.482 -0.4011 -0.9251 -0.6533
 1416TIP3    H225664   0.321   2.846  14.419  0.0145 -1.6172  0.6350
 1417TIP3   OH225665   0.708   6.014  13.197  0.4546  0.1910 -0.3925
 1417TIP3    H125666   0.639   6.063  13.243 -0.0734  0.9994 -2.0337
 1417TIP3    H225667   0.693   5.923  13.222 -0.6588  0.4627 -0.0473
 1418TIP3   OH225668   6.629   1.130   4.410  0.3599  0.1329  0.2776
 1418TIP3    H125669   6.567   1.198   4.383 -0.7378 -1.3606 -1.0123
 1418TIP3    H225670   6.621   1.127   4.505 -0.5381  0.9059  0.2388
 1419TIP3   OH225671   5.598   3.177   1.534  0.8122 -0.2146 -0.3452
 1419TIP3    H125672   5.682   3.212   1.506  1.0432 -0.2109  0.3261
 1419TIP3    H225673   5.620   3.113   1.602  0.3090 -0.6284 -0.5621
 1420TIP3   OH225674   2.301   2.971  12.762 -0.4315  0.1627 -0.0687
 1420TIP3    H125675   2.359   3.029  12.811  1.0360 -0.6071 -0.8442
 1420TIP3    H225676   2.304   2.888  12.811 -0.3233 -0.0853 -0.4951
 1421TIP3   OH225677   5.033   3.591   3.323 -0.2928  0.4297 -0.2586
 1421TIP3    H125678   5.095   3.548   3.381 -0.2220  1.9014  0.7937
 1421TIP3    H225679   5.057   3.562   3.235  0.9357 -0.1680  0.2688
 1422TIP3   OH225680   4.461   6.720   1.428 -0.5713 -0.2582  0.9337
 1422TIP3    H125681   4.409   6.711   1.508  0.9623 -3.0552  1.6875
 1422TIP3    H225682   4.419   6.661   1.366  0.2233 -0.6336  0.7500
 1423TIP3   OH225683   5.758   1.131  13.877 -0.3814  0.3225  0.0166
 1423TIP3    H125684   5.799   1.116  13.792 -0.1661  0.3348  0.1198
 1423TIP3    H225685   5.668   1.155  13.856 -0.4276 -0.0306 -0.1963
 1424TIP3   OH225686   1.161   4.807  11.869  0.0205  0.4455  0.2891
 1424TIP3    H125687   1.220   4.776  11.801 -1.6049 -1.5201 -0.3001
 1424TIP3    H225688   1.111   4.877  11.828 -1.2892 -1.0595 -0.7406
 1425TIP3   OH225689   5.999   4.327  15.318 -0.0934  0.1835 -0.5900
 1425TIP3    H125690   5.991   4.268  15.243  1.4465 -0.3908 -0.3303
 1425TIP3    H225691   6.091   4.355  15.317 -0.6215  1.9800 -0.2541
 1426TIP3   OH225692   3.690   0.867  14.980 -0.1647  0.3557 -0.2116
 1426TIP3    H125693   3.649   0.806  15.041 -0.8776  1.2595  0.2289
 1426TIP3    H225694   3.619   0.925  14.953  0.4888  0.9458 -0.6763
 1427TIP3   OH225695   1.640   5.130   1.398 -1.0142  0.3975  0.0212
 1427TIP3    H125696   1.603   5.057   1.447  0.3478 -0.7837 -0.6648
 1427TIP3    H225697   1.601   5.124   1.311  0.3163 -0.5088 -0.5302
 1428TIP3   OH225698   3.412   3.619   1.167  0.6216 -0.5332 -0.2321
 1428TIP3    H125699   3.403   3.546   1.228  0.7198 -0.9001 -0.6545
 1428TIP3    H225700   3.323   3.649   1.152  0.7230  0.6674  1.4272
 1429TIP3   OH225701   3.692   0.071  14.672 -0.0357  0.7986  0.1403
 1429TIP3    H125702   3.654  -0.015  14.654  2.5307 -0.2822 -0.3511
 1429TIP3    H225703   3.699   0.112  14.586 -0.1995  1.0329  0.2402
 1430TIP3   OH225704   2.223   6.569  10.884  0.1855 -0.9900 -0.4576
 1430TIP3    H125705   2.146   6.618  10.856  0.5225 -0.3550 -0.2847
 1430TIP3    H225706   2.296   6.630  10.875  0.1775 -0.4240  2.7229
 1431TIP3   OH225707   0.011   1.538  16.792  0.0215  0.7583  0.2651
 1431TIP3    H125708  -0.032   1.608  16.841  0.6991  1.4536 -0.1141
 1431TIP3    H225709   0.090   1.519  16.843 -0.5336 -0.2450  0.7593
 1432TIP3   OH225710   3.087   3.862  16.613 -0.0504 -0.1414  0.3833
 1432TIP3    H125711   2.998   3.860  16.649 -0.2547  0.6971 -0.0699
 1432TIP3    H225712   3.085   3.931  16.547  1.2991  0.8294  1.3230
 1433TIP3   OH225713   3.425   3.444  14.936  0.1515 -0.5203 -0.1261
 1433TIP3    H125714   3.478   3.455  15.015  0.0485 -1.1784  0.0427
 1433TIP3    H225715   3.358   3.512  14.942 -0.6465 -1.3894  1.0161
 1434TIP3   OH225716   4.427   3.558   3.670  0.0422  0.1025  0.4947
 1434TIP3    H125717   4.484   3.633   3.652  2.1750 -1.8383 -1.0801
 1434TIP3    H225718   4.481   3.498   3.722 -0.9911 -1.1827  0.1291
 1435TIP3   OH225719   0.772   6.672  10.789 -0.8000  0.5862  0.1469
 1435TIP3    H125720   0.861   6.657  10.757 -0.3050  1.2470  1.1859
 1435TIP3    H225721   0.763   6.767  10.789 -1.4358  0.5252  0.2215
 1436TIP3   OH225722   6.777   2.024   0.407  0.3417 -0.4856 -0.1467
 1436TIP3    H125723   6.819   1.962   0.468 -1.4217 -0.3561  1.2453
 1436TIP3    H225724   6.717   1.970   0.357 -1.6380  0.1519  1.4802
 1437TIP3   OH225725   1.728   1.653  14.597 -0.0718  0.2701 -0.0434
 1437TIP3    H125726   1.711   1.744  14.623 -0.5201  0.3310 -0.5585
 1437TIP3    H225727   1.716   1.603  14.678  1.1802  0.7822  0.4858
 1438TIP3   OH225728   6.104   4.699   2.679  0.2444 -0.4710  0.5553
 1438TIP3    H125729   6.108   4.692   2.584 -0.1776 -1.6563  0.6221
 1438TIP3    H225730   6.169   4.636   2.711 -0.6243 -1.1002  1.0826
 1439TIP3   OH225731   4.476   1.723   4.455 -0.1851  0.0498  0.0494
 1439TIP3    H125732   4.404   1.664   4.477 -0.9760  1.3101  0.9172
 1439TIP3    H225733   4.515   1.747   4.540  0.4758  0.3253 -0.3268
 1440TIP3   OH225734   0.153   2.589   0.370  0.3588 -0.1610  0.0900
 1440TIP3    H125735   0.240   2.626   0.356 -0.2176  2.0027  1.9083
 1440TIP3    H225736   0.095   2.642   0.315  0.0025 -0.7082 -0.0679
 1441TIP3   OH225737   4.625   6.307   1.286 -0.5578 -0.0462  0.4417
 1441TIP3    H125738   4.606   6.299   1.192  0.8853 -0.7746  0.1976
 1441TIP3    H225739   4.586   6.229   1.325 -1.0999  0.2232  0.4453
 1442TIP3   OH225740   0.725   5.025  12.715 -0.0866  0.0223  0.1492
 1442TIP3    H125741   0.674   4.955  12.673 -0.2222  0.6162 -0.7049
 1442TIP3    H225742   0.714   5.010  12.809 -1.5949 -0.0489 -0.0183
 1443TIP3   OH225743   0.874   6.225   5.960  0.1054  0.1370  0.0740
 1443TIP3    H125744   0.883   6.244   6.054 -1.3793 -0.5057  0.3684
 1443TIP3    H225745   0.779   6.215   5.947  0.2541  0.7800 -1.6108
 1444TIP3   OH225746   0.187   1.954   2.124  0.4541 -0.2803  0.1648
 1444TIP3    H125747   0.218   2.035   2.165 -0.3030  0.1764 -0.1550
 1444TIP3    H225748   0.105   1.934   2.169 -1.5084  1.3887 -2.5123
 1445TIP3   OH225749   5.267   1.296  13.169  0.3078  0.2478  0.3267
 1445TIP3    H125750   5.328   1.242  13.220  0.8053 -0.5252 -1.0585
 1445TIP3    H225751   5.183   1.251  13.177  0.9966 -1.5544 -1.9469
 1446TIP3   OH225752   4.773   1.358  13.847  0.0535  0.3572 -0.1057
 1446TIP3    H125753   4.725   1.280  13.876 -0.9313  0.9948 -0.0057
 1446TIP3    H225754   4.852   1.358  13.901 -0.6781  0.2751  0.9794
 1447TIP3   OH225755   4.368   1.252  15.459  0.1199  0.4788  0.0825
 1447TIP3    H125756   4.378   1.184  15.393  1.9865  1.0366 -0.2440
 1447TIP3    H225757   4.331   1.207  15.535  2.7910 -1.2711  0.4267
 1448TIP3   OH225758   5.958   6.128  11.404  0.1465  0.0281 -0.2312
 1448TIP3    H125759   6.043   6.092  11.428  0.6366  1.1875 -0.2243
 1448TIP3    H225760   5.978   6.203  11.349 -0.9004 -0.4179 -1.2398
 1449TIP3   OH225761   5.395   2.323   5.578 -0.0524 -0.1680  0.2157
 1449TIP3    H125762   5.390   2.269   5.657 -0.9249 -2.5218 -1.3975
 1449TIP3    H225763   5.478   2.300   5.538  0.9943  1.9912  1.0844
 1450TIP3   OH225764   2.453   0.689  12.397  0.1005  0.2474  0.8488
 1450TIP3    H125765   2.411   0.712  12.479 -1.4188  1.9168 -0.3547
 1450TIP3    H225766   2.439   0.595  12.387  0.0830  0.0911  2.3542
 1451TIP3   OH225767   5.853   3.021   0.270  0.2802 -0.2082 -0.3364
 1451TIP3    H125768   5.923   3.081   0.295  1.1296 -1.0535 -0.6398
 1451TIP3    H225769   5.790   3.075   0.223  1.4951  0.2686 -1.4464
 1452TIP3   OH225770   2.552   1.389   0.970  0.1559 -0.6701 -0.4256
 1452TIP3    H125771   2.598   1.429   1.044 -0.3990 -1.7229  0.5014
 1452TIP3    H225772   2.597   1.422   0.893  1.0716  0.0379  0.4019
 1453TIP3   OH225773   3.926   1.003  15.063 -0.3354  0.2090 -0.2209
 1453TIP3    H125774   3.841   0.974  15.030 -0.7906  0.8065  0.3985
 1453TIP3    H225775   3.919   0.995  15.158 -0.0400  1.1615 -0.1133
 1454TIP3   OH225776   6.478   0.997  15.115 -0.5904 -0.6991 -0.6496
 1454TIP3    H125777   6.436   1.064  15.168  0.8771 -1.0346  0.9930
 1454TIP3    H225778   6.550   1.042  15.072  1.4233 -1.5107  1.7470
 1455TIP3   OH225779   2.447   2.175   6.370 -0.9766 -0.3362 -0.0189
 1455TIP3    H125780   2.388   2.228   6.316 -1.0373 -1.4439 -1.0377
 1455TIP3    H225781   2.486   2.238   6.431 -1.3872  0.8081 -0.9218
 1456TIP3   OH225782   3.237   5.110  10.470 -0.0992  0.1564  0.3407
 1456TIP3    H125783   3.192   5.074  10.394 -0.2375 -0.3029  0.6411
 1456TIP3    H225784   3.206   5.058  10.544 -0.3437  0.9312  0.7886
 1457TIP3   OH225785   6.350   0.076   1.323  0.5821  0.1188 -0.7122
 1457TIP3    H125786   6.353   0.157   1.375  1.5671 -1.1546  1.2567
 1457TIP3    H225787   6.299   0.015   1.376  1.2844 -1.1024 -1.4252
 1458TIP3   OH225788   5.784   2.794   4.940 -0.2173 -0.2036  0.0505
 1458TIP3    H125789   5.743   2.851   5.004  1.3892 -0.1564  1.0546
 1458TIP3    H225790   5.797   2.711   4.986 -1.7891 -1.1507 -1.1423
 1459TIP3   OH225791   2.824   5.055  11.725  0.5820  1.0414 -0.3446
 1459TIP3    H125792   2.870   5.084  11.646  0.8530  0.9004 -0.2377
 1459TIP3    H225793   2.732   5.050  11.698  0.5194  2.0907 -0.3405
 1460TIP3   OH225794   1.931   0.871   5.793 -0.0859  0.3625  0.2310
 1460TIP3    H125795   2.027   0.869   5.792 -0.0576  1.2534 -0.9420
 1460TIP3    H225796   1.906   0.819   5.869  1.2703 -1.8785 -0.8233
 1461TIP3   OH225797   1.475   6.453  14.464  0.0702 -0.7321 -0.6901
 1461TIP3    H125798   1.516   6.479  14.381 -0.3895  0.8933 -0.4335
 1461TIP3    H225799   1.396   6.406  14.438 -1.2287  1.6531 -1.2223
 1462TIP3   OH225800   0.583   0.154   0.622  0.1054 -0.4198 -0.9831
 1462TIP3    H125801   0.557   0.147   0.530  0.9882 -2.2686 -1.1344
 1462TIP3    H225802   0.528   0.090   0.667  2.2777 -2.2684 -0.8545
 1463TIP3   OH225803   1.532   0.145   1.123 -0.0703 -0.4288  0.2483
 1463TIP3    H125804   1.491   0.178   1.203 -3.0506 -0.4500 -1.1898
 1463TIP3    H225805   1.499   0.201   1.054 -0.1131 -2.3979 -1.3869
 1464TIP3   OH225806   0.542   4.134  16.263  0.7501  0.6190 -0.3192
 1464TIP3    H125807   0.515   4.201  16.326  0.8382  1.5590 -1.2629
 1464TIP3    H225808   0.531   4.176  16.178  0.2937 -0.7584 -0.9510
 1465TIP3   OH225809   2.490   3.445   3.686 -0.1320  0.4392  0.2582
 1465TIP3    H125810   2.400   3.474   3.675  0.0814  1.2934  0.7047
 1465TIP3    H225811   2.538   3.485   3.614 -0.3659 -1.1980 -0.8279
 1466TIP3   OH225812   4.145   0.545   3.066 -0.1196 -0.4512 -0.0030
 1466TIP3    H125813   4.061   0.502   3.051 -0.9593  1.2028 -0.1274
 1466TIP3    H225814   4.183   0.555   2.979  0.4942 -1.7205  0.1010
 1467TIP3   OH225815   3.455   0.625   4.829  0.0270 -0.3805 -0.0706
 1467TIP3    H125816   3.420   0.687   4.765 -1.0209 -1.7735 -0.8454
 1467TIP3    H225817   3.540   0.663   4.854 -1.3537  2.2954  0.8071
 1468TIP3   OH225818   2.128   5.950   2.067 -0.5887  0.2422 -0.2968
 1468TIP3    H125819   2.096   6.039   2.082  1.7571  0.8697  1.1854
 1468TIP3    H225820   2.115   5.905   2.151  0.4817 -0.0979 -0.3107
 1469TIP3   OH225821   3.020   5.968   5.301 -0.2424  0.2542  0.0649
 1469TIP3    H125822   2.929   5.993   5.320 -0.0256  0.9737  0.1958
 1469TIP3    H225823   3.068   6.051   5.303  0.6286 -0.2660  1.1878
 1470TIP3   OH225824   3.503   1.142   5.198 -0.0619  0.2490  0.0384
 1470TIP3    H125825   3.564   1.082   5.154 -0.4830 -0.5306  0.4955
 1470TIP3    H225826   3.416   1.104   5.182 -0.1948 -0.2419  1.8057
 1471TIP3   OH225827   0.691   4.685   4.634  0.1150 -0.1826 -0.2102
 1471TIP3    H125828   0.766   4.627   4.627  1.2658  1.0815  1.3326
 1471TIP3    H225829   0.710   4.757   4.574 -1.2591 -1.3002 -2.0417
 1472TIP3   OH225830   3.029   3.064   6.005 -0.2051 -0.3280  0.1223
 1472TIP3    H125831   2.985   3.106   5.930  0.1740 -0.4678 -0.1795
 1472TIP3    H225832   2.978   3.092   6.081 -2.2765 -2.4242 -0.4398
 1473TIP3   OH225833   5.626   2.048  13.186 -0.4144 -0.0660  0.1758
 1473TIP3    H125834   5.597   1.978  13.129  0.8203 -1.6712  1.4640
 1473TIP3    H225835   5.553   2.062  13.246 -1.0245  0.4062 -0.6736
 1474TIP3   OH225836   4.056   1.594  15.892 -0.4003  0.4838  0.3974
 1474TIP3    H125837   3.980   1.641  15.858 -0.9922 -0.3977  0.5086
 1474TIP3    H225838   4.125   1.612  15.828 -0.8176  0.9266  0.0672
 1475TIP3   OH225839   5.952   6.359  16.996 -0.5157 -0.0686 -0.1319
 1475TIP3    H125840   6.003   6.282  17.023 -2.5642 -1.4551 -0.1379
 1475TIP3    H225841   5.973   6.426  17.061 -0.3363 -1.3087  1.1138
 1476TIP3   OH225842   0.603   5.912   0.246 -0.0171 -0.0821 -0.5272
 1476TIP3    H125843   0.676   5.974   0.240 -0.9323  1.4667  2.9591
 1476TIP3    H225844   0.635   5.843   0.303 -1.6359  1.3063  2.1852
 1477TIP3   OH225845   0.578   3.000   1.833 -0.4611  0.1459  0.2625
 1477TIP3    H125846   0.506   2.941   1.813 -1.0036  0.3005  1.7247
 1477TIP3    H225847   0.547   3.053   1.907  1.0240  0.4216  0.7102
 1478TIP3   OH225848   3.430   0.929   5.962 -0.1640 -0.3623  0.0384
 1478TIP3    H125849   3.460   1.006   6.011 -2.5713 -0.0586  1.0670
 1478TIP3    H225850   3.425   0.960   5.871 -1.1243  0.7187  0.4417
 1479TIP3   OH225851   2.851   4.446   5.181 -0.5136 -0.0400 -0.0288
 1479TIP3    H125852   2.815   4.390   5.111  0.2119  0.7297 -1.0389
 1479TIP3    H225853   2.790   4.435   5.254 -1.6556 -0.3697 -1.0014
 1480TIP3   OH225854   0.559   1.970  12.236 -0.1735 -0.3977 -0.3413
 1480TIP3    H125855   0.544   2.031  12.163 -0.5818 -1.7343 -1.3914
 1480TIP3    H225856   0.600   1.894  12.195  1.0290 -0.5428  1.0785
 1481TIP3   OH225857   2.049   0.392   0.101 -0.0140  0.3104  0.3273
 1481TIP3    H125858   2.098   0.327   0.052 -0.4754  0.4359 -0.2972
 1481TIP3    H225859   2.116   0.451   0.136  0.4969 -1.1532  1.8752
 1482TIP3   OH225860   0.168   4.943   4.491  0.0898  0.5193 -0.1674
 1482TIP3    H125861   0.166   4.903   4.404 -1.5077  0.2526 -0.0128
 1482TIP3    H225862   0.106   4.891   4.542  1.0452  0.6485  1.1524
 1483TIP3   OH225863   2.244   0.480   5.505 -0.3280  0.5163  0.0202
 1483TIP3    H125864   2.175   0.458   5.443 -0.3672  0.0309  0.2406
 1483TIP3    H225865   2.324   0.481   5.452  0.1533 -3.1174  0.5376
 1484TIP3   OH225866   4.649   3.783   5.116 -0.1240 -0.1588  0.0275
 1484TIP3    H125867   4.651   3.877   5.102 -0.2833 -0.2069 -0.3352
 1484TIP3    H225868   4.561   3.765   5.150  0.4182  0.0168  1.5400
 1485TIP3   OH225869   4.471   3.098   1.783 -0.8043 -0.0118  0.2039
 1485TIP3    H125870   4.495   3.156   1.855 -0.8972  0.4594 -0.1425
 1485TIP3    H225871   4.388   3.058   1.812 -1.6871  1.3902 -0.3217
 1486TIP3   OH225872   0.512   5.009   3.915  0.2023 -0.1775  0.3425
 1486TIP3    H125873   0.422   5.011   3.947 -0.0746  1.3413 -0.4848
 1486TIP3    H225874   0.503   4.996   3.821  0.7009  3.1436 -0.2126
 1487TIP3   OH225875   4.560   3.907   1.680 -0.9480 -0.4082  0.5329
 1487TIP3    H125876   4.468   3.927   1.661 -1.2726 -2.5104 -0.3557
 1487TIP3    H225877   4.609   3.950   1.611 -1.2138  1.1300  1.2858
 1488TIP3   OH225878   4.431   2.563   3.937 -0.2003 -0.0021  0.1979
 1488TIP3    H125879   4.389   2.542   3.854 -1.0503  3.0896 -0.2236
 1488TIP3    H225880   4.523   2.579   3.915 -0.7683  2.5813 -0.5297
 1489TIP3   OH225881   3.876   0.794  12.039 -0.2847  0.0904  0.4533
 1489TIP3    H125882   3.828   0.735  11.981 -0.2189  1.1500 -0.6901
 1489TIP3    H225883   3.809   0.843  12.085 -0.3244  0.9663 -0.5196
 1490TIP3   OH225884   4.266   3.249  11.861 -0.4332 -0.0706 -1.3078
 1490TIP3    H125885   4.335   3.306  11.892  0.5524 -1.1533 -1.4731
 1490TIP3    H225886   4.229   3.210  11.941  1.7708 -2.4757 -1.3920
 1491TIP3   OH225887   2.050   4.841   4.924  0.1174  0.2431 -0.1527
 1491TIP3    H125888   2.013   4.889   4.998 -1.6127 -1.2331 -0.0368
 1491TIP3    H225889   1.984   4.848   4.855  0.0444 -1.5323 -0.2906
 1492TIP3   OH225890   3.489   5.046   2.260  0.0272 -0.2373 -0.1434
 1492TIP3    H125891   3.580   5.020   2.271 -0.0181 -0.6710 -0.8014
 1492TIP3    H225892   3.478   5.058   2.166 -0.4964  0.1808 -0.0325
 1493TIP3   OH225893   2.363   6.702  11.151 -0.6563 -0.2125  0.2932
 1493TIP3    H125894   2.332   6.770  11.090 -0.8039  0.4876  1.1300
 1493TIP3    H225895   2.385   6.628  11.095 -0.3612  0.5732 -0.6548
 1494TIP3   OH225896   3.101   3.078  11.480  0.1292  0.6870 -0.3595
 1494TIP3    H125897   3.142   3.120  11.405  0.4693  0.6495 -0.1980
 1494TIP3    H225898   3.044   3.011  11.442  2.4525 -1.2551 -0.5131
 1495TIP3   OH225899   4.129   5.845   0.010  0.2268 -0.6564  0.5368
 1495TIP3    H125900   4.171   5.894  -0.061  1.1787 -2.3424 -0.0970
 1495TIP3    H225901   4.053   5.897   0.034  0.9276  0.8577 -0.4753
 1496TIP3   OH225902   0.187   2.336  15.299 -0.0806  1.0833 -0.1648
 1496TIP3    H125903   0.107   2.372  15.260 -0.3775  0.1753 -0.4037
 1496TIP3    H225904   0.180   2.357  15.392 -0.4874  1.2166 -0.2263
 1497TIP3   OH225905   0.997   6.507  13.171 -0.2802  0.1104 -0.9210
 1497TIP3    H125906   1.054   6.581  13.191  0.0245 -0.5681  0.8565
 1497TIP3    H225907   1.000   6.453  13.250 -2.9890 -0.1951 -0.9805
 1498TIP3   OH225908   1.107   5.723  16.133 -0.0830  0.0575 -0.1246
 1498TIP3    H125909   1.105   5.746  16.040  0.3750  1.7800  0.2843
 1498TIP3    H225910   1.052   5.789  16.175 -1.3523 -1.4880  0.6711
 1499TIP3   OH225911   0.870   0.603   4.861 -0.1561 -0.5122  0.4038
 1499TIP3    H125912   0.854   0.648   4.779 -1.9672  0.2975  1.1724
 1499TIP3    H225913   0.840   0.513   4.846 -0.3883 -0.3926  0.1607
 1500TIP3   OH225914   3.846   4.918   5.117  0.5665 -0.0162  0.3258
 1500TIP3    H125915   3.837   4.932   5.211  0.0075  0.2804  0.2307
 1500TIP3    H225916   3.756   4.914   5.085  0.7531 -0.3890 -0.1573
 1501TIP3   OH225917   2.278   4.745  13.678  0.1438  0.3943 -0.2762
 1501TIP3    H125918   2.333   4.671  13.652 -0.2135  0.0909 -0.1738
 1501TIP3    H225919   2.321   4.821  13.639 -0.8049 -0.1374 -2.4150
 1502TIP3   OH225920   0.678   1.531  12.359  0.1254 -0.1040 -0.3302
 1502TIP3    H125921   0.641   1.552  12.273 -0.0688  0.5135 -0.1020
 1502TIP3    H225922   0.662   1.610  12.411  1.4500  0.0439 -0.1279
 1503TIP3   OH225923   2.222   0.042   0.619 -0.0698 -0.4129  0.5179
 1503TIP3    H125924   2.136   0.084   0.628 -0.3112  0.0611 -3.1901
 1503TIP3    H225925   2.209  -0.047   0.653 -2.0431 -0.3573 -0.0170
 1504TIP3   OH225926   0.427   3.085   4.408 -0.7688 -0.4630 -0.5295
 1504TIP3    H125927   0.452   3.082   4.316  0.5204  0.0693 -0.2125
 1504TIP3    H225928   0.464   3.168   4.440 -0.4076 -1.0888  0.6936
 1505TIP3   OH225929   3.930   3.394   0.473 -0.2974 -0.0702  0.7303
 1505TIP3    H125930   3.901   3.416   0.385  0.3468 -0.2368  0.4741
 1505TIP3    H225931   3.987   3.466   0.498  0.5907 -0.6881  0.4877
 1506TIP3   OH225932   0.656   5.831  15.672  0.1137  0.1079 -0.2824
 1506TIP3    H125933   0.672   5.748  15.718  0.5632  1.5694  2.2601
 1506TIP3    H225934   0.742   5.870  15.663 -0.3836  1.5409  0.9834
 1507TIP3   OH225935   3.828   5.915   2.617 -0.4730  0.0899 -0.2151
 1507TIP3    H125936   3.829   5.934   2.711  0.7276  1.1534 -0.4231
 1507TIP3    H225937   3.799   5.997   2.577 -1.7324 -0.5930 -0.7351
 1508TIP3   OH225938   2.392   4.044  12.793 -0.1877  0.3491 -0.5082
 1508TIP3    H125939   2.471   3.995  12.816 -0.8962 -0.4409  0.2992
 1508TIP3    H225940   2.423   4.134  12.782  0.5524  0.3891  1.5582
 1509TIP3   OH225941   3.716   4.017   0.286  0.4882  0.2019 -0.0579
 1509TIP3    H125942   3.770   3.987   0.213 -1.2170  1.5729 -1.9144
 1509TIP3    H225943   3.648   3.950   0.295  0.8535 -0.1077  0.4952
 1510TIP3   OH225944   3.225   2.617   1.419 -0.2186 -0.4190  0.7771
 1510TIP3    H125945   3.212   2.672   1.496  1.3275 -1.1002  1.5461
 1510TIP3    H225946   3.271   2.673   1.356 -2.0140  0.3239  0.0990
 1511TIP3   OH225947   3.345   3.161  15.803 -0.4310 -0.1034 -0.5862
 1511TIP3    H125948   3.400   3.083  15.792 -1.2417 -1.3143  3.1233
 1511TIP3    H225949   3.407   3.234  15.801  0.4065 -0.7984 -3.5451
 1512TIP3   OH225950   3.947   1.335  13.881  0.0544 -0.3167 -0.0522
 1512TIP3    H125951   3.978   1.250  13.848  1.2371 -0.4382  1.3264
 1512TIP3    H225952   4.010   1.359  13.948  0.7343  2.4955 -1.6078
 1513TIP3   OH225953   5.883   6.660   5.658 -0.0051 -0.3484 -0.8235
 1513TIP3    H125954   5.890   6.621   5.745  2.0084 -1.0360 -1.2618
 1513TIP3    H225955   5.871   6.754   5.674  1.6618 -0.2908  0.1878
 1514TIP3   OH225956   2.469   3.263  12.395 -0.4831 -0.3692 -0.3729
 1514TIP3    H125957   2.480   3.217  12.478 -0.0235  0.1705 -0.1251
 1514TIP3    H225958   2.382   3.238  12.365 -1.3938  0.8388  1.1738
 1515TIP3   OH225959   1.708   0.270  13.017 -0.1915  0.3902  0.6851
 1515TIP3    H125960   1.688   0.180  13.044 -0.9190  0.0560 -0.8783
 1515TIP3    H225961   1.782   0.261  12.957 -0.9394  0.7007 -0.3097
 1516TIP3   OH225962   6.781   0.606  15.296  0.0613 -0.2539  0.3940
 1516TIP3    H125963   6.739   0.548  15.232 -0.3670  0.3772  0.0956
 1516TIP3    H225964   6.875   0.590  15.284 -0.0193 -0.2140 -0.3338
 1517TIP3   OH225965   2.260   3.180  15.572  0.2464 -0.3355 -0.6142
 1517TIP3    H125966   2.352   3.179  15.545  0.4400 -1.1423  0.0455
 1517TIP3    H225967   2.229   3.266  15.546  1.4981  0.3721  0.1614
 1518TIP3   OH225968   3.159   1.683   4.928 -0.4876  0.1807 -0.3325
 1518TIP3    H125969   3.069   1.684   4.960  0.0360  1.0632  1.1680
 1518TIP3    H225970   3.212   1.699   5.007  0.9849 -0.6056 -1.1499
 1519TIP3   OH225971   5.437   0.739   0.269  0.5651  0.1492  0.1772
 1519TIP3    H125972   5.359   0.771   0.315 -0.4744 -2.1615  0.0849
 1519TIP3    H225973   5.467   0.814   0.218 -2.1209  0.8335 -0.4662
 1520TIP3   OH225974   1.174   4.146  15.357 -0.6296 -0.2760 -0.1707
 1520TIP3    H125975   1.229   4.159  15.434  0.7900  0.2933 -1.2581
 1520TIP3    H225976   1.187   4.225  15.304  1.5868 -2.3485 -2.8966
 1521TIP3   OH225977   2.744   2.034   4.331  0.2847 -0.3436  0.2351
 1521TIP3    H125978   2.834   2.015   4.360  0.1200 -1.0272  0.3096
 1521TIP3    H225979   2.692   1.961   4.365 -0.2921  0.0218  0.1441
 1522TIP3   OH225980   0.261   4.914   6.677 -0.6047  0.3588  0.3921
 1522TIP3    H125981   0.267   4.965   6.596  1.1491 -2.4253 -1.3412
 1522TIP3    H225982   0.190   4.852   6.661 -0.6656  0.2145  1.2272
 1523TIP3   OH225983   3.764   0.894  13.153  0.2844 -0.1696  0.7266
 1523TIP3    H125984   3.772   0.806  13.188 -0.4066  0.0476  1.4457
 1523TIP3    H225985   3.716   0.884  13.071 -1.2181 -0.2914  1.6037
 1524TIP3   OH225986   3.126   2.689   6.009  0.7095  0.4388  0.0611
 1524TIP3    H125987   3.123   2.602   6.048  0.7940  1.2308  1.8849
 1524TIP3    H225988   3.205   2.729   6.045  0.3339  1.4977 -0.2578
 1525TIP3   OH225989   3.011   1.906  17.063 -0.4839 -0.0441 -0.3473
 1525TIP3    H125990   2.966   1.821  17.060 -1.4803  0.3885  1.5337
 1525TIP3    H225991   3.003   1.940  16.974  1.0896 -2.4994 -1.4697
 1526TIP3   OH225992   1.987   2.103   2.041  0.0320  0.4939 -0.0427
 1526TIP3    H125993   2.068   2.124   1.995  0.0368  0.6281  0.0291
 1526TIP3    H225994   1.993   2.151   2.123  1.2076 -1.7476  1.2406
 1527TIP3   OH225995   6.696   4.769   0.199 -0.0309  0.1765 -0.3921
 1527TIP3    H125996   6.738   4.804   0.278 -0.4446 -0.7082  0.2382
 1527TIP3    H225997   6.767   4.761   0.135  0.4482  0.2253  0.1297
 1528TIP3   OH225998   0.042   3.539  13.708  0.3031  0.6710  0.0328
 1528TIP3    H125999   0.081   3.584  13.633  0.4848 -0.3635 -0.5109
 1528TIP3    H226000   0.006   3.458  13.671 -1.5237  1.1580  0.6909
 1529TIP3   OH226001   0.526   5.447   4.106  1.1296  0.0405  0.2203
 1529TIP3    H126002   0.538   5.353   4.100  1.3157  0.0967 -0.3403
 1529TIP3    H226003   0.496   5.462   4.196 -4.2361 -1.0922 -1.2163
 1530TIP3   OH226004   4.743   1.944   4.485 -0.2600 -0.1290 -0.6089
 1530TIP3    H126005   4.754   1.875   4.419  0.0969  0.6492 -1.3758
 1530TIP3    H226006   4.805   2.012   4.459 -0.8620  0.6397 -0.0643
 1531TIP3   OH226007   6.531   2.391  14.423 -0.0392  0.0199  0.1709
 1531TIP3    H126008   6.468   2.441  14.371  0.2309  0.5587  0.3582
 1531TIP3    H226009   6.598   2.455  14.447  1.8286 -1.0577 -2.0057
 1532TIP3   OH226010   4.096   4.429  15.619 -0.2754  0.0919  0.2310
 1532TIP3    H126011   4.080   4.336  15.638  1.2197  0.0944  1.5555
 1532TIP3    H226012   4.021   4.474  15.657  0.3155 -0.3522  1.9825
 1533TIP3   OH226013   6.450   5.219  13.691 -0.0953  0.1398  0.0412
 1533TIP3    H126014   6.489   5.189  13.773 -1.3917  0.1857  0.6941
 1533TIP3    H226015   6.459   5.145  13.631  1.6625  0.4249 -0.0593
 1534TIP3   OH226016   2.007   2.017  15.301 -0.3067  0.4875 -0.2649
 1534TIP3    H126017   1.927   2.069  15.291  0.1132  1.3614  0.8497
 1534TIP3    H226018   2.054   2.029  15.218 -0.8524  0.7531 -0.5402
 1535TIP3   OH226019   6.114   5.809  15.383  0.2521  0.3490  0.1796
 1535TIP3    H126020   6.182   5.824  15.317 -0.9327  1.0645 -0.8882
 1535TIP3    H226021   6.032   5.829  15.338 -0.6104  0.2770  1.6978
 1536TIP3   OH226022   2.836   6.437   5.047  0.3926  0.3904 -0.2384
 1536TIP3    H126023   2.757   6.410   5.001  1.7819 -2.4443 -1.0564
 1536TIP3    H226024   2.889   6.479   4.979 -0.8719  3.5040  0.5836
 1537TIP3   OH226025   2.013   4.036   0.532  0.0239  0.2245 -0.6004
 1537TIP3    H126026   2.109   4.041   0.533  0.0122  0.6237 -1.0840
 1537TIP3    H226027   1.994   3.942   0.537  0.4657  0.0727 -1.6002
 1538TIP3   OH226028   5.304   4.843  11.837 -0.2241 -0.6833  0.2306
 1538TIP3    H126029   5.240   4.914  11.824 -0.0514 -0.6249 -0.3126
 1538TIP3    H226030   5.383   4.874  11.792  0.2398 -0.6851  1.0418
 1539TIP3   OH226031   5.659   4.475  17.104  0.4332  0.0203 -0.1084
 1539TIP3    H126032   5.668   4.506  17.014 -0.0850  0.5490  0.0203
 1539TIP3    H226033   5.579   4.517  17.136  2.1488  2.1190  1.5597
 1540TIP3   OH226034   3.800   3.052  14.569  0.5503 -0.5624 -0.2271
 1540TIP3    H126035   3.846   2.991  14.513  0.2461 -0.0797 -1.0133
 1540TIP3    H226036   3.708   3.043  14.545  0.6290  1.0478 -1.1871
 1541TIP3   OH226037   4.414   3.584  17.001  0.1609  0.4547 -0.5313
 1541TIP3    H126038   4.369   3.639  16.936 -1.0882  0.9711  0.7467
 1541TIP3    H226039   4.360   3.506  17.007  0.0925  0.5537  0.1297
 1542TIP3   OH226040   0.308   0.867   2.145  0.0037  0.0994 -0.1218
 1542TIP3    H126041   0.216   0.858   2.123 -0.5250 -1.5945  2.5135
 1542TIP3    H226042   0.338   0.777   2.162  1.1274  0.9363  2.6464
 1543TIP3   OH226043   2.062   6.776  11.673  0.1528 -0.5947  0.1327
 1543TIP3    H126044   2.068   6.753  11.766 -1.5616 -0.2493  0.3632
 1543TIP3    H226045   1.983   6.731  11.643 -0.0446  0.3771 -0.8257
 1544TIP3   OH226046   6.043   1.245  13.420  0.2322 -0.5850 -0.1002
 1544TIP3    H126047   5.989   1.217  13.494 -0.0039 -0.7217 -0.3236
 1544TIP3    H226048   6.121   1.190  13.426  0.1850 -0.6409  0.0115
 1545TIP3   OH226049   1.414   1.891   2.888 -0.7175 -0.3157 -0.4968
 1545TIP3    H126050   1.397   1.981   2.858  1.1471  0.5893  1.0633
 1545TIP3    H226051   1.371   1.836   2.823 -0.6616  1.6820 -2.2971
 1546TIP3   OH226052   5.317   0.722   3.799  0.0548  0.3170  0.4200
 1546TIP3    H126053   5.359   0.637   3.814 -0.9688 -0.3869 -0.5771
 1546TIP3    H226054   5.264   0.736   3.877  0.8067  0.4012  0.9243
 1547TIP3   OH226055   3.096   4.217  16.903  0.7334  0.4048 -0.2057
 1547TIP3    H126056   3.085   4.208  16.997  1.8197 -1.6311 -0.2354
 1547TIP3    H226057   3.008   4.206  16.868  0.3665  0.9008  0.5550
 1548TIP3   OH226058   0.270   3.398   2.423 -0.3537  1.2473 -0.0585
 1548TIP3    H126059   0.202   3.422   2.486  0.6503 -1.7436  2.3155
 1548TIP3    H226060   0.350   3.440   2.456  0.1650 -0.2915  0.7335
 1549TIP3   OH226061   4.765   4.251   4.157  0.6018 -0.3864  0.0268
 1549TIP3    H126062   4.710   4.201   4.096 -1.5444 -0.2319  1.7817
 1549TIP3    H226063   4.765   4.198   4.237  2.7085 -0.1658  0.1943
 1550TIP3   OH226064   5.794   6.408   4.353  0.2727 -0.3009 -0.4986
 1550TIP3    H126065   5.728   6.449   4.409 -0.2853 -1.5116 -0.2535
 1550TIP3    H226066   5.831   6.338   4.406  3.3086  1.6874  0.1507
 1551TIP3   OH226067   3.979   4.293  14.028 -0.3373 -0.1698  0.1371
 1551TIP3    H126068   3.947   4.226  13.969  0.1946  1.7080 -2.3377
 1551TIP3    H226069   3.901   4.340  14.057 -0.5401 -0.7443  0.5437
 1552TIP3   OH226070   3.753   5.106   6.672  0.0389  0.7286 -0.2397
 1552TIP3    H126071   3.749   5.201   6.663  2.0352  0.6474 -2.8025
 1552TIP3    H226072   3.697   5.073   6.602 -0.8941  0.0115  0.8387
 1553TIP3   OH226073   2.193   4.077  13.051 -0.2008 -0.4628  0.1448
 1553TIP3    H126074   2.254   4.151  13.040 -3.5618  2.3566 -0.5855
 1553TIP3    H226075   2.137   4.102  13.124 -1.7034 -2.0866 -0.4103
 1554TIP3   OH226076   5.056   5.316   2.032  0.2004 -0.1885 -0.2425
 1554TIP3    H126077   4.972   5.279   2.004  0.0929  0.5054 -0.8615
 1554TIP3    H226078   5.118   5.244   2.019 -0.5322 -1.1963  1.6405
 1555TIP3   OH226079   5.481   5.140  13.868 -0.5099  0.6061 -0.3728
 1555TIP3    H126080   5.561   5.161  13.820  0.2025 -2.1172 -0.4469
 1555TIP3    H226081   5.447   5.062  13.825 -1.9475  0.3501  1.1670
 1556TIP3   OH226082   2.133   2.597   3.367 -0.0887  0.1363 -0.0930
 1556TIP3    H126083   2.228   2.609   3.372  0.4654 -2.0712 -3.5708
 1556TIP3    H226084   2.098   2.685   3.357  1.3407  1.1901  3.3393
 1557TIP3   OH226085   3.085   0.350  14.096  0.5314 -0.0689  0.1113
 1557TIP3    H126086   3.027   0.276  14.112 -2.0038  1.8596  0.1749
 1557TIP3    H226087   3.081   0.364  14.001 -1.4896  1.8846  0.4449
 1558TIP3   OH226088   2.127   6.158   1.575  0.3764  0.1590  0.1579
 1558TIP3    H126089   2.068   6.162   1.501 -0.2413  1.2362  0.6993
 1558TIP3    H226090   2.118   6.068   1.609 -1.2474  0.4356  0.4823
 1559TIP3   OH226091   1.388   2.086  11.022 -0.2069  0.2331  0.5197
 1559TIP3    H126092   1.478   2.052  11.017 -0.7593 -1.5742  2.0257
 1559TIP3    H226093   1.383   2.127  11.108 -0.7055  0.7152  0.2630
 1560TIP3   OH226094   5.151   4.905  15.229  0.0276  0.8124 -0.6852
 1560TIP3    H126095   5.134   4.851  15.307 -1.8442  0.4250 -1.3336
 1560TIP3    H226096   5.144   4.995  15.261  1.8066  0.6940  0.1145
 1561TIP3   OH226097   5.606   1.310   1.376 -0.4051  0.3481  0.3893
 1561TIP3    H126098   5.607   1.236   1.436  2.3964 -1.1203 -1.3487
 1561TIP3    H226099   5.689   1.356   1.393 -1.1482  1.8898 -0.0144
 1562TIP3   OH226100   0.846   1.513  13.429 -0.3677 -0.2144  0.4048
 1562TIP3    H126101   0.845   1.486  13.521  1.1986 -1.8393 -0.0312
 1562TIP3    H226102   0.757   1.495  13.398 -0.0553 -2.5334  0.7926
 1563TIP3   OH226103   2.463   6.484  16.807 -0.1079 -0.0338  0.2767
 1563TIP3    H126104   2.540   6.426  16.808  0.8931  1.1809 -1.3596
 1563TIP3    H226105   2.448   6.507  16.898  1.5191 -0.2675  0.6172
 1564TIP3   OH226106   2.628   5.754   5.789  0.2056 -0.1501 -0.1373
 1564TIP3    H126107   2.656   5.694   5.858 -0.6695 -0.5349 -0.1149
 1564TIP3    H226108   2.709   5.779   5.745  0.7789  0.1178  1.0396
 1565TIP3   OH226109   2.332   0.589  15.760  0.2271  0.3605  0.3238
 1565TIP3    H126110   2.244   0.554  15.768  1.2989 -2.5124  0.0932
 1565TIP3    H226111   2.330   0.643  15.681 -0.8053 -1.3298 -0.8254
 1566TIP3   OH226112   5.423   4.338   1.042 -0.4214  0.3739  0.2477
 1566TIP3    H126113   5.489   4.283   1.085 -1.9975 -1.0103  0.9253
 1566TIP3    H226114   5.339   4.299   1.067 -1.4412  0.7586 -2.4413
 1567TIP3   OH226115   1.999   3.244   0.694 -0.3477  0.4459  0.2474
 1567TIP3    H126116   1.909   3.271   0.674 -0.4863  0.5362  0.9613
 1567TIP3    H226117   2.044   3.325   0.715  0.6644  0.7619 -2.8547
 1568TIP3   OH226118   0.234   4.273  10.664  0.3700  0.5581  0.3013
 1568TIP3    H126119   0.313   4.226  10.638  0.2588  0.8706 -0.6277
 1568TIP3    H226120   0.162   4.216  10.638  0.2727  0.3761  0.9447
 1569TIP3   OH226121   4.519   2.068  13.547 -0.1903  0.4889  0.6262
 1569TIP3    H126122   4.518   2.093  13.455 -1.9600  0.0281  0.5172
 1569TIP3    H226123   4.565   2.140  13.591  0.4902  0.7923 -0.5784
 1570TIP3   OH226124   4.508   0.538  11.838  0.1880  0.8399  0.1130
 1570TIP3    H126125   4.579   0.588  11.797  0.7410  1.2714  1.5609
 1570TIP3    H226126   4.523   0.448  11.811  0.4968  1.1291 -0.6955
 1571TIP3   OH226127   4.417   4.865  14.481 -0.2763  0.5171  0.2865
 1571TIP3    H126128   4.348   4.924  14.510 -0.3245  0.3059  0.6033
 1571TIP3    H226129   4.399   4.782  14.527  0.0976  0.4172  0.2568
 1572TIP3   OH226130   5.292   1.326  12.325 -0.7051  0.1396 -0.3675
 1572TIP3    H126131   5.211   1.358  12.286  0.1603  1.9413 -0.7188
 1572TIP3    H226132   5.353   1.399  12.318  0.3191 -0.4502  1.8066
 1573TIP3   OH226133   4.122   5.599   4.709  0.0270 -0.2995  0.0583
 1573TIP3    H126134   4.076   5.615   4.626 -0.4313  0.9525  0.5457
 1573TIP3    H226135   4.148   5.507   4.704  0.3380 -0.1352 -1.6449
 1574TIP3   OH226136   1.194   3.769   4.082 -0.2173 -0.4387  0.4727
 1574TIP3    H126137   1.113   3.776   4.031  0.2258  1.6304 -0.0048
 1574TIP3    H226138   1.174   3.817   4.163  0.3512 -0.3907  0.5802
 1575TIP3   OH226139   5.204   5.539   3.429 -0.2539 -0.2056 -0.0521
 1575TIP3    H126140   5.189   5.458   3.478  1.8724 -0.4230  0.3094
 1575TIP3    H226141   5.220   5.509   3.339 -0.1947 -0.1350 -0.0654
 1576TIP3   OH226142   5.954   2.778  12.183  0.1045 -0.2917 -0.2464
 1576TIP3    H126143   5.911   2.783  12.269  1.7524 -0.3979  0.6092
 1576TIP3    H226144   5.944   2.687  12.157  0.7828 -0.5794  0.4761
 1577TIP3   OH226145   3.578   5.190   1.216  0.2397 -0.2519 -0.3300
 1577TIP3    H126146   3.652   5.161   1.270 -0.4022  0.0159  0.7170
 1577TIP3    H226147   3.597   5.282   1.197 -0.2701  0.0734  0.7118
 1578TIP3   OH226148   2.465   0.835   1.488  0.3314 -0.1047  0.6357
 1578TIP3    H126149   2.377   0.842   1.451 -0.6490 -0.0156  2.8700
 1578TIP3    H226150   2.482   0.741   1.490  0.2040 -0.1337  0.3903
 1579TIP3   OH226151   3.299   3.922   2.152  0.1321 -0.5991 -0.3981
 1579TIP3    H126152   3.381   3.946   2.195 -0.2254 -1.1908  0.6331
 1579TIP3    H226153   3.246   3.884   2.222 -1.4697  0.8325 -0.8067
 1580TIP3   OH226154   6.240   3.790  14.832  0.4761 -0.7222 -0.1663
 1580TIP3    H126155   6.310   3.824  14.887  1.9801  0.0028 -2.4517
 1580TIP3    H226156   6.173   3.859  14.833  0.1342 -1.0676  1.3759
 1581TIP3   OH226157   4.925   6.494  12.865 -0.2723  0.1316 -0.9275
 1581TIP3    H126158   4.848   6.453  12.826 -1.2783 -0.7436  1.8633
 1581TIP3    H226159   4.892   6.574  12.906  0.4896  0.3041 -0.6387
 1582TIP3   OH226160   4.793   1.223   2.447 -0.0021  0.5915 -0.3690
 1582TIP3    H126161   4.707   1.257   2.423 -0.6402 -0.3566  0.5278
 1582TIP3    H226162   4.785   1.202   2.540 -0.1442 -3.5108 -1.2232
 1583TIP3   OH226163   0.156   5.225   5.154  0.5375  0.3887  0.5160
 1583TIP3    H126164   0.074   5.241   5.108  1.4966 -1.7394 -2.0422
 1583TIP3    H226165   0.175   5.308   5.198 -3.0287  0.8518  1.2897
 1584TIP3   OH226166   6.039   5.928   2.468 -0.2068 -0.4407  0.1623
 1584TIP3    H126167   6.080   6.011   2.494  0.1515 -0.4393 -0.3998
 1584TIP3    H226168   5.990   5.950   2.388 -0.6934 -0.6111  0.4110
 1585TIP3   OH226169   5.726   4.401  15.231 -0.1168  0.5535  0.1859
 1585TIP3    H126170   5.756   4.485  15.197  0.0665  0.4613  0.1225
 1585TIP3    H226171   5.791   4.376  15.297 -0.2469  0.5290  0.3056
 1586TIP3   OH226172   5.977   0.586  11.654 -0.2125  0.1687  0.0699
 1586TIP3    H126173   5.945   0.665  11.697  1.4883  0.7580  0.2955
 1586TIP3    H226174   5.966   0.516  11.719  2.2752  1.0372  1.5124
 1587TIP3   OH226175   4.228   4.716  16.133  0.2435 -0.3862 -0.3454
 1587TIP3    H126176   4.292   4.691  16.066  3.0510 -0.2944  2.1863
 1587TIP3    H226177   4.257   4.802  16.163 -2.0662  0.4070 -0.2564
 1588TIP3   OH226178   6.735   2.173   3.434 -0.6033  0.4020  0.2869
 1588TIP3    H126179   6.645   2.205   3.444 -0.8006 -0.6953  2.1486
 1588TIP3    H226180   6.733   2.083   3.469  1.0951  0.1803 -0.1386
 1589TIP3   OH226181   4.240   4.100  16.066  0.0694  0.7766  0.1670
 1589TIP3    H126182   4.314   4.062  16.113  0.6676  2.4402  0.5779
 1589TIP3    H226183   4.165   4.088  16.125  0.1088 -0.3464  0.0071
 1590TIP3   OH226184   5.629   2.016   2.736 -0.3676 -0.2183  0.3925
 1590TIP3    H126185   5.555   2.043   2.790 -0.3896  0.4537  0.0233
 1590TIP3    H226186   5.593   1.952   2.675 -0.9549  1.2362 -0.7928
 1591TIP3   OH226187   1.621   0.749  13.037  0.6982  0.7296 -0.6486
 1591TIP3    H126188   1.586   0.775  13.122 -1.0254 -0.9371 -0.8070
 1591TIP3    H226189   1.655   0.661  13.051 -1.4289 -0.3938 -2.0952
 1592TIP3   OH226190   5.895   4.567   4.212  0.7224  0.4664 -0.7876
 1592TIP3    H126191   5.865   4.476   4.205 -1.6482  1.1340  0.3483
 1592TIP3    H226192   5.830   4.617   4.163  2.2015  1.5353 -1.6870
 1593TIP3   OH226193   2.503   6.438  10.939 -0.6066 -0.4862  0.1546
 1593TIP3    H126194   2.488   6.529  10.913 -0.0268 -0.7108 -0.9804
 1593TIP3    H226195   2.429   6.390  10.901 -0.3090 -0.6563 -0.2140
 1594TIP3   OH226196   4.191   2.212  11.171 -0.6324 -0.2693 -0.1268
 1594TIP3    H126197   4.147   2.262  11.102 -1.0149 -0.1949  0.1682
 1594TIP3    H226198   4.252   2.155  11.124 -0.2454  0.4219 -0.4663
 1595TIP3   OH226199   3.114   5.480   0.579 -0.1424  0.5795 -0.3450
 1595TIP3    H126200   3.022   5.454   0.579 -0.1875  0.6902  1.2689
 1595TIP3    H226201   3.152   5.432   0.653  1.4148 -0.5251 -1.8165
 1596TIP3   OH226202   6.749   4.643   2.395  0.3183  0.5653 -0.0644
 1596TIP3    H126203   6.674   4.595   2.432 -0.7570  2.6145  0.5036
 1596TIP3    H226204   6.825   4.592   2.421 -0.8877 -1.7293 -0.9032
 1597TIP3   OH226205   6.640   6.380  12.543 -0.7895 -0.2690  0.6021
 1597TIP3    H126206   6.712   6.443  12.533 -0.7488 -0.4509 -0.2935
 1597TIP3    H226207   6.589   6.414  12.616 -2.7172  2.7291 -1.9994
 1598TIP3   OH226208   5.669   1.582  16.006  0.1912 -0.2927 -0.3084
 1598TIP3    H126209   5.687   1.518  15.938  1.2172  0.5443 -0.8480
 1598TIP3    H226210   5.755   1.621  16.026 -0.2266  0.0682  0.8560
 1599TIP3   OH226211   1.874   5.905   4.496  0.0694  0.1663  0.1211
 1599TIP3    H126212   1.780   5.904   4.515  0.0296 -1.1657 -0.1278
 1599TIP3    H226213   1.905   5.818   4.521  1.8377  1.5599  3.0758
 1600TIP3   OH226214   4.491   2.664  15.333 -0.4767  0.7270 -0.4849
 1600TIP3    H126215   4.432   2.601  15.374 -0.5819  0.8311 -0.4758
 1600TIP3    H226216   4.436   2.740  15.315 -1.3504 -0.6780 -4.2949
 1601TIP3   OH226217   2.651   3.194  13.893 -0.4775  0.0112  0.8045
 1601TIP3    H126218   2.741   3.162  13.891 -0.1616  0.8893  0.7496
 1601TIP3    H226219   2.648   3.250  13.971 -0.4687  1.4279 -0.1952
 1602TIP3   OH226220   6.446   6.451  12.761 -0.2857 -0.5457  0.2038
 1602TIP3    H126221   6.351   6.462  12.761 -0.2164  0.3371 -2.5213
 1602TIP3    H226222   6.462   6.389  12.832 -2.8401 -0.3187  1.0418
 1603TIP3   OH226223   6.026   4.559   0.840 -0.5855  0.0441  0.2415
 1603TIP3    H126224   6.119   4.570   0.859 -0.4788  0.4391 -0.5089
 1603TIP3    H226225   6.017   4.467   0.817 -0.3319  0.0706  0.0376
 1604TIP3   OH226226   5.542   5.709  12.600 -0.2394  0.4865 -0.6516
 1604TIP3    H126227   5.577   5.620  12.606  0.2937  0.6224 -1.6601
 1604TIP3    H226228   5.590   5.758  12.668  0.7043  0.4002 -1.2473
 1605TIP3   OH226229   2.872   5.624   5.000  0.6096 -0.1888 -0.2489
 1605TIP3    H126230   2.861   5.561   5.072  1.6078  0.3351  0.3785
 1605TIP3    H226231   2.827   5.703   5.031  0.4751 -0.1766 -0.4780
 1606TIP3   OH226232   5.934   3.500  13.982 -0.1400  0.2397  0.7942
 1606TIP3    H126233   5.990   3.433  14.022 -1.5724 -1.0075  0.7262
 1606TIP3    H226234   5.964   3.504  13.891 -2.8121 -3.4195 -0.3816
 1607TIP3   OH226235   5.081   0.660  13.652  0.7250  0.3570  0.3498
 1607TIP3    H126236   5.114   0.571  13.658  1.1013  0.4403 -0.3795
 1607TIP3    H226237   4.988   0.653  13.672  0.8891 -0.0965  0.9642
 1608TIP3   OH226238   2.183   0.228  17.174  0.2225 -0.2158 -0.0010
 1608TIP3    H126239   2.130   0.269  17.105  0.2600  0.0532  0.1291
 1608TIP3    H226240   2.150   0.139  17.180  0.4787 -0.3575 -0.6394
 1609TIP3   OH226241   0.291   6.115   0.361 -0.0710  0.4367 -0.4786
 1609TIP3    H126242   0.209   6.151   0.327 -0.7302 -0.9419 -0.3546
 1609TIP3    H226243   0.349   6.112   0.285 -0.4538  0.4802 -0.7739
 1610TIP3   OH226244   1.910   6.419  15.311 -0.6098 -0.1864 -0.6327
 1610TIP3    H126245   1.927   6.451  15.400  0.1247 -0.2778 -0.7320
 1610TIP3    H226246   1.900   6.498  15.258  0.8473 -0.0952 -0.8128
 1611TIP3   OH226247   5.301   1.461  15.676  0.3270 -0.2146 -0.3484
 1611TIP3    H126248   5.396   1.470  15.684  0.2795 -1.2012  1.7443
 1611TIP3    H226249   5.275   1.531  15.616  2.1144  1.5123  0.8059
 1612TIP3   OH226250   3.428   5.874   5.399 -0.3821 -0.3388 -0.2505
 1612TIP3    H126251   3.480   5.934   5.345  1.5963  0.4211  2.4036
 1612TIP3    H226252   3.391   5.812   5.336  0.9813  1.1336 -2.5955
 1613TIP3   OH226253   5.959   0.529   3.276 -0.1478 -0.0283 -0.0398
 1613TIP3    H126254   5.925   0.616   3.296 -1.3563 -0.2926 -0.8904
 1613TIP3    H226255   5.952   0.481   3.359 -0.5853  0.3331  0.1315
 1614TIP3   OH226256   1.008   0.505   1.825 -0.0677  0.5173 -0.1406
 1614TIP3    H126257   1.006   0.456   1.743 -1.1372 -1.4951  1.0497
 1614TIP3    H226258   0.983   0.441   1.891  2.8089  1.5463  2.0479
 1615TIP3   OH226259   0.994   3.468   0.066  0.0457 -0.3841 -0.4358
 1615TIP3    H126260   1.001   3.464  -0.029  3.1702  0.1584 -0.2879
 1615TIP3    H226261   0.950   3.551   0.083  3.1081  1.5213 -1.3578
 1616TIP3   OH226262   2.624   0.696   3.885  0.8814 -0.2707 -0.5466
 1616TIP3    H126263   2.673   0.683   3.967 -1.1579  1.4585  0.9992
 1616TIP3    H226264   2.560   0.764   3.906  0.1729  0.0389 -3.5466
 1617TIP3   OH226265   0.388   4.916   1.543 -0.5813 -0.1895 -0.0939
 1617TIP3    H126266   0.407   4.938   1.452 -0.3777 -0.9870 -0.2472
 1617TIP3    H226267   0.471   4.931   1.588 -0.8179  0.6976  0.0582
 1618TIP3   OH226268   0.638   3.651  12.702 -0.1165  0.3014  0.3701
 1618TIP3    H126269   0.558   3.689  12.666  0.2443  0.9019  0.2009
 1618TIP3    H226270   0.679   3.607  12.627  0.7076  1.6739  0.0033
 1619TIP3   OH226271   5.198   6.192  11.721 -0.1890 -0.9862  0.3782
 1619TIP3    H126272   5.161   6.248  11.652 -0.9136 -2.0960 -0.1533
 1619TIP3    H226273   5.187   6.241  11.802  2.5029  1.2396 -0.5142
 1620TIP3   OH226274   1.006   5.482   4.869  0.3867 -0.6762  0.2100
 1620TIP3    H126275   0.985   5.389   4.880 -0.1014 -0.3589  2.0081
 1620TIP3    H226276   1.101   5.486   4.876  0.3229 -0.8966  1.2117
 1621TIP3   OH226277   1.904   2.073   0.357 -0.2303  0.1275  0.1124
 1621TIP3    H126278   1.809   2.065   0.364 -0.1961 -0.1137  0.2984
 1621TIP3    H226279   1.937   1.985   0.374  0.1763  0.7356  2.7302
 1622TIP3   OH226280   1.511   3.887   5.655 -0.4428  0.4797 -0.0099
 1622TIP3    H126281   1.603   3.893   5.678 -0.1620 -1.3719 -0.5588
 1622TIP3    H226282   1.467   3.857   5.735 -0.7266  2.2429  0.5193
 1623TIP3   OH226283   5.722   2.537  16.161 -0.2478 -0.2362 -0.3041
 1623TIP3    H126284   5.741   2.445  16.180  2.6121  0.4515  0.2758
 1623TIP3    H226285   5.761   2.552  16.075  1.5038  1.0962  0.7045
 1624TIP3   OH226286   4.584   0.491  11.574 -0.2849 -0.1498  0.5423
 1624TIP3    H126287   4.543   0.448  11.498  0.2928  0.5239 -0.1467
 1624TIP3    H226288   4.635   0.421  11.616  1.5463  0.1006 -1.2023
 1625TIP3   OH226289   2.482   5.576   0.039 -0.1361 -0.3188 -0.0160
 1625TIP3    H126290   2.555   5.555   0.097 -0.6162 -0.7020  0.4598
 1625TIP3    H226291   2.419   5.505   0.053  0.0050 -0.7457 -1.4689
 1626TIP3   OH226292   6.686   1.730   0.329  0.4161 -0.3920  0.2005
 1626TIP3    H126293   6.646   1.769   0.407 -0.5887 -0.7255 -0.1343
 1626TIP3    H226294   6.630   1.655   0.309  0.5083 -0.1430 -1.0048
 1627TIP3   OH226295   6.224   2.830   5.492  0.4604 -0.1109  0.1817
 1627TIP3    H126296   6.196   2.896   5.556 -0.2163 -0.4836  0.2728
 1627TIP3    H226297   6.163   2.757   5.504  2.0052 -1.2985  0.9796
 1628TIP3   OH226298   3.308   2.477   1.046  0.4391 -0.2935 -0.1338
 1628TIP3    H126299   3.384   2.462   1.102  0.5399  2.4591  0.4852
 1628TIP3    H226300   3.250   2.403   1.065  1.2647 -0.3654  2.2146
 1629TIP3   OH226301   0.907   0.170  15.347 -0.4215 -0.7846 -0.4242
 1629TIP3    H126302   0.835   0.232  15.330  0.6877  0.1475 -1.8278
 1629TIP3    H226303   0.910   0.115  15.269  0.0556 -1.1642 -0.1356
 1630TIP3   OH226304   5.352   5.064   6.173 -0.7945  0.8307 -0.8842
 1630TIP3    H126305   5.420   5.131   6.172 -0.4854  0.5506  0.5472
 1630TIP3    H226306   5.277   5.106   6.214  0.2448 -0.4459  2.5485
 1631TIP3   OH226307   5.012   0.091  13.749  0.2099 -0.4095  0.5151
 1631TIP3    H126308   4.932   0.143  13.754  0.2911 -0.0283 -1.4980
 1631TIP3    H226309   4.981   0.001  13.741 -0.0599 -0.2181 -0.7570
 1632TIP3   OH226310   4.767   2.811  16.341  0.4735 -0.1599 -1.0530
 1632TIP3    H126311   4.732   2.898  16.363  1.0215 -0.0681 -0.5194
 1632TIP3    H226312   4.784   2.815  16.247  2.7982  1.1508 -0.6153
 1633TIP3   OH226313   2.523   0.569   3.438 -0.2053 -0.4509 -0.0423
 1633TIP3    H126314   2.542   0.640   3.499 -0.6959  0.3304 -0.7713
 1633TIP3    H226315   2.429   0.554   3.448 -0.0825 -1.0808  0.1895
 1634TIP3   OH226316   2.756   5.577  15.732  0.0202  0.7595  0.4279
 1634TIP3    H126317   2.661   5.563  15.730 -0.2094  2.4125 -1.0684
 1634TIP3    H226318   2.768   5.651  15.791  0.2937  1.2068 -0.1900
 1635TIP3   OH226319   4.569   0.188  13.584  0.2491 -0.6195  0.2490
 1635TIP3    H126320   4.481   0.213  13.555  0.2582  0.9127  1.4771
 1635TIP3    H226321   4.621   0.187  13.504 -0.2421  1.2686 -0.1127
 1636TIP3   OH226322   1.594   1.886   3.361 -0.2686  0.0253 -0.1901
 1636TIP3    H126323   1.568   1.976   3.380  1.0956  0.7314 -1.6302
 1636TIP3    H226324   1.670   1.870   3.416 -0.1694 -0.0650 -0.3525
 1637TIP3   OH226325   1.570   0.622  17.222  0.3846  0.4058  0.3010
 1637TIP3    H126326   1.552   0.530  17.203 -0.1152  0.7749 -1.0944
 1637TIP3    H226327   1.645   0.619  17.282  1.0528 -0.8935 -0.5417
 1638TIP3   OH226328   4.782   4.361  14.401 -0.5018 -0.4839 -0.6541
 1638TIP3    H126329   4.754   4.315  14.480  1.2912  0.5916  0.6600
 1638TIP3    H226330   4.849   4.304  14.363 -1.1984 -0.8901 -1.2759
 1639TIP3   OH226331   4.591   3.955  15.241  0.0009  0.8498 -0.4141
 1639TIP3    H126332   4.620   3.890  15.306  0.8446 -0.0794 -1.6939
 1639TIP3    H226333   4.638   3.931  15.161 -0.8567  2.1248 -1.3123
 1640TIP3   OH226334   4.611   0.987  15.148  0.0598 -0.1717  0.3528
 1640TIP3    H126335   4.559   1.068  15.152 -0.2533 -0.2598 -1.7213
 1640TIP3    H226336   4.572   0.931  15.215 -2.0149  0.0768 -0.5866
 1641TIP3   OH226337   0.848   6.495   2.561 -0.0296 -0.1750  0.1942
 1641TIP3    H126338   0.935   6.465   2.532  0.6601 -0.5519  2.5701
 1641TIP3    H226339   0.793   6.418   2.554  1.1594 -1.4651  3.9073
 1642TIP3   OH226340   1.937   6.453  11.382  0.5689 -0.3087  0.0246
 1642TIP3    H126341   2.020   6.419  11.416 -0.0934 -0.9769  1.0047
 1642TIP3    H226342   1.900   6.502  11.455 -0.1245 -0.4332 -0.2439
 1643TIP3   OH226343   4.147   0.782   6.038 -0.1037  0.3302  0.6452
 1643TIP3    H126344   4.139   0.845   6.110 -0.1974  2.6339 -1.2998
 1643TIP3    H226345   4.057   0.767   6.009  0.0677  0.7863 -0.1291
 1644TIP3   OH226346   2.948   2.412   0.413  0.5650  0.1019  0.2909
 1644TIP3    H126347   2.870   2.360   0.396  0.8902  0.3057 -1.8605
 1644TIP3    H226348   3.008   2.352   0.457 -0.7490 -0.0760  1.8721
 1645TIP3   OH226349   2.866   1.974  13.818  0.0784 -0.5247  0.1894
 1645TIP3    H126350   2.828   1.940  13.737 -1.5395  0.7099  0.4106
 1645TIP3    H226351   2.960   1.975  13.802 -0.2400 -0.0285 -1.7855
 1646TIP3   OH226352   1.978   1.439  12.424  0.2280  0.0918  0.5714
 1646TIP3    H126353   1.886   1.460  12.435  0.4260  1.2831  0.0836
 1646TIP3    H226354   2.003   1.393  12.504 -1.0757 -1.2961  0.1873
 1647TIP3   OH226355   6.487   1.450  16.951 -0.4868  0.1585  0.1561
 1647TIP3    H126356   6.556   1.408  16.900 -1.3641 -2.0262  0.7513
 1647TIP3    H226357   6.530   1.475  17.033  0.5792  2.4573 -1.0576
 1648TIP3   OH226358   3.892   4.014   3.010 -0.1486 -0.3594 -0.3951
 1648TIP3    H126359   3.907   4.106   2.988  0.4911 -0.2709  0.3860
 1648TIP3    H226360   3.810   4.015   3.059 -0.0393 -0.1820 -0.2159
 1649TIP3   OH226361   4.378   2.131   2.588 -0.6415  0.6815  0.5087
 1649TIP3    H126362   4.300   2.176   2.558 -0.7792  1.4010  1.9083
 1649TIP3    H226363   4.435   2.201   2.622  0.5616  0.1596 -0.3888
 1650TIP3   OH226364   6.335   5.705  11.768  0.4852 -0.6584  0.2919
 1650TIP3    H126365   6.299   5.731  11.683  0.2621 -0.1781  0.5347
 1650TIP3    H226366   6.286   5.756  11.832  2.8065  1.3363  0.5340
 1651TIP3   OH226367   1.270   2.750   2.793  0.1494 -0.4327  0.1343
 1651TIP3    H126368   1.314   2.834   2.806 -0.8642  0.2496 -0.7067
 1651TIP3    H226369   1.184   2.762   2.833 -0.1269 -0.9459 -0.3003
 1652TIP3   OH226370   3.183   0.255   1.076 -0.6994 -0.0978 -0.0720
 1652TIP3    H126371   3.153   0.193   1.143 -1.0972 -0.2547 -0.3912
 1652TIP3    H226372   3.185   0.339   1.120 -0.1890 -0.3316  0.3584
 1653TIP3   OH226373   4.046   4.046   5.847  0.0522  0.1186 -0.1260
 1653TIP3    H126374   4.018   4.138   5.845 -0.0662  0.1363  1.3617
 1653TIP3    H226375   4.134   4.049   5.886 -0.3770 -0.4797  0.9150
 1654TIP3   OH226376   1.864   5.413   3.431  0.5291  0.1656 -0.6903
 1654TIP3    H126377   1.922   5.341   3.456 -1.5489 -1.0631  0.7869
 1654TIP3    H226378   1.810   5.376   3.360 -1.7377 -0.3887  1.2485
 1655TIP3   OH226379   4.159   2.429  15.085  0.8884  0.0215  0.5955
 1655TIP3    H126380   4.144   2.509  15.033 -4.1150 -1.7308 -0.9781
 1655TIP3    H226381   4.234   2.387  15.043  0.7450  1.6596 -1.4037
 1656TIP3   OH226382   4.870   4.355  12.032  0.1707  0.2716  0.6980
 1656TIP3    H126383   4.790   4.406  12.019 -0.5299 -0.9259  0.1664
 1656TIP3    H226384   4.852   4.272  11.989  2.3908  0.6285 -1.0012
 1657TIP3   OH226385   4.810   0.470   2.080 -0.0241  0.3358  0.0473
 1657TIP3    H126386   4.841   0.536   2.141  0.1002 -0.7517  1.1710
 1657TIP3    H226387   4.863   0.483   2.001  0.4798  1.1094  0.5075
 1658TIP3   OH226388   3.665   0.200   3.867 -0.2908 -0.3469  0.1429
 1658TIP3    H126389   3.709   0.207   3.952 -0.8398  2.0584  0.2560
 1658TIP3    H226390   3.701   0.272   3.816 -0.5065 -1.3430 -1.4398
 1659TIP3   OH226391   5.613   2.282   2.941 -0.2293  0.5751  0.1485
 1659TIP3    H126392   5.591   2.353   3.001 -2.0034  0.0811  0.1014
 1659TIP3    H226393   5.558   2.209   2.969  0.7167 -0.4228 -0.5470
 1660TIP3   OH226394   4.058   3.229   5.936  0.4149  0.3343 -0.2862
 1660TIP3    H126395   3.991   3.165   5.959  0.2462 -0.3161 -2.4486
 1660TIP3    H226396   4.009   3.308   5.913  0.4071  0.0336 -1.3229
 1661TIP3   OH226397   0.020   2.202   1.096  0.2683 -0.6164  0.0172
 1661TIP3    H126398   0.018   2.289   1.057  0.6979 -1.1058 -1.1023
 1661TIP3    H226399  -0.031   2.148   1.036 -0.1857 -1.0926  0.8256
 1662TIP3   OH226400   0.595   2.312  16.079  0.3629 -0.1527 -0.6232
 1662TIP3    H126401   0.541   2.249  16.127 -0.4179  0.4814 -0.6451
 1662TIP3    H226402   0.554   2.397  16.097 -0.4219  0.0232 -3.0176
 1663TIP3   OH226403   2.602   2.008   1.189  0.1657 -0.2860  0.6603
 1663TIP3    H126404   2.632   2.093   1.223 -0.5315  0.7185 -1.1269
 1663TIP3    H226405   2.546   2.031   1.115 -1.3674 -2.2801  1.1729
 1664TIP3   OH226406   2.732   5.770   4.025 -0.2515 -0.8602  0.4758
 1664TIP3    H126407   2.730   5.677   4.048 -1.0016 -0.1973  3.2707
 1664TIP3    H226408   2.641   5.791   4.005 -0.1870 -0.5850  0.4759
 1665TIP3   OH226409   0.791   2.184  15.914  0.8787  0.3885  0.5955
 1665TIP3    H126410   0.883   2.198  15.938  0.9794  0.3080  0.2572
 1665TIP3    H226411   0.742   2.240  15.975  1.1832  0.8350  0.4336
 1666TIP3   OH226412   1.135   3.152   4.546  0.3694 -0.3619 -0.4264
 1666TIP3    H126413   1.048   3.192   4.547  0.0260 -1.0900 -0.8060
 1666TIP3    H226414   1.126   3.076   4.488  1.9162  1.0437 -2.5848
 1667TIP3   OH226415   4.217   2.316  12.766  0.4104 -0.0474  0.2785
 1667TIP3    H126416   4.143   2.347  12.817  1.1630  1.7256  0.3244
 1667TIP3    H226417   4.286   2.300  12.830 -0.2679 -2.8188  0.3735
 1668TIP3   OH226418   3.668   6.444  13.656  0.2509 -0.0977  0.0722
 1668TIP3    H126419   3.598   6.379  13.662  0.3010 -0.0186  1.7510
 1668TIP3    H226420   3.743   6.394  13.622  0.0451 -0.7244  0.5178
 1669TIP3   OH226421   1.653   3.967   1.018  0.1545 -0.1181 -0.0448
 1669TIP3    H126422   1.636   3.958   1.112 -2.2058 -1.2008 -0.5367
 1669TIP3    H226423   1.666   4.061   1.004 -3.8186  0.6543  0.7481
 1670TIP3   OH226424   2.701   2.185   1.628  0.6748  0.5663  0.1462
 1670TIP3    H126425   2.766   2.135   1.578  1.0390  0.4460  0.7434
 1670TIP3    H226426   2.636   2.211   1.562  1.8468  1.5646 -0.6341
 1671TIP3   OH226427   5.748   3.985   2.619  0.1687 -0.1365  0.0601
 1671TIP3    H126428   5.666   3.983   2.668  1.4857  0.6041  2.3703
 1671TIP3    H226429   5.796   3.909   2.651  0.5068 -0.3892 -1.0574
 1672TIP3   OH226430   4.468   5.999   3.307 -0.1134  0.0617  0.4642
 1672TIP3    H126431   4.379   5.965   3.313  0.4969 -1.6253  0.1945
 1672TIP3    H226432   4.478   6.025   3.215  0.7060 -2.7333 -0.2808
 1673TIP3   OH226433   4.156   0.766   0.786  0.2239 -0.2351 -0.2029
 1673TIP3    H126434   4.219   0.695   0.798 -0.8773 -0.8668  2.0683
 1673TIP3    H226435   4.180   0.831   0.853 -1.2663 -0.3011  0.4072
 1674TIP3   OH226436   6.044   6.110   2.964  0.0007  0.1905  0.0485
 1674TIP3    H126437   6.115   6.047   2.956 -0.7197 -0.5094 -1.0823
 1674TIP3    H226438   6.024   6.134   2.873 -0.5072  1.1610  0.4129
 1675TIP3   OH226439   1.430   0.100   3.246 -0.5554  1.0010  0.0450
 1675TIP3    H126440   1.478   0.182   3.252 -0.2066  0.7127  1.2231
 1675TIP3    H226441   1.419   0.071   3.337  1.2933 -1.3940 -0.4540
 1676TIP3   OH226442   0.084   3.662  14.214  0.0001  0.6252  0.3314
 1676TIP3    H126443   0.106   3.576  14.176  1.6537  0.3490  1.8499
 1676TIP3    H226444  -0.011   3.661  14.221  0.0640 -1.6434  1.5284
 1677TIP3   OH226445   6.625   1.301   0.903 -0.4352  0.0542 -0.0201
 1677TIP3    H126446   6.581   1.316   0.987 -0.4922  1.3977 -0.2823
 1677TIP3    H226447   6.566   1.244   0.855 -0.3894 -0.7528  0.8727
 1678TIP3   OH226448   3.034   3.296   1.825 -0.4794  0.1972  0.3556
 1678TIP3    H126449   2.939   3.309   1.834 -0.4616  1.6559 -1.2179
 1678TIP3    H226450   3.069   3.385   1.822  0.8120 -0.3282 -0.2833
 1679TIP3   OH226451   0.109   4.803   2.957 -0.2403  0.2591  0.2794
 1679TIP3    H126452   0.031   4.828   3.006  0.2309 -0.4685  1.4234
 1679TIP3    H226453   0.095   4.839   2.869 -1.0645  1.6238  0.9548
 1680TIP3   OH226454   1.493   4.611   5.297 -0.0346  0.0932  0.4951
 1680TIP3    H126455   1.564   4.602   5.234 -0.4543  0.4449 -0.0225
 1680TIP3    H226456   1.534   4.593   5.382  0.4942 -0.5146  0.1119
 1681TIP3   OH226457   0.894   0.410  10.963  0.0096 -0.1425 -0.4018
 1681TIP3    H126458   0.803   0.418  10.934  0.0610 -1.0118 -0.8176
 1681TIP3    H226459   0.888   0.366  11.048  0.0971 -0.9922 -0.8361
 1682TIP3   OH226460   2.698   0.826   4.627 -0.5984 -0.2572 -0.0279
 1682TIP3    H126461   2.770   0.848   4.686  1.8308 -2.1640 -2.1671
 1682TIP3    H226462   2.621   0.817   4.684  0.5518  2.9920  2.1602
 1683TIP3   OH226463   2.866   5.382  13.603  1.0581  0.1451 -0.5369
 1683TIP3    H126464   2.801   5.371  13.533  0.5998 -1.0341  0.0591
 1683TIP3    H226465   2.887   5.476  13.602  0.6946  0.2228 -1.9311
 1684TIP3   OH226466   0.327   6.627   5.722 -0.0156 -0.1730 -0.2202
 1684TIP3    H126467   0.418   6.604   5.701  0.1697  0.3483  0.0090
 1684TIP3    H226468   0.281   6.623   5.638 -0.3931 -3.1873  0.0649
 1685TIP3   OH226469   1.552   6.551   0.501  0.1479 -0.0326 -0.0125
 1685TIP3    H126470   1.482   6.540   0.437  1.8999 -0.7027 -1.8854
 1685TIP3    H226471   1.630   6.515   0.458  1.4274 -0.3364  2.4325
 1686TIP3   OH226472   3.919   0.351  16.648 -0.2934 -0.2170  0.1763
 1686TIP3    H126473   3.871   0.425  16.611 -0.7215  0.6026  2.3113
 1686TIP3    H226474   3.852   0.283  16.658 -0.0700 -0.6196 -1.0175
 1687TIP3   OH226475   3.031   2.220  10.916 -0.5408 -0.1497  0.3472
 1687TIP3    H126476   3.031   2.150  10.851 -1.1885 -0.2706  0.4798
 1687TIP3    H226477   2.999   2.179  10.996  0.0396  0.0536  0.6881
 1688TIP3   OH226478   0.149   1.201  16.081  0.4828 -0.0689  0.2904
 1688TIP3    H126479   0.141   1.121  16.028 -2.6056  0.3422  0.0151
 1688TIP3    H226480   0.125   1.173  16.169 -0.4499  0.5026  0.2248
 1689TIP3   OH226481   3.088   2.673  16.316  0.0431  0.0238  0.5485
 1689TIP3    H126482   3.032   2.639  16.385 -0.2520 -0.2920  0.1575
 1689TIP3    H226483   3.173   2.631  16.331 -0.2426 -0.6817  0.2359
 1690TIP3   OH226484   6.416   4.459   1.891 -0.4157  0.2003  0.4107
 1690TIP3    H126485   6.464   4.448   1.974 -0.8873 -0.1522  0.6358
 1690TIP3    H226486   6.457   4.396   1.832 -1.2433 -0.7905  0.8836
 1691TIP3   OH226487   5.919   6.421   6.203  0.8818 -0.2604  0.1088
 1691TIP3    H126488   6.009   6.450   6.186  1.1517  0.1173  2.1064
 1691TIP3    H226489   5.867   6.501   6.199  1.0607 -0.0421  1.7284
 1692TIP3   OH226490   4.785   2.537  13.567  0.2034  0.5553  0.7460
 1692TIP3    H126491   4.861   2.541  13.509 -0.2790  1.3318  0.1607
 1692TIP3    H226492   4.814   2.483  13.641  0.5268 -1.2687 -0.6692
 1693TIP3   OH226493   4.708   6.744   2.642 -0.4639 -0.1398  1.1204
 1693TIP3    H126494   4.660   6.787   2.712 -0.3726  0.0157  1.0856
 1693TIP3    H226495   4.665   6.659   2.633 -0.9465  0.1267  0.8677
 1694TIP3   OH226496   4.436   1.830  13.624  0.6592  0.0258  0.3638
 1694TIP3    H126497   4.343   1.826  13.599  0.1277 -1.0907  2.4234
 1694TIP3    H226498   4.459   1.922  13.613 -1.0613  0.5726  1.1177
 1695TIP3   OH226499   0.966   4.955   2.242  0.2707  0.1853 -0.0558
 1695TIP3    H126500   0.987   5.012   2.167  0.5855 -1.4552 -1.2428
 1695TIP3    H226501   0.913   5.010   2.299  0.1186  1.5186 -1.4321
 1696TIP3   OH226502   6.664   3.959  16.113  0.1055 -0.1445 -0.3290
 1696TIP3    H126503   6.653   3.914  16.197  0.8386  0.2632 -0.0085
 1696TIP3    H226504   6.593   4.023  16.110  0.8039  0.6879  0.5475
 1697TIP3   OH226505   6.035   1.499  13.513 -0.1434  0.2403  0.4260
 1697TIP3    H126506   6.014   1.511  13.420  1.5412  0.8704  0.1110
 1697TIP3    H226507   6.032   1.405  13.526  2.1175 -0.0495 -0.8954
 1698TIP3   OH226508   5.641   5.238  12.692  0.8851  0.0684  0.2372
 1698TIP3    H126509   5.714   5.267  12.637  1.8912 -2.5400  0.1230
 1698TIP3    H226510   5.565   5.239  12.634  1.1563  1.1531 -0.1104
 1699TIP3   OH226511   2.811   6.433  14.182 -0.2523  0.1279 -0.3337
 1699TIP3    H126512   2.798   6.488  14.259  0.1366  1.1923 -1.0140
 1699TIP3    H226513   2.722   6.414  14.151 -0.5420 -2.5970  1.9258
 1700TIP3   OH226514   6.697   2.487  12.894 -0.4476  0.4780  0.2852
 1700TIP3    H126515   6.727   2.396  12.903  1.6986  1.2364  1.1838
 1700TIP3    H226516   6.604   2.480  12.874 -0.1063 -1.9548 -0.6654
 1701TIP3   OH226517   2.248   5.211  11.009  0.6915 -0.1594  0.1576
 1701TIP3    H126518   2.207   5.287  10.970  0.0291 -0.1489  0.8678
 1701TIP3    H226519   2.280   5.160  10.935  0.2031  0.2819 -0.3562
 1702TIP3   OH226520   5.650   0.898  12.146  0.1521 -0.0137 -0.1796
 1702TIP3    H126521   5.584   0.829  12.138  0.7015 -0.5306 -0.2350
 1702TIP3    H226522   5.670   0.902  12.239  1.2394 -0.9751 -0.3687
 1703TIP3   OH226523   0.676   0.769  12.023  0.3243  0.3657  0.1869
 1703TIP3    H126524   0.711   0.815  12.099 -1.4866  0.6814  0.8491
 1703TIP3    H226525   0.631   0.837  11.972 -0.0094 -0.1701 -0.2416
 1704TIP3   OH226526   5.306   6.009   3.760  0.2385  0.3978 -0.3631
 1704TIP3    H126527   5.302   5.940   3.826 -0.3538  1.3099  0.5557
 1704TIP3    H226528   5.346   5.966   3.684  0.0172 -0.9191  0.2430
 1705TIP3   OH226529   4.177   3.399   2.192 -0.7998  0.0468 -0.0739
 1705TIP3    H126530   4.258   3.361   2.158 -1.7739 -0.4124 -2.0163
 1705TIP3    H226531   4.163   3.477   2.138 -2.0109 -0.2724 -0.2356
 1706TIP3   OH226532   0.034   3.722  14.741  0.8631  0.8254  0.8853
 1706TIP3    H126533   0.115   3.698  14.696  0.9040 -0.4109  1.5962
 1706TIP3    H226534  -0.029   3.656  14.714  0.2740  1.3753  0.8955
 1707TIP3   OH226535   5.031   1.554   5.056 -0.4005  0.1754 -0.2011
 1707TIP3    H126536   5.102   1.540   4.994  0.1657  1.0129  0.2409
 1707TIP3    H226537   4.966   1.488   5.034 -0.1094  0.3256 -1.5454
 1708TIP3   OH226538   0.063   3.089  13.360  0.3940  0.3526 -0.5240
 1708TIP3    H126539   0.100   3.144  13.428 -2.3339  0.7088  0.7497
 1708TIP3    H226540   0.018   3.018  13.407 -0.2310 -0.2425 -1.9693
 1709TIP3   OH226541   5.844   6.039   3.128 -0.3194  0.5841  0.1545
 1709TIP3    H126542   5.879   5.973   3.189  1.3298  1.2755 -0.0148
 1709TIP3    H226543   5.921   6.071   3.082 -1.4963  0.4986 -1.9018
 1710TIP3   OH226544   2.825   1.554   2.483  0.6257 -0.2203  0.2314
 1710TIP3    H126545   2.809   1.523   2.572  0.0728 -1.3026 -0.2412
 1710TIP3    H226546   2.802   1.647   2.486 -1.4129 -0.7136  0.7092
 1711TIP3   OH226547   4.136   3.442   0.868 -0.2346 -0.7043 -0.4049
 1711TIP3    H126548   4.047   3.423   0.841 -0.4666  0.9904 -0.8507
 1711TIP3    H226549   4.191   3.396   0.804 -0.7710 -0.8782 -0.7440
 1712TIP3   OH226550   1.538   2.063   1.002  0.5708 -0.0669  0.0728
 1712TIP3    H126551   1.486   1.991   0.967  1.4814  0.2321 -1.9773
 1712TIP3    H226552   1.588   2.025   1.074 -0.5550 -0.9507  0.3987
 1713TIP3   OH226553   3.025   0.442  13.271 -0.0271 -0.0560 -0.0226
 1713TIP3    H126554   2.931   0.452  13.260 -0.0260  0.3414  0.2897
 1713TIP3    H226555   3.035   0.391  13.351  0.0393  0.8220  0.5338
 1714TIP3   OH226556   1.178   4.648   4.662  0.0835 -0.1087  0.0418
 1714TIP3    H126557   1.139   4.709   4.724  0.7749  1.3035 -0.8853
 1714TIP3    H226558   1.250   4.696   4.622 -0.1944 -1.0644 -1.6795
 1715TIP3   OH226559   4.668   0.729  16.986 -0.2559 -0.4249 -0.1872
 1715TIP3    H126560   4.653   0.759  16.897 -3.1629 -0.4850  0.2423
 1715TIP3    H226561   4.581   0.707  17.019  0.7246 -0.0434  2.7943
 1716TIP3   OH226562   6.589   3.581  16.198  0.1646 -0.2302  0.2499
 1716TIP3    H126563   6.520   3.541  16.146  0.6473  0.1237 -0.6664
 1716TIP3    H226564   6.665   3.586  16.139  0.4238  1.0732  0.6585
 1717TIP3   OH226565   3.754   1.326   0.137  0.2869 -0.4571  0.1373
 1717TIP3    H126566   3.829   1.370   0.098  0.8307 -2.0220 -0.6320
 1717TIP3    H226567   3.778   1.313   0.228 -0.9269  3.0802  1.0640
 1718TIP3   OH226568   1.659   4.052  13.045  0.4292  0.3374  0.4549
 1718TIP3    H126569   1.689   3.969  13.008  1.1040  0.8860 -0.2631
 1718TIP3    H226570   1.643   4.107  12.968 -0.9640  0.5482  0.8920
 1719TIP3   OH226571   3.430   2.219   0.323  0.5397  0.5919 -0.0290
 1719TIP3    H126572   3.364   2.288   0.327  0.4792  0.4571  2.8436
 1719TIP3    H226573   3.380   2.138   0.327  0.8028  0.4773  1.1701
 1720TIP3   OH226574   2.530   3.116   4.468  0.3900 -0.3673  0.7261
 1720TIP3    H126575   2.445   3.158   4.476  0.5358  0.4299 -1.4628
 1720TIP3    H226576   2.581   3.176   4.414  1.4589 -2.1214 -0.2670
 1721TIP3   OH226577   0.985   4.421   0.983 -0.1150 -0.1795  0.3790
 1721TIP3    H126578   1.041   4.369   0.925 -0.4198  0.5560 -0.5888
 1721TIP3    H226579   0.934   4.355   1.031 -0.8548 -0.7748 -1.1927
 1722TIP3   OH226580   2.175   3.606  15.988 -0.1115 -0.2500  0.1292
 1722TIP3    H126581   2.187   3.679  15.928 -0.3750  0.1968  0.6144
 1722TIP3    H226582   2.151   3.647  16.071 -1.4413 -0.9547  0.0994
 1723TIP3   OH226583   2.989   3.150  12.484 -0.6740 -0.0093 -0.1247
 1723TIP3    H126584   3.072   3.129  12.440 -1.2925 -0.4737 -1.0816
 1723TIP3    H226585   2.961   3.233  12.445 -1.1654 -0.3606 -0.5194
 1724TIP3   OH226586   5.775   4.491   6.198  0.4030 -0.0139  0.0571
 1724TIP3    H126587   5.682   4.473   6.211 -0.1357  0.9721 -2.1614
 1724TIP3    H226588   5.815   4.405   6.187 -0.1805 -0.4613  1.3557
 1725TIP3   OH226589   6.098   5.464   2.628 -0.1150  0.5913  0.0830
 1725TIP3    H126590   6.085   5.542   2.682 -0.6552 -0.3689  1.3755
 1725TIP3    H226591   6.142   5.496   2.549 -0.5803  2.2349  0.4730
 1726TIP3   OH226592   5.591   1.701   4.708  0.1006 -0.2796 -0.2418
 1726TIP3    H126593   5.605   1.781   4.656 -0.2596  0.5599  0.9443
 1726TIP3    H226594   5.545   1.642   4.649  1.2335  0.0133 -1.4592
 1727TIP3   OH226595   5.880   5.272   5.398  0.0453 -0.5282 -0.6408
 1727TIP3    H126596   5.818   5.269   5.471 -0.3122  0.4008 -0.8854
 1727TIP3    H226597   5.885   5.182   5.367  0.6781 -1.0445  0.9115
 1728TIP3   OH226598   1.345   0.385  16.686 -0.3795  0.2325  0.2985
 1728TIP3    H126599   1.328   0.293  16.707 -0.2491  0.2155  0.3251
 1728TIP3    H226600   1.440   0.390  16.675 -0.3841  0.3697  0.3223
 1729TIP3   OH226601   0.586   0.906   3.181  0.1141  0.5376 -0.0992
 1729TIP3    H126602   0.543   0.871   3.259 -2.0795 -1.6586 -2.2350
 1729TIP3    H226603   0.680   0.899   3.201 -0.3245 -3.0370  1.1093
 1730TIP3   OH226604   0.861   3.496  11.041 -0.5594  0.5209  0.4575
 1730TIP3    H126605   0.830   3.425  10.985  1.2320 -0.3479  0.5406
 1730TIP3    H226606   0.865   3.572  10.984 -2.8325  0.6622  0.4486
 1731TIP3   OH226607   3.214   3.535  12.206  0.5365 -0.3637 -0.0452
 1731TIP3    H126608   3.254   3.590  12.273 -2.3739  1.2350  0.4690
 1731TIP3    H226609   3.202   3.594  12.131 -1.3464 -0.6139  0.0302
 1732TIP3   OH226610   3.925   4.388  12.010  0.1446  1.2562  0.3366
 1732TIP3    H126611   3.948   4.296  12.026 -1.3775  0.8648  0.3234
 1732TIP3    H226612   3.975   4.411  11.931  0.5882  0.4662  0.3804
 1733TIP3   OH226613   5.890   3.706  12.828  0.4263  0.6894 -0.3993
 1733TIP3    H126614   5.809   3.664  12.799  0.2675 -0.6568  1.8638
 1733TIP3    H226615   5.870   3.799  12.828 -0.3785  0.5405 -2.0269
 1734TIP3   OH226616   6.512   3.227   1.532 -0.1919 -0.3542  0.0104
 1734TIP3    H126617   6.551   3.204   1.448 -0.2879  1.4992 -0.5685
 1734TIP3    H226618   6.428   3.266   1.509  0.3880  1.4586  0.8504
 1735TIP3   OH226619   1.539   1.760   1.924  0.3328  0.1104  0.1952
 1735TIP3    H126620   1.614   1.818   1.939 -0.0640  0.4705  0.8370
 1735TIP3    H226621   1.558   1.683   1.978 -0.0619  0.4783  0.8664
 1736TIP3   OH226622   4.581   2.335   4.161  0.2847  0.1832  0.1379
 1736TIP3    H126623   4.488   2.332   4.138  0.5688 -1.6572 -0.8135
 1736TIP3    H226624   4.616   2.251   4.133  1.8927  0.1716  2.0501
 1737TIP3   OH226625   0.068   0.787   1.051  0.2657  0.0674 -0.4457
 1737TIP3    H126626   0.160   0.775   1.073  0.5482  4.0468  1.0721
 1737TIP3    H226627   0.020   0.751   1.125  0.7271  0.5157  0.0724
 1738TIP3   OH226628   4.656   2.344   3.181  0.3163  0.4214 -0.8282
 1738TIP3    H126629   4.648   2.438   3.169 -1.2305  0.2293 -1.3282
 1738TIP3    H226630   4.740   2.322   3.142  0.4839  1.5228 -1.0983
 1739TIP3   OH226631   3.880   0.485  15.960 -0.6106  0.1191  0.4896
 1739TIP3    H126632   3.934   0.449  15.889 -0.8341  2.0914 -0.7045
 1739TIP3    H226633   3.790   0.467  15.933 -0.7562  2.2030 -0.4906
 1740TIP3   OH226634   3.335   1.568  15.433 -0.2965 -0.3401  0.6409
 1740TIP3    H126635   3.406   1.578  15.497 -1.3550  0.1934  1.7527
 1740TIP3    H226636   3.301   1.480  15.448  1.5005 -1.4045 -1.3414
 1741TIP3   OH226637   0.034   0.343  15.973 -0.2457  0.6344 -0.5518
 1741TIP3    H126638   0.018   0.388  16.056 -0.5055  0.3813 -0.4631
 1741TIP3    H226639   0.124   0.313  15.978 -0.7904 -0.9075  0.3691
 1742TIP3   OH226640   2.946   0.312   4.060 -0.2396 -0.2623 -0.3220
 1742TIP3    H126641   2.978   0.402   4.065  0.4922 -0.4295 -1.8262
 1742TIP3    H226642   2.856   0.320   4.029 -0.3681 -0.0235  0.1037
 1743TIP3   OH226643   3.149   3.352  10.648 -0.4323  0.4900 -0.4555
 1743TIP3    H126644   3.111   3.314  10.569 -1.9000 -0.4323  0.6550
 1743TIP3    H226645   3.117   3.442  10.649 -1.5171  0.1085 -0.2257
 1744TIP3   OH226646   6.123   5.137  12.634 -0.0814 -0.4316 -0.0761
 1744TIP3    H126647   6.031   5.112  12.647 -0.7479  1.0201 -1.7915
 1744TIP3    H226648   6.131   5.220  12.682 -0.0546  0.1731 -1.1299
 1745TIP3   OH226649   6.244   3.153   3.091  0.6239 -0.3504 -0.0612
 1745TIP3    H126650   6.239   3.228   3.150 -0.2687 -1.6730  1.5654
 1745TIP3    H226651   6.247   3.192   3.003 -1.0564  1.5568  0.7022
 1746TIP3   OH226652   4.997   6.787  10.790  0.0607 -0.4031  0.1668
 1746TIP3    H126653   4.966   6.708  10.835  1.1237  0.1533  1.9124
 1746TIP3    H226654   4.927   6.851  10.803 -0.2499 -0.6701 -0.1798
 1747TIP3   OH226655   3.955   1.333  12.319 -0.5736  0.3547 -0.4425
 1747TIP3    H126656   4.044   1.351  12.289 -0.2737 -0.5072 -0.0632
 1747TIP3    H226657   3.899   1.370  12.250  0.0712  0.7062 -0.7869
 1748TIP3   OH226658   6.174   6.217  17.095  0.0481  0.3248 -0.0918
 1748TIP3    H126659   6.177   6.122  17.102  0.0841  0.3509  0.2362
 1748TIP3    H226660   6.258   6.247  17.129  0.2869  0.4397 -0.7793
 1749TIP3   OH226661   6.302   1.676   3.598  0.4057 -0.2928  0.2184
 1749TIP3    H126662   6.252   1.603   3.636 -0.1823  0.2288  0.4447
 1749TIP3    H226663   6.381   1.681   3.652  0.7362 -1.1517 -0.1721
 1750TIP3   OH226664   6.011   1.759   0.924  0.5629 -0.0870  0.7519
 1750TIP3    H126665   5.995   1.724   0.837 -1.0290  0.0702  0.9617
 1750TIP3    H226666   6.093   1.808   0.916  0.4338 -0.0773 -0.6407
 1751TIP3   OH226667   2.787   0.708   1.658 -0.1852 -0.0729 -0.3744
 1751TIP3    H126668   2.767   0.797   1.684  0.4218 -0.2463  0.7118
 1751TIP3    H226669   2.815   0.665   1.739  1.5597 -0.6660 -1.2723
 1752TIP3   OH226670   0.228   0.258   0.777 -0.1969 -0.4938  0.2994
 1752TIP3    H126671   0.185   0.179   0.812  0.7531 -0.9053  0.5566
 1752TIP3    H226672   0.277   0.226   0.702  3.3461 -0.9017  2.6774
 1753TIP3   OH226673   3.561   5.995   1.673  0.0900 -0.0033 -0.0159
 1753TIP3    H126674   3.541   6.004   1.580  0.0921 -0.8106 -0.0975
 1753TIP3    H226675   3.498   5.931   1.705  0.7665 -0.5145  0.3087
 1754TIP3   OH226676   2.263   3.838   1.325 -0.0465  0.6722 -0.1784
 1754TIP3    H126677   2.346   3.810   1.364  0.4883  2.1171 -0.2676
 1754TIP3    H226678   2.286   3.913   1.271 -1.1980  0.2518 -1.2816
 1755TIP3   OH226679   1.296   1.476   0.994  0.7418  0.1261 -0.1901
 1755TIP3    H126680   1.318   1.449   1.084  0.5778 -1.2965 -0.5526
 1755TIP3    H226681   1.377   1.459   0.945  0.2964 -0.7481 -0.6361
 1756TIP3   OH226682   6.234   6.174   2.098  0.5567  0.1266 -0.0017
 1756TIP3    H126683   6.273   6.220   2.172 -0.9109 -0.6450  1.2782
 1756TIP3    H226684   6.148   6.215   2.087 -0.2805 -1.5019  0.3941
 1757TIP3   OH226685   5.022   0.773   3.985  0.0917  0.4552 -0.7228
 1757TIP3    H126686   5.058   0.729   4.062 -1.8057 -0.1190 -0.1565
 1757TIP3    H226687   5.023   0.705   3.917  1.7111  0.9459 -1.2200
 1758TIP3   OH226688   6.625   4.138  13.355  0.0642  0.3995  0.4814
 1758TIP3    H126689   6.678   4.084  13.414 -0.9050 -0.2413  0.7858
 1758TIP3    H226690   6.575   4.195  13.413  0.9826  1.5317  0.1630
 1759TIP3   OH226691   4.156   1.560   4.011  0.9973 -0.0983  0.3637
 1759TIP3    H126692   4.184   1.650   3.992  1.8707 -0.5949 -0.7967
 1759TIP3    H226693   4.062   1.561   3.997  1.3807 -0.0457 -2.6253
 1760TIP3   OH226694   1.670   5.163   2.272  0.0305 -0.1529 -0.0680
 1760TIP3    H126695   1.764   5.179   2.285 -0.1497 -0.0120  1.1111
 1760TIP3    H226696   1.654   5.078   2.314 -0.0816 -0.9075 -1.5978
 1761TIP3   OH226697   3.252   3.538  17.066  0.0764  0.2777  0.0553
 1761TIP3    H126698   3.199   3.492  17.001 -1.2682 -0.0997  1.3855
 1761TIP3    H226699   3.307   3.470  17.104  1.4838  0.6566 -1.2715
 1762TIP3   OH226700   2.823   2.922   1.143 -0.3275  0.5252  0.6578
 1762TIP3    H126701   2.757   2.856   1.163  1.5730 -1.0871  1.8520
 1762TIP3    H226702   2.862   2.893   1.061  0.2608  0.3282  0.9995
 1763TIP3   OH226703   5.571   6.004  13.105 -0.2959 -0.2582  0.0660
 1763TIP3    H126704   5.600   6.092  13.131 -0.5986 -0.4922  1.2063
 1763TIP3    H226705   5.563   6.009  13.010  0.9295  0.5861 -0.0083
 1764TIP3   OH226706   2.581   2.339  14.570  0.6226  0.4694 -0.2410
 1764TIP3    H126707   2.622   2.281  14.506 -2.4216 -2.0618 -0.0282
 1764TIP3    H226708   2.613   2.308  14.655  0.1617  0.0487 -0.2185
 1765TIP3   OH226709   0.169   3.541   0.982 -0.1999  0.0224  1.0000
 1765TIP3    H126710   0.244   3.520   1.037  0.9102  0.0369 -0.4685
 1765TIP3    H226711   0.200   3.527   0.893 -1.2946  2.0510  0.2694
 1766TIP3   OH226712   4.706   5.171  12.535 -0.0338 -0.4283  0.6121
 1766TIP3    H126713   4.611   5.186  12.539 -0.1739 -0.2569 -2.2036
 1766TIP3    H226714   4.726   5.122  12.614 -2.2292  0.8418  1.9961
 1767TIP3   OH226715   6.307   2.756   4.026 -0.3344 -0.6465 -0.4442
 1767TIP3    H126716   6.368   2.684   4.038 -1.6322 -1.7593 -0.3076
 1767TIP3    H226717   6.251   2.752   4.104 -0.2033  0.7181 -0.2783
 1768TIP3   OH226718   1.128   2.166  13.397 -0.2517  0.4664  0.4094
 1768TIP3    H126719   1.132   2.257  13.368  0.6033  1.0985  2.4097
 1768TIP3    H226720   1.181   2.118  13.334 -1.4523  1.1784 -1.1916
 1769TIP3   OH226721   0.543   0.302   1.292  0.1167 -0.1742 -0.5805
 1769TIP3    H126722   0.602   0.230   1.312 -1.6832 -1.5699 -0.2116
 1769TIP3    H226723   0.557   0.365   1.363  0.8722 -0.6752 -0.2817
 1770TIP3   OH226724   0.784   0.246   3.448 -0.2403 -0.1251  0.0111
 1770TIP3    H126725   0.718   0.196   3.497 -0.5936  1.1704  0.8870
 1770TIP3    H226726   0.821   0.306   3.513  0.8945  0.0523 -0.7868
 1771TIP3   OH226727   5.643   3.170  14.311  0.2650 -0.4249  0.7316
 1771TIP3    H126728   5.584   3.219  14.368  1.1167  1.6675 -0.1234
 1771TIP3    H226729   5.590   3.149  14.234  0.4995  1.1490  0.1153
 1772TIP3   OH226730   1.636   4.905  12.242  0.4982 -0.4288  0.0568
 1772TIP3    H126731   1.631   4.827  12.187 -0.2483  1.1894 -2.2167
 1772TIP3    H226732   1.548   4.914  12.278  0.5562 -0.5707  0.2344
 1773TIP3   OH226733   4.132   3.350  13.436 -0.0229  0.1081 -0.1932
 1773TIP3    H126734   4.207   3.391  13.480 -0.2994  0.6624 -0.2348
 1773TIP3    H226735   4.142   3.376  13.344  0.1295 -0.4096 -0.3201
 1774TIP3   OH226736   2.091   1.152   4.565 -0.0098 -0.2099 -0.2640
 1774TIP3    H126737   2.159   1.215   4.586  1.0519 -1.2807 -0.4561
 1774TIP3    H226738   2.112   1.122   4.477 -1.2733  0.1439 -0.7057
 1775TIP3   OH226739   6.130   6.085   0.591  0.3536 -1.0284  0.2521
 1775TIP3    H126740   6.102   6.073   0.501 -1.5078 -2.1095  0.9301
 1775TIP3    H226741   6.199   6.020   0.604  0.7098 -0.7864 -0.4142
 1776TIP3   OH226742   6.746   2.713  13.732 -0.2753  0.3008 -0.3187
 1776TIP3    H126743   6.686   2.724  13.806 -1.0584  0.9928 -1.0472
 1776TIP3    H226744   6.766   2.619  13.732 -1.6892 -0.0205 -0.3209
 1777TIP3   OH226745   0.110   2.151  16.632 -0.2362  0.3196 -0.7021
 1777TIP3    H126746   0.092   2.143  16.726  0.2056 -0.5579 -0.6808
 1777TIP3    H226747   0.199   2.185  16.628 -0.2156  0.2546 -0.7940
 1778TIP3   OH226748   1.358   1.704  11.027  0.0038 -0.0358  0.1553
 1778TIP3    H126749   1.318   1.676  11.109  0.3873 -0.9420  0.0334
 1778TIP3    H226750   1.416   1.632  11.002  0.4968  0.5769 -0.4973
 1779TIP3   OH226751   2.870   1.688   0.879  0.5760 -0.2025 -0.4739
 1779TIP3    H126752   2.908   1.690   0.967 -1.1159  0.8260  0.2474
 1779TIP3    H226753   2.925   1.749   0.829  1.6835 -0.9620 -0.2004
 1780TIP3   OH226754   5.463   0.879   2.048  0.2306 -0.5800  0.1761
 1780TIP3    H126755   5.406   0.870   2.125  0.4217  0.4960  0.4472
 1780TIP3    H226756   5.405   0.910   1.979  0.4359  0.3406  0.4052
 1781TIP3   OH226757   3.276   5.399  14.223  0.0606 -0.0265  0.3860
 1781TIP3    H126758   3.333   5.475  14.235 -0.2829  0.0370  1.7223
 1781TIP3    H226759   3.230   5.391  14.306 -1.0607 -0.7567 -0.2960
 1782TIP3   OH226760   0.043   1.930  10.781 -0.2783  0.8395 -0.4789
 1782TIP3    H126761   0.121   1.898  10.735 -0.0750 -1.3461  1.2909
 1782TIP3    H226762   0.052   2.025  10.779  1.8329  0.6651 -1.3427
 1783TIP3   OH226763   3.466   2.716   2.343 -0.2938 -0.4155 -0.4963
 1783TIP3    H126764   3.403   2.774   2.299  0.8299  0.2938 -1.1794
 1783TIP3    H226765   3.425   2.629   2.338 -1.4232  0.1111 -0.5415
 1784TIP3   OH226766   0.375   5.793  15.644 -0.9577  0.0832  0.6349
 1784TIP3    H126767   0.468   5.809  15.629 -0.7361 -1.3163  0.4326
 1784TIP3    H226768   0.341   5.876  15.678  0.3341  0.6391  0.5798
 1785TIP3   OH226769   0.140   5.341   4.442  0.0892  0.0718  0.1069
 1785TIP3    H126770   0.078   5.279   4.481 -0.5878  2.1373  2.4881
 1785TIP3    H226771   0.212   5.345   4.505  1.7037 -0.7817 -1.6580
 1786TIP3   OH226772   2.961   6.691   0.410 -0.1296  0.5164  0.1993
 1786TIP3    H126773   3.001   6.688   0.323  0.1307 -0.7858  0.3499
 1786TIP3    H226774   2.893   6.757   0.403 -0.7978 -0.3060 -1.3075
 1787TIP3   OH226775   6.310   0.207   2.457 -0.1788  0.0023 -0.6308
 1787TIP3    H126776   6.221   0.227   2.486  0.0987  3.9739 -2.2226
 1787TIP3    H226777   6.363   0.280   2.490  2.4633 -2.0729 -0.0785
 1788TIP3   OH226778   4.924   1.647  16.128  0.3913 -0.1072  0.1060
 1788TIP3    H126779   4.842   1.601  16.149 -0.0211  0.1116 -0.9999
 1788TIP3    H226780   4.968   1.590  16.065  0.2329  0.6478 -0.6923
 1789TIP3   OH226781   5.695   3.390   6.576  0.1813  0.7078  0.7734
 1789TIP3    H126782   5.653   3.323   6.631  0.4508  0.5017  0.7270
 1789TIP3    H226783   5.630   3.408   6.507  0.5145 -0.2471  0.1983
 1790TIP3   OH226784   5.711   4.179   4.222 -0.0845 -0.2557 -0.6487
 1790TIP3    H126785   5.720   4.225   4.138 -0.0094 -0.0645 -0.5379
 1790TIP3    H226786   5.799   4.181   4.260 -0.1992  0.0104 -0.3865
 1791TIP3   OH226787   5.149   2.675  12.313  0.0771 -0.3526  0.1586
 1791TIP3    H126788   5.189   2.609  12.257  1.3303  0.3747  0.1875
 1791TIP3    H226789   5.065   2.637  12.339  1.2462 -2.4028  1.0765
 1792TIP3   OH226790   5.445   6.763  15.581  0.1288  0.0970  0.2461
 1792TIP3    H126791   5.350   6.759  15.596  0.1492  1.6934  0.9091
 1792TIP3    H226792   5.458   6.716  15.499 -1.1897 -0.4946  0.3580
 1793TIP3   OH226793   0.852   0.970  11.132 -0.0313 -0.2433 -0.4890
 1793TIP3    H126794   0.800   0.994  11.055 -0.0068  0.1328 -0.3877
 1793TIP3    H226795   0.931   0.928  11.096  0.2276  0.4073 -0.6896
 1794TIP3   OH226796   1.064   2.599  16.094  0.4734 -0.0030  0.6213
 1794TIP3    H126797   1.132   2.532  16.096 -0.2677 -0.7794  0.0404
 1794TIP3    H226798   0.985   2.554  16.123 -0.7282 -0.1861 -2.7521
 1795TIP3   OH226799   4.578   0.959  10.315 -0.6026 -0.1663  0.1012
 1795TIP3    H126800   4.660   0.962  10.265 -0.8387 -3.0649 -0.5790
 1795TIP3    H226801   4.605   0.976  10.405  0.9268 -2.0173  0.0337
 1796TIP3   OH226802   6.211   6.052  12.608  0.1281 -1.0507  0.0809
 1796TIP3    H126803   6.207   6.065  12.703 -0.6819  1.5572 -0.2665
 1796TIP3    H226804   6.293   6.006  12.594 -0.1865 -2.3220  2.1240
 1797TIP3   OH226805   0.455   1.416   1.179  0.1727 -0.0851 -0.2221
 1797TIP3    H126806   0.463   1.509   1.198 -0.4268  0.2529 -1.5288
 1797TIP3    H226807   0.542   1.389   1.149  0.2850  0.1056 -0.0654
 1798TIP3   OH226808   6.679   2.905  12.494  0.2805  0.3477 -0.5203
 1798TIP3    H126809   6.683   2.849  12.571 -1.7202 -0.7530 -1.1596
 1798TIP3    H226810   6.715   2.850  12.423  1.2886  1.0268 -0.5337
 1799TIP3   OH226811   6.730   0.730  16.507  0.0532  0.3435  0.1158
 1799TIP3    H126812   6.689   0.749  16.591  1.4075  1.0348  0.6508
 1799TIP3    H226813   6.817   0.696  16.530 -0.1342 -0.8986 -0.9772
 1800TIP3   OH226814   1.891   3.164  16.987  0.0208 -0.0161  0.0110
 1800TIP3    H126815   1.925   3.248  17.016  0.0365 -0.0506  0.0905
 1800TIP3    H226816   1.932   3.099  17.044 -0.1490 -0.0604  0.0836
 1801TIP3   OH226817   3.810   4.625  11.931 -0.1854  0.1413 -0.0378
 1801TIP3    H126818   3.879   4.680  11.967 -0.7871  0.9356 -0.0750
 1801TIP3    H226819   3.836   4.536  11.952  0.7344  0.4503  0.1432
 1802TIP3   OH226820   3.510   6.330   0.680 -0.1739 -0.3263  0.5022
 1802TIP3    H126821   3.560   6.373   0.611  0.1668 -2.9347 -0.9403
 1802TIP3    H226822   3.429   6.380   0.686  0.0398  0.2864 -1.4036
 1803TIP3   OH226823   5.982   4.246   1.677 -0.2300  0.1977  0.4263
 1803TIP3    H126824   6.034   4.308   1.729 -1.9533  0.5087  1.8550
 1803TIP3    H226825   5.927   4.302   1.622 -1.6408 -0.0284  1.5702
 1804TIP3   OH226826   2.566   6.128   5.039 -0.3233  0.0142 -0.1101
 1804TIP3    H126827   2.509   6.073   4.985  0.0494  0.5254 -1.0358
 1804TIP3    H226828   2.505   6.190   5.080 -0.4630  0.5323 -1.0630
 1805TIP3   OH226829   5.879   4.912  14.558  0.2446  0.3110  0.4446
 1805TIP3    H126830   5.953   4.894  14.501  1.1824 -0.6197  1.9021
 1805TIP3    H226831   5.804   4.923  14.499  1.4853  0.9919 -1.0195
 1806TIP3   OH226832   4.314   0.024   0.137 -0.0886 -0.1806 -0.5789
 1806TIP3    H126833   4.249  -0.034   0.178 -1.2095  2.0017  0.8098
 1806TIP3    H226834   4.391  -0.032   0.124 -1.1738 -2.0078  0.6490
 1807TIP3   OH226835   3.393   2.293  14.701 -0.7962 -0.6814  0.0741
 1807TIP3    H126836   3.324   2.319  14.640 -1.1031  1.4350  1.2544
 1807TIP3    H226837   3.348   2.236  14.764 -1.6571  1.1548  1.1752
 1808TIP3   OH226838   0.390   6.514   4.456 -0.1511 -0.2015  0.4628
 1808TIP3    H126839   0.453   6.507   4.527 -0.8373 -1.3738  0.9774
 1808TIP3    H226840   0.307   6.488   4.495 -0.6719 -0.1685 -0.5969
 1809TIP3   OH226841   5.747   4.215  17.025  0.0891  0.8516  0.0257
 1809TIP3    H126842   5.688   4.285  17.053 -2.0995 -1.0019  0.2730
 1809TIP3    H226843   5.807   4.203  17.099 -2.0133 -0.1349  1.6433
 1810TIP3   OH226844   6.217   5.018  14.760 -0.2908  0.3603  0.0372
 1810TIP3    H126845   6.294   4.961  14.754 -1.1724 -0.7041 -2.0785
 1810TIP3    H226846   6.153   4.966  14.809 -1.2102 -0.6963 -2.1767
 1811TIP3   OH226847   2.912   5.346   6.215 -0.2034 -0.0178  0.1199
 1811TIP3    H126848   2.887   5.371   6.304 -1.4315 -0.2595 -0.1427
 1811TIP3    H226849   2.831   5.355   6.164  0.4867  0.1068 -0.9694
 1812TIP3   OH226850   1.022   6.426   0.862 -0.9658  0.2629  0.7042
 1812TIP3    H126851   1.061   6.350   0.818 -0.3254  0.7018  0.5090
 1812TIP3    H226852   0.940   6.393   0.897 -0.2918 -0.7562  1.3654
 1813TIP3   OH226853   6.107   0.102  11.879 -0.3795  0.7529 -0.4377
 1813TIP3    H126854   6.028   0.136  11.922 -0.0021 -0.3386  1.1480
 1813TIP3    H226855   6.176   0.112  11.943  0.3251 -0.3225 -1.0074
 1814TIP3   OH226856   2.206   3.925   2.113 -0.1394  0.6352  0.3672
 1814TIP3    H126857   2.295   3.891   2.101 -0.3215  0.8195 -1.7175
 1814TIP3    H226858   2.150   3.847   2.108 -0.2766  0.8007 -0.8356
 1815TIP3   OH226859   2.268   5.210   1.674  0.5073  0.5481  0.3538
 1815TIP3    H126860   2.288   5.179   1.762  1.8561  1.5391  0.4214
 1815TIP3    H226861   2.350   5.199   1.626  0.2180  1.4637 -0.3565
 1816TIP3   OH226862   0.326   1.158   4.187 -0.1502  0.1469 -0.2053
 1816TIP3    H126863   0.322   1.078   4.135 -1.1986  2.1759 -3.3882
 1816TIP3    H226864   0.253   1.150   4.249  1.4749 -2.5642  1.4461
 1817TIP3   OH226865   3.304   5.344   3.529  0.1467  0.0144  0.0717
 1817TIP3    H126866   3.249   5.384   3.596 -1.4498 -1.1456 -0.5053
 1817TIP3    H226867   3.330   5.259   3.566  1.5777  0.5626  0.3455
 1818TIP3   OH226868   5.153   4.569  12.965  0.1530  0.2975  0.1269
 1818TIP3    H126869   5.064   4.583  12.997  0.1782  0.5225  0.1011
 1818TIP3    H226870   5.197   4.521  13.036 -0.2255 -0.5586 -0.2112
 1819TIP3   OH226871   3.013   1.094   0.649 -0.0984 -0.2840  0.3253
 1819TIP3    H126872   3.106   1.078   0.665 -0.1489 -0.0885  0.8249
 1819TIP3    H226873   2.979   1.010   0.620  0.0265 -0.6228  1.1363
 1820TIP3   OH226874   3.807   3.628   1.597 -0.0301 -0.0160 -0.1195
 1820TIP3    H126875   3.792   3.534   1.584  0.8733  0.0043 -1.4379
 1820TIP3    H226876   3.720   3.665   1.610 -0.6008 -0.7003 -1.9123
 1821TIP3   OH226877   6.456   2.671   4.954 -0.2599 -0.5201  0.1267
 1821TIP3    H126878   6.493   2.709   5.033 -0.8840  0.0341  0.1545
 1821TIP3    H226879   6.521   2.690   4.885 -0.3418  0.1622  0.2366
 1822TIP3   OH226880   5.797   4.537   3.510 -0.4069 -0.4222  0.0749
 1822TIP3    H126881   5.882   4.569   3.480 -0.1506 -1.5574 -0.4108
 1822TIP3    H226882   5.771   4.600   3.578  0.5278  0.2791 -0.2044
 1823TIP3   OH226883   2.911   2.324  11.917  0.0157  0.0047 -0.9087
 1823TIP3    H126884   2.827   2.286  11.944 -0.6321  1.6414 -0.5602
 1823TIP3    H226885   2.975   2.288  11.979 -0.6912  0.0476 -0.1540
 1824TIP3   OH226886   3.836   1.709  13.312  0.1579 -0.4404  0.1855
 1824TIP3    H126887   3.826   1.694  13.406  2.6947 -1.4097  0.3617
 1824TIP3    H226888   3.829   1.622  13.273 -0.9055 -0.0410 -0.5317
 1825TIP3   OH226889   3.023   0.396   0.408  0.0500  0.5116  0.0364
 1825TIP3    H126890   2.947   0.448   0.438 -1.9669 -1.3403 -1.7144
 1825TIP3    H226891   3.036   0.424   0.318  2.0309  1.4221  0.5882
 1826TIP3   OH226892   5.462   4.231   3.935  0.4746  0.8928  0.1819
 1826TIP3    H126893   5.499   4.157   3.983 -1.4943  0.2734  0.8070
 1826TIP3    H226894   5.491   4.308   3.984  0.0413  0.3621  1.2991
 1827TIP3   OH226895   4.100   1.554   3.566  0.1059  0.5978 -0.4433
 1827TIP3    H126896   4.066   1.635   3.528  0.1395  1.2974  0.9616
 1827TIP3    H226897   4.184   1.541   3.523  0.0997  1.3152 -0.6805
 1828TIP3   OH226898   3.208   1.154   6.591  0.2902  0.4675  0.2765
 1828TIP3    H126899   3.297   1.127   6.568  0.5755  1.4408  0.2187
 1828TIP3    H226900   3.169   1.076   6.629  1.0173 -0.1072 -0.1273
 1829TIP3   OH226901   5.958   3.265  16.915 -0.4305 -0.9197 -0.1636
 1829TIP3    H126902   5.997   3.337  16.866  1.1203 -0.0272  2.2677
 1829TIP3    H226903   5.875   3.302  16.947 -2.7042 -2.3328 -4.0918
 1830TIP3   OH226904   2.693   3.428   4.554  0.2997 -0.2341  0.0153
 1830TIP3    H126905   2.689   3.349   4.500 -1.5124 -0.4112  0.3602
 1830TIP3    H226906   2.654   3.496   4.500  0.4015  0.0558  0.3083
 1831TIP3   OH226907   4.058   3.690  12.825  0.6056  0.3822 -0.6349
 1831TIP3    H126908   4.066   3.761  12.761 -1.4820  0.0787 -1.2476
 1831TIP3    H226909   4.055   3.610  12.773 -0.7139  0.1077 -0.1576
 1832TIP3   OH226910   3.330   5.042   4.138  0.1639  0.5760  0.2176
 1832TIP3    H126911   3.289   4.963   4.102 -0.2863  1.0413 -0.3062
 1832TIP3    H226912   3.400   5.009   4.194  1.1594 -0.1624 -1.4231
 1833TIP3   OH226913   2.085   2.901  15.567 -0.3123 -0.4275 -0.3655
 1833TIP3    H126914   1.994   2.902  15.537 -0.7839 -2.5498  0.9191
 1833TIP3    H226915   2.137   2.904  15.486 -1.5101  0.1195 -1.1320
 1834TIP3   OH226916   3.414   4.112   0.344  0.1032  0.0246 -0.5425
 1834TIP3    H126917   3.442   4.028   0.309 -2.4071 -1.7353  1.5565
 1834TIP3    H226918   3.455   4.117   0.430  1.0005  1.4000 -1.0308
 1835TIP3   OH226919   0.881   0.958   2.136 -0.4319 -0.3094  0.1343
 1835TIP3    H126920   0.869   0.866   2.161  2.1735 -0.5280  0.6646
 1835TIP3    H226921   0.975   0.973   2.141 -0.9301  2.8022  1.4961
 1836TIP3   OH226922   4.470   1.974   5.009  0.1853  0.0288 -0.0770
 1836TIP3    H126923   4.389   1.942   4.969  1.2308 -0.2285 -2.0525
 1836TIP3    H226924   4.479   2.064   4.978  0.8537 -0.0708 -0.1861
 1837TIP3   OH226925   0.339   5.130   0.785 -0.1720  0.4943  0.0433
 1837TIP3    H126926   0.399   5.057   0.798  0.1049  1.0018  1.6684
 1837TIP3    H226927   0.344   5.181   0.866 -0.8928  1.9300 -0.7890
 1838TIP3   OH226928   3.344   1.282   1.208 -0.2212 -0.5925  0.4001
 1838TIP3    H126929   3.372   1.355   1.264 -2.3962 -0.1170  0.8874
 1838TIP3    H226930   3.423   1.259   1.158  0.3553  2.4786 -0.1895
 1839TIP3   OH226931   5.747   1.757   6.628  0.3349 -0.1336 -0.0278
 1839TIP3    H126932   5.812   1.696   6.595 -0.4001 -1.0194  0.1597
 1839TIP3    H226933   5.667   1.737   6.580 -0.3485 -0.4495  1.2253
 1840TIP3   OH226934   0.673   0.647  15.367 -0.7360  0.0791  0.2222
 1840TIP3    H126935   0.626   0.655  15.284 -0.3067  1.4956  0.0993
 1840TIP3    H226936   0.668   0.554  15.389 -2.0955 -0.0738 -0.6606
 1841TIP3   OH226937   2.391   1.298   5.479  0.0725  0.5385 -0.0075
 1841TIP3    H126938   2.352   1.214   5.502 -2.0713  1.6037  0.3486
 1841TIP3    H226939   2.362   1.357   5.548 -1.4942  2.4159 -2.2201
 1842TIP3   OH226940   5.613   5.424   0.359  0.1581 -0.5055  1.0710
 1842TIP3    H126941   5.705   5.425   0.335 -0.1857  0.4142 -0.2786
 1842TIP3    H226942   5.599   5.509   0.402  0.0892 -0.8962  1.8093
 1843TIP3   OH226943   1.921   3.654  16.789  0.2773  0.3322  1.0956
 1843TIP3    H126944   1.876   3.716  16.846 -0.7293 -0.9890  1.7653
 1843TIP3    H226945   2.000   3.700  16.760 -0.8770  2.2399  0.8939
 1844TIP3   OH226946   0.030   3.860  11.221  0.1526 -0.3312 -0.2429
 1844TIP3    H126947  -0.019   3.939  11.246  1.9569  1.1819 -1.3320
 1844TIP3    H226948   0.089   3.844  11.295 -0.1534 -0.6061 -0.0583
 1845TIP3   OH226949   1.401   2.271   4.042 -0.1074 -0.8302 -0.0309
 1845TIP3    H126950   1.485   2.282   3.999 -1.2453  0.6115 -1.9764
 1845TIP3    H226951   1.371   2.361   4.059 -1.3689 -1.3114  0.3478
 1846TIP3   OH226952   2.763   2.405  15.420 -0.4152  0.1188 -0.6156
 1846TIP3    H126953   2.694   2.448  15.370 -0.5086 -0.0660 -0.6435
 1846TIP3    H226954   2.755   2.312  15.399 -0.8236 -0.0365  0.1778
 1847TIP3   OH226955   4.834   0.746   2.110 -0.0720  0.3512  0.0120
 1847TIP3    H126956   4.906   0.736   2.172  0.6259  0.7137 -0.7294
 1847TIP3    H226957   4.844   0.835   2.075 -3.2725  1.9366  2.8553
 1848TIP3   OH226958   0.193   4.882  12.625 -0.0494  0.4115 -0.0677
 1848TIP3    H126959   0.209   4.975  12.606  1.3619 -0.0539 -1.2812
 1848TIP3    H226960   0.248   4.835  12.562 -1.6646 -1.2581 -0.2669
 1849TIP3   OH226961   5.486   5.420   3.931 -0.0534  0.2146  0.2511
 1849TIP3    H126962   5.570   5.374   3.939 -0.4050  0.0345  3.5749
 1849TIP3    H226963   5.496   5.497   3.987 -1.3931  1.3183 -0.9977
 1850TIP3   OH226964   3.185   6.512   3.785  0.4463  0.0060 -0.5649
 1850TIP3    H126965   3.258   6.510   3.847 -1.0966 -0.2517  1.2578
 1850TIP3    H226966   3.118   6.565   3.827 -1.0235 -1.0154 -1.5519
 1851TIP3   OH226967   2.330   3.691  16.516  0.4941  0.4306  0.0162
 1851TIP3    H126968   2.279   3.644  16.450  2.0277 -1.7287  0.3241
 1851TIP3    H226969   2.361   3.769  16.470 -0.0544 -0.0760 -1.2517
 1852TIP3   OH226970   4.185   5.346  14.147 -0.4671  0.2344 -0.0083
 1852TIP3    H126971   4.111   5.310  14.195  0.1205  0.5366  1.1492
 1852TIP3    H226972   4.146   5.399  14.078 -1.3598  2.3443  2.0668
 1853TIP3   OH226973   5.227   1.041   2.242  0.3409  0.4900  0.3550
 1853TIP3    H126974   5.137   1.048   2.274 -0.0884 -0.5564 -0.6090
 1853TIP3    H226975   5.257   0.956   2.273  0.1834 -0.2006 -1.3272
 1854TIP3   OH226976   6.746   6.223   0.895 -0.5100  0.0548 -0.0062
 1854TIP3    H126977   6.800   6.210   0.817  0.9955  2.6983  0.5336
 1854TIP3    H226978   6.697   6.304   0.876 -1.4681 -0.2714  1.0563
 1855TIP3   OH226979   0.357   0.010   1.356 -0.2296  0.4651 -0.1788
 1855TIP3    H126980   0.384   0.090   1.401  0.0703 -0.1065  0.6631
 1855TIP3    H226981   0.285   0.038   1.299 -0.7307  1.1670  0.7818
 1856TIP3   OH226982   2.882   2.118   5.577 -1.3124 -0.3033 -0.1288
 1856TIP3    H126983   2.901   2.042   5.631 -0.3812  0.7041  0.9774
 1856TIP3    H226984   2.787   2.131   5.586 -1.3186 -0.7437  0.4424
 1857TIP3   OH226985   3.386   3.017  13.494  0.0296  0.5339  0.3516
 1857TIP3    H126986   3.370   3.097  13.444  1.3296 -0.3015 -1.4578
 1857TIP3    H226987   3.435   3.046  13.571  1.5191  1.3491 -0.8876
 1858TIP3   OH226988   2.599   4.244  11.379  0.5713  0.4751 -0.1273
 1858TIP3    H126989   2.641   4.315  11.428  1.3302  0.3233 -0.5355
 1858TIP3    H226990   2.616   4.165  11.432 -0.3725  0.6119  0.3840
 1859TIP3   OH226991   2.338   1.590   2.456  0.1190  0.0596  0.5975
 1859TIP3    H126992   2.356   1.500   2.427 -0.1056 -0.0735  0.8773
 1859TIP3    H226993   2.297   1.631   2.379 -0.1044 -0.1785  0.5859
 1860TIP3   OH226994   0.129   6.439   5.105  0.3119 -0.2374 -0.2488
 1860TIP3    H126995   0.098   6.348   5.104  0.6872 -0.3882  1.0584
 1860TIP3    H226996   0.119   6.467   5.196 -0.2730  1.2065 -0.7359
 1861TIP3   OH226997   5.803   6.111  14.091 -0.4736  0.1305  0.0814
 1861TIP3    H126998   5.842   6.046  14.032 -0.3032  0.7060 -0.4395
 1861TIP3    H226999   5.839   6.089  14.177  1.5724  1.0971 -0.5129
 1862TIP3   OH227000   0.694   5.212   3.447 -0.0057 -0.2785  0.0875
 1862TIP3    H127001   0.688   5.203   3.352 -2.4524 -0.8719  0.2479
 1862TIP3    H227002   0.606   5.240   3.474  1.6971  3.8367  1.7976
 1863TIP3   OH227003   2.548   1.570   0.543 -0.7823 -0.6177 -0.4022
 1863TIP3    H127004   2.612   1.537   0.605  0.3339 -0.3613 -1.3834
 1863TIP3    H227005   2.472   1.595   0.596 -0.1714 -1.1868  0.7416
 1864TIP3   OH227006   0.485   1.692  13.957 -0.1500  0.1714  0.2404
 1864TIP3    H127007   0.555   1.718  14.018 -0.3584  1.2378  0.0320
 1864TIP3    H227008   0.418   1.760  13.967 -0.1377  0.4185 -1.2466
 1865TIP3   OH227009   1.809   1.172   2.102 -0.3256 -0.4508 -0.6588
 1865TIP3    H127010   1.782   1.111   2.033 -0.7570 -1.3610  0.3058
 1865TIP3    H227011   1.787   1.258   2.067 -0.9880 -0.9310 -1.4614
 1866TIP3   OH227012   4.983   6.737  14.552  0.2518 -0.1613 -0.9408
 1866TIP3    H127013   5.025   6.751  14.636 -1.8908  0.2124  0.1049
 1866TIP3    H227014   4.998   6.818  14.503  1.6319 -0.4418 -0.9988
 1867TIP3   OH227015   6.132   6.262   0.346 -0.1683  0.3208  0.1641
 1867TIP3    H127016   6.140   6.167   0.332 -0.3817  0.4437 -0.8186
 1867TIP3    H227017   6.096   6.295   0.264  1.1673  1.4392  0.0248
 1868TIP3   OH227018   6.549   3.740  11.152  0.0024  0.2094 -0.0737
 1868TIP3    H127019   6.574   3.687  11.076 -2.0584  1.4504 -1.6573
 1868TIP3    H227020   6.623   3.800  11.164 -0.4244  1.2117 -2.2541
 1869TIP3   OH227021   4.688   1.930  13.955  0.3503  0.5302 -0.7470
 1869TIP3    H127022   4.681   2.010  14.007  0.4326 -0.7257  1.2445
 1869TIP3    H227023   4.770   1.890  13.983 -1.0290 -1.6422  0.3225
 1870TIP3   OH227024   0.272   2.456  14.901  0.4959  0.6278 -0.1264
 1870TIP3    H127025   0.231   2.538  14.871 -2.3104 -0.8468 -0.4351
 1870TIP3    H227026   0.271   2.462  14.996 -2.0126 -0.1155 -0.0832
 1871TIP3   OH227027   2.545   5.014   3.644 -0.2544 -0.2758 -0.1280
 1871TIP3    H127028   2.637   5.003   3.666 -0.2002  0.4910  0.0628
 1871TIP3    H227029   2.546   5.044   3.553 -0.1229  2.8107  0.8176
 1872TIP3   OH227030   3.361   5.793  11.618  0.0104  0.1488  0.1190
 1872TIP3    H127031   3.279   5.746  11.601 -0.0318 -0.0202  0.7811
 1872TIP3    H227032   3.413   5.732  11.671  0.9491 -0.1172 -1.1049
 1873TIP3   OH227033   6.463   5.106  12.155  0.2275 -0.1003 -0.3955
 1873TIP3    H127034   6.559   5.104  12.160  0.3419  0.5363 -2.0514
 1873TIP3    H227035   6.436   5.018  12.179  1.2697 -0.4551 -0.5120
 1874TIP3   OH227036   1.648   2.852   6.677  0.9555 -0.3282  0.0346
 1874TIP3    H127037   1.567   2.813   6.644  1.2132 -1.5022  0.7477
 1874TIP3    H227038   1.675   2.794   6.748  0.7095  1.8056  1.9478
 1875TIP3   OH227039   1.093   1.740   4.499 -0.3661  0.1418 -0.0139
 1875TIP3    H127040   1.061   1.785   4.577 -1.1667  0.5706 -0.5711
 1875TIP3    H227041   1.095   1.648   4.523 -0.3340  0.3023  0.6006
 1876TIP3   OH227042   6.263   2.565  17.054  0.1364  0.4736 -0.1321
 1876TIP3    H127043   6.302   2.481  17.079  1.5510  0.9758 -0.6405
 1876TIP3    H227044   6.276   2.621  17.130 -0.4024  0.3685  0.0383
 1877TIP3   OH227045   6.193   6.617  14.824  0.2202 -0.0365 -0.0101
 1877TIP3    H127046   6.275   6.654  14.856 -0.1478  1.9258 -1.1901
 1877TIP3    H227047   6.159   6.566  14.897  1.7796  0.3188  0.9880
 1878TIP3   OH227048   4.409   4.873   3.880 -0.3325  0.0641  0.9788
 1878TIP3    H127049   4.384   4.963   3.857 -2.3093 -0.4319  1.1383
 1878TIP3    H227050   4.504   4.872   3.869 -0.3679  1.9592  0.2137
 1879TIP3   OH227051   5.163   0.051   1.510  0.1051  0.4943  0.3701
 1879TIP3    H127052   5.074   0.074   1.537  0.3977 -0.7193  2.4488
 1879TIP3    H227053   5.216   0.063   1.588  1.7978  1.1703 -0.8389
 1880TIP3   OH227054   1.486   3.928   2.152  1.0357 -0.6945 -0.1495
 1880TIP3    H127055   1.421   3.926   2.082  0.7949  0.5371  0.0269
 1880TIP3    H227056   1.487   3.839   2.187 -0.8671 -0.6017  0.1472
 1881TIP3   OH227057   0.219   5.480   4.191  0.3590  0.9822  0.4633
 1881TIP3    H127058   0.273   5.559   4.184  2.3099 -0.2138  1.5069
 1881TIP3    H227059   0.233   5.449   4.280 -3.1311  1.3185  1.2085
 1882TIP3   OH227060   3.831   0.812  14.748 -0.3756 -0.3790  0.2292
 1882TIP3    H127061   3.803   0.837  14.837 -0.2277  1.6590 -0.2699
 1882TIP3    H227062   3.804   0.886  14.693  1.6270 -0.5773 -1.0579
 1883TIP3   OH227063   1.252   3.538   3.894  0.0059  0.1187  0.1547
 1883TIP3    H127064   1.176   3.517   3.947  1.5916 -1.0695  2.0638
 1883TIP3    H227065   1.266   3.632   3.906 -1.2969  0.3882 -0.4237
 1884TIP3   OH227066   6.555   6.750   2.567  0.6013 -0.1086 -0.3311
 1884TIP3    H127067   6.621   6.736   2.499  1.2751 -0.2261  0.3402
 1884TIP3    H227068   6.475   6.768   2.519  0.7158 -1.7615 -1.1765
 1885TIP3   OH227069   4.406   3.095   2.700 -0.0960  0.8117  0.0196
 1885TIP3    H127070   4.337   3.135   2.646  1.5412  2.8807 -0.6203
 1885TIP3    H227071   4.429   3.163   2.764  1.4321  0.2044  0.1404
 1886TIP3   OH227072   4.527   0.523  16.046  0.1580  0.0829  0.3357
 1886TIP3    H127073   4.479   0.451  16.085  0.2589  0.0542  0.4063
 1886TIP3    H227074   4.505   0.520  15.952  0.0567  0.0442  0.3600
 1887TIP3   OH227075   6.331   5.653  12.306  0.2470 -0.0048  0.3474
 1887TIP3    H127076   6.281   5.696  12.376  2.6173  1.9113  0.9385
 1887TIP3    H227077   6.284   5.676  12.226 -0.2708  1.1293  0.9632
 1888TIP3   OH227078   1.279   1.072   4.186  0.1320  0.8492  0.7061
 1888TIP3    H127079   1.295   1.151   4.136  0.7656  0.4813  0.3164
 1888TIP3    H227080   1.315   1.090   4.273  1.3707  0.5468  0.2566
 1889TIP3   OH227081   3.811   3.690   3.435 -0.5885 -0.0401  0.4331
 1889TIP3    H127082   3.854   3.756   3.380  1.2256 -1.4772  0.0659
 1889TIP3    H227083   3.736   3.661   3.383 -0.9947  1.2300  0.2990
 1890TIP3   OH227084   0.590   0.242   1.880  0.3698 -0.1213 -0.3384
 1890TIP3    H127085   0.538   0.311   1.920 -0.7770 -0.7718 -0.6835
 1890TIP3    H227086   0.526   0.183   1.840  1.3234 -1.4090 -0.0202
 1891TIP3   OH227087   3.235   0.884   4.190 -0.1747  0.3336  0.0679
 1891TIP3    H127088   3.240   0.788   4.190 -1.5611  0.2568  0.5781
 1891TIP3    H227089   3.208   0.907   4.279 -1.0829  1.1178 -0.4024
 1892TIP3   OH227090   0.138   2.535   3.753 -0.7507 -0.1156  0.0950
 1892TIP3    H127091   0.215   2.548   3.698 -0.9776 -0.5352 -0.3353
 1892TIP3    H227092   0.114   2.623   3.782 -1.6476  0.3353 -1.8866
 1893TIP3   OH227093   2.500   4.244  14.255 -0.2811 -0.0912 -0.2402
 1893TIP3    H127094   2.561   4.174  14.278 -0.7818 -0.7433 -0.8901
 1893TIP3    H227095   2.516   4.260  14.162 -1.9143 -1.0692 -0.6975
 1894TIP3   OH227096   3.079   0.722  13.472  0.6066 -0.0483 -0.3137
 1894TIP3    H127097   3.027   0.762  13.402  0.1830  1.7941  1.0291
 1894TIP3    H227098   3.163   0.702  13.430  1.2387  3.3082 -0.7892
 1895TIP3   OH227099   3.708   0.095   0.698  0.4471 -0.6264  0.0679
 1895TIP3    H127100   3.780   0.126   0.643  0.3560 -1.8315 -0.7618
 1895TIP3    H227101   3.746   0.083   0.785  0.7391  0.7390  0.1276
 1896TIP3   OH227102   2.977   3.372   2.474 -0.0361  0.0473  0.1705
 1896TIP3    H127103   2.978   3.451   2.528 -0.2489  1.3321 -1.6290
 1896TIP3    H227104   3.041   3.390   2.405 -2.4340  0.0349 -2.1441
 1897TIP3   OH227105   5.328   4.790   2.571  0.4003  0.1608  0.1946
 1897TIP3    H127106   5.421   4.788   2.546  0.7102  0.9403  1.2594
 1897TIP3    H227107   5.286   4.729   2.511  1.6717 -0.5096 -0.0292
 1898TIP3   OH227108   0.516   1.384   4.099  0.4810  0.0705  0.1261
 1898TIP3    H127109   0.490   1.318   4.162 -1.0224  0.0790 -0.4643
 1898TIP3    H227110   0.609   1.367   4.083  0.1070 -1.9308 -0.0510
 1899TIP3   OH227111   3.958   3.505   5.938  0.4164 -0.5277 -0.4835
 1899TIP3    H127112   3.874   3.516   5.892  0.5942 -2.7331 -1.3868
 1899TIP3    H227113   3.942   3.542   6.025 -1.4718 -0.7656 -0.6985
 1900TIP3   OH227114   0.861   5.999   1.659 -0.4826  0.4292 -0.2672
 1900TIP3    H127115   0.825   5.911   1.670  0.1478  0.0580 -1.0766
 1900TIP3    H227116   0.808   6.038   1.589 -0.3231  0.4463 -0.3782
 1901TIP3   OH227117   3.532   3.793  16.409 -0.7615  0.2464 -0.3882
 1901TIP3    H127118   3.522   3.712  16.459 -1.7061  1.0273  0.7434
 1901TIP3    H227119   3.624   3.818  16.422 -0.9128  0.2684  0.7295
 1902TIP3   OH227120   3.395   2.266  12.194 -0.1726 -0.1255  0.2326
 1902TIP3    H127121   3.384   2.339  12.133  2.4043  0.9986  1.0391
 1902TIP3    H227122   3.336   2.198  12.161 -0.4197  1.2390 -2.2520
 1903TIP3   OH227123   5.615   1.413  11.011  0.0558 -0.5428  0.1127
 1903TIP3    H127124   5.564   1.424  11.091 -2.0121 -0.8009 -1.1461
 1903TIP3    H227125   5.672   1.338  11.029  0.6842  0.3279  1.8587
 1904TIP3   OH227126   5.241   0.936   6.378 -0.3871 -0.0624 -0.4558
 1904TIP3    H127127   5.240   0.865   6.314 -0.2105 -0.3898 -0.1004
 1904TIP3    H227128   5.159   0.983   6.363  0.7976  1.3762 -2.5787
 1905TIP3   OH227129   3.425   6.204   3.823 -0.0163  0.4984  0.4395
 1905TIP3    H127130   3.360   6.216   3.892 -1.0558 -1.2485 -0.1951
 1905TIP3    H227131   3.509   6.211   3.868 -0.6802 -0.6003  1.8997
 1906TIP3   OH227132   2.363   1.131   5.850 -1.0363  0.2211  0.2588
 1906TIP3    H127133   2.312   1.196   5.898 -2.1690 -1.1962  1.0289
 1906TIP3    H227134   2.374   1.059   5.912  0.6450 -0.0995 -0.4043
 1907TIP3   OH227135   1.892   1.093   0.299 -0.3557 -0.1351  0.2919
 1907TIP3    H127136   1.840   1.013   0.303 -0.6637 -0.0386 -1.3074
 1907TIP3    H227137   1.976   1.065   0.264 -0.1551  0.0994  0.5882
 1908TIP3   OH227138   1.974   0.224   3.010  0.3105  0.7928  0.1959
 1908TIP3    H127139   1.882   0.216   2.983  0.3287  0.4485  0.2344
 1908TIP3    H227140   2.014   0.142   2.983  0.2279  0.2526  1.6560
 1909TIP3   OH227141   1.094   4.430  13.436 -0.0351 -0.3751  0.5437
 1909TIP3    H127142   1.146   4.442  13.515  1.4487  1.8540 -0.7010
 1909TIP3    H227143   1.045   4.512  13.427 -0.1087 -0.5685 -0.8891
 1910TIP3   OH227144   3.837   2.958   0.388 -0.5607 -0.2557  0.1254
 1910TIP3    H127145   3.868   2.907   0.463  0.2366  0.6469  0.4192
 1910TIP3    H227146   3.917   2.992   0.347 -1.0503  0.2591 -0.4157
 1911TIP3   OH227147   1.202   4.849  15.298 -0.6092 -0.0541 -0.7921
 1911TIP3    H127148   1.129   4.808  15.251 -1.0183 -1.6032  1.1309
 1911TIP3    H227149   1.279   4.799  15.271 -0.4441  0.7351 -1.8051
 1912TIP3   OH227150   6.564   1.857   2.816  0.1285 -0.1376  0.6568
 1912TIP3    H127151   6.556   1.773   2.769 -0.2485  0.8282 -1.0438
 1912TIP3    H227152   6.474   1.885   2.830  0.2641  0.3469  0.5507
 1913TIP3   OH227153   3.109   5.714   2.168 -0.1220 -0.3752 -0.3221
 1913TIP3    H127154   3.171   5.661   2.118  1.4332  2.4346 -1.4373
 1913TIP3    H227155   3.051   5.751   2.101  0.5417  1.5498  0.1549
 1914TIP3   OH227156   5.694   6.262   0.615 -0.0279  0.6038  0.1829
 1914TIP3    H127157   5.599   6.262   0.601 -0.0360 -0.2734  0.2048
 1914TIP3    H227158   5.712   6.177   0.655  1.1012 -0.2578 -2.0602
 1915TIP3   OH227159   2.179   4.216   3.595  0.5383 -0.8757  0.3749
 1915TIP3    H127160   2.151   4.294   3.642  1.6073  1.3158 -2.5137
 1915TIP3    H227161   2.101   4.190   3.545  0.7374 -0.6140 -0.0640
 1916TIP3   OH227162   2.880   1.690   5.050  0.3617 -0.1902 -0.2260
 1916TIP3    H127163   2.831   1.624   5.098  3.2940 -1.3508  1.2996
 1916TIP3    H227164   2.893   1.761   5.112 -2.5105  1.7809 -1.7641
 1917TIP3   OH227165   3.578   3.991   1.083  0.4039 -0.2582 -0.3000
 1917TIP3    H127166   3.508   3.941   1.039 -1.5979  2.4035 -0.2634
 1917TIP3    H227167   3.545   4.007   1.171  0.1469  2.6831 -0.8695
 1918TIP3   OH227168   2.719   3.374   1.582  0.2137  0.1910 -0.3482
 1918TIP3    H127169   2.639   3.329   1.611  0.2411  0.4144  0.0775
 1918TIP3    H227170   2.787   3.307   1.586  0.3108  0.3394  0.5563
 1919TIP3   OH227171   4.702   0.640  15.759 -0.4323  0.4791  0.0771
 1919TIP3    H127172   4.757   0.717  15.744  0.9706 -0.4907  0.1636
 1919TIP3    H227173   4.743   0.596  15.834  1.1164 -2.4338 -2.3807
 1920TIP3   OH227174   2.212   6.786   1.224  0.1697 -0.0315 -0.3726
 1920TIP3    H127175   2.189   6.706   1.273  0.9003 -0.4671 -0.7289
 1920TIP3    H227176   2.240   6.848   1.291  1.2731 -0.6628 -0.2432
 1921TIP3   OH227177   6.542   4.326   5.251  0.2742 -0.7116 -0.0835
 1921TIP3    H127178   6.527   4.239   5.287  1.0373 -0.9781 -0.4011
 1921TIP3    H227179   6.465   4.377   5.278 -0.0852 -1.4304  0.2537
 1922TIP3   OH227180   2.751   6.097  13.320 -0.4827  0.3742 -0.1876
 1922TIP3    H127181   2.777   6.097  13.228  0.1234  0.2395 -0.0183
 1922TIP3    H227182   2.657   6.083  13.318 -0.0975 -2.3713 -0.6771
 1923TIP3   OH227183   5.012   1.505  15.497 -0.3856 -0.2587 -0.6786
 1923TIP3    H127184   5.041   1.423  15.537  1.4675  0.1972 -0.9975
 1923TIP3    H227185   4.959   1.479  15.422 -0.8344 -1.1468 -0.0565
 1924TIP3   OH227186   4.446   4.254   5.421 -0.6024  0.1800  0.0016
 1924TIP3    H127187   4.385   4.305   5.367  0.2924 -0.2953 -1.4644
 1924TIP3    H227188   4.494   4.321   5.471 -0.9253  0.6519 -0.3094
 1925TIP3   OH227189   4.157   0.531  13.629  0.4087  0.1340 -0.3307
 1925TIP3    H127190   4.129   0.622  13.640  2.4589  0.7560 -0.1173
 1925TIP3    H227191   4.192   0.506  13.714  2.8070  0.1920 -1.2728
 1926TIP3   OH227192   5.144   6.134   0.324  0.3318 -0.6180  0.0437
 1926TIP3    H127193   5.086   6.115   0.250  0.1069 -0.1924  0.1067
 1926TIP3    H227194   5.227   6.093   0.300 -0.5924 -3.0753  0.9193
 1927TIP3   OH227195   0.283   6.676  10.590 -0.4252 -0.6655 -0.1518
 1927TIP3    H127196   0.282   6.768  10.564 -0.7224 -0.6035  0.0732
 1927TIP3    H227197   0.196   6.643  10.568 -1.4065 -0.0662  2.6213
 1928TIP3   OH227198   3.937   4.117   2.699  0.0398 -0.6306 -0.2906
 1928TIP3    H127199   3.979   4.153   2.621 -0.8054  1.9323  0.3678
 1928TIP3    H227200   3.848   4.151   2.695  0.1025 -0.1261  1.9759
 1929TIP3   OH227201   3.859   5.198   2.549 -0.1806 -0.0681  0.1908
 1929TIP3    H127202   3.950   5.202   2.522 -0.0936 -0.5046  0.4100
 1929TIP3    H227203   3.835   5.289   2.567  1.0204 -0.2138  2.7645
 1930TIP3   OH227204   1.671   6.480  13.191 -0.3681  0.2100  0.5698
 1930TIP3    H127205   1.644   6.401  13.144  1.4486  0.4737 -1.0096
 1930TIP3    H227206   1.593   6.536  13.191 -0.9003 -0.5116 -0.6271
 1931TIP3   OH227207   2.477   6.747   2.726  0.1280 -1.3197 -0.3280
 1931TIP3    H127208   2.454   6.667   2.679 -2.4278  0.7406 -2.7093
 1931TIP3    H227209   2.413   6.753   2.797  0.7339 -1.6535  0.2688
 1932TIP3   OH227210   5.533   4.831  15.367 -0.4309  0.2350  0.3833
 1932TIP3    H127211   5.567   4.765  15.426 -0.1233  1.9769  2.1751
 1932TIP3    H227212   5.450   4.859  15.407 -0.2808  1.3363 -0.0577
 1933TIP3   OH227213   3.251   6.117   2.268 -0.0960 -0.4092 -0.1997
 1933TIP3    H127214   3.309   6.117   2.344  2.4339 -0.6521 -2.0792
 1933TIP3    H227215   3.169   6.079   2.301  1.3881 -1.7464  2.0863
 1934TIP3   OH227216   5.367   3.107   4.105  0.1828  0.5035 -0.0545
 1934TIP3    H127217   5.386   3.199   4.123  2.6620  0.2854 -1.3443
 1934TIP3    H227218   5.448   3.061   4.124 -1.2772 -1.5829  1.3842
 1935TIP3   OH227219   5.330   5.342  13.736 -0.2273  0.5993 -0.2433
 1935TIP3    H127220   5.362   5.316  13.823  0.9089 -0.2582 -0.8947
 1935TIP3    H227221   5.404   5.388  13.697 -0.1153 -0.5716 -1.4261
 1936TIP3   OH227222   0.138   0.375  16.547  0.0257  0.8516  0.2646
 1936TIP3    H127223   0.134   0.402  16.639  1.0697  1.2156  0.2054
 1936TIP3    H227224   0.229   0.388  16.521  0.0889 -0.7598 -0.3788
 1937TIP3   OH227225   1.372   2.536   4.965  0.3915 -0.5902 -0.4515
 1937TIP3    H127226   1.424   2.589   4.905  1.1791 -0.8832 -0.0329
 1937TIP3    H227227   1.333   2.468   4.911 -1.2752  0.8671 -1.1431
 1938TIP3   OH227228   2.869   5.245   0.130 -0.3897 -0.0756  0.4390
 1938TIP3    H127229   2.843   5.245   0.038 -1.3893  0.0879  0.7220
 1938TIP3    H227230   2.872   5.152   0.154  0.8024 -0.1653 -0.0114
 1939TIP3   OH227231   4.894   3.955   4.056  0.2988  0.3732  0.5463
 1939TIP3    H127232   4.822   3.931   4.113 -0.1499 -2.1780 -1.0205
 1939TIP3    H227233   4.943   4.021   4.105 -2.4402  1.3017  2.0848
 1940TIP3   OH227234   1.662   1.970  16.987 -0.3351 -0.7677 -0.1783
 1940TIP3    H127235   1.734   1.923  17.030 -0.8169 -1.5372 -0.2266
 1940TIP3    H227236   1.588   1.961  17.046 -0.0307  1.1936  0.5379
 1941TIP3   OH227237   0.930   6.297  14.809 -0.0271  0.4477 -0.1087
 1941TIP3    H127238   0.983   6.324  14.734  1.9802 -1.2228  0.6841
 1941TIP3    H227239   0.893   6.213  14.783 -0.5970  0.6027  0.1815
 1942TIP3   OH227240   5.029   5.779   4.718  0.1134 -0.6237  0.4745
 1942TIP3    H127241   5.042   5.726   4.639  0.1463  1.3292 -0.8465
 1942TIP3    H227242   5.100   5.843   4.717  0.3271 -0.7957  2.2985
 1943TIP3   OH227243   0.392   2.552  16.464 -0.5138 -0.1989  0.2288
 1943TIP3    H127244   0.308   2.599  16.470 -0.8481 -0.7222 -0.3149
 1943TIP3    H227245   0.421   2.567  16.374 -0.1738 -0.2810  0.3245
 1944TIP3   OH227246   2.004   6.387   4.131  0.0700  0.6128 -0.2684
 1944TIP3    H127247   1.913   6.358   4.133  0.6372 -1.3695 -1.9697
 1944TIP3    H227248   2.039   6.359   4.216 -0.7311  0.9020  0.1710
 1945TIP3   OH227249   2.137   6.144   2.552  0.1360 -0.0519  0.0793
 1945TIP3    H127250   2.172   6.213   2.609 -0.9345  0.9676 -0.4780
 1945TIP3    H227251   2.051   6.124   2.589  0.0648 -0.4608 -0.3053
 1946TIP3   OH227252   6.297   1.324  11.980 -0.6469  0.4864 -0.1026
 1946TIP3    H127253   6.271   1.280  11.899 -0.9733 -1.6304  1.1060
 1946TIP3    H227254   6.278   1.260  12.049  1.3561  1.5303  1.4751
 1947TIP3   OH227255   1.470   2.770  14.435  0.2434  0.5618 -0.9279
 1947TIP3    H127256   1.544   2.728  14.392  1.9163  2.2399  0.2466
 1947TIP3    H227257   1.399   2.767  14.370  1.0740 -1.8184 -1.7395
 1948TIP3   OH227258   6.205   3.558   1.529  0.4542  0.1180 -0.3877
 1948TIP3    H127259   6.135   3.530   1.588 -0.2934  0.5540 -1.0567
 1948TIP3    H227260   6.244   3.477   1.497  0.8342 -0.1192  0.6685
 1949TIP3   OH227261   1.211   4.298   2.986  0.1780 -0.3043 -0.4965
 1949TIP3    H127262   1.306   4.290   2.983  0.1032 -1.2411 -0.6203
 1949TIP3    H227263   1.191   4.371   2.928  0.6997 -1.2124 -1.8395
 1950TIP3   OH227264   0.283   4.824   2.425 -0.2409 -0.2647 -0.0220
 1950TIP3    H127265   0.223   4.769   2.374 -2.8277  0.9902  1.6074
 1950TIP3    H227266   0.313   4.891   2.362 -0.1100 -1.2048 -0.9790
 1951TIP3   OH227267   4.788   4.142  15.359  0.0081  0.6181  0.0526
 1951TIP3    H127268   4.776   4.209  15.291 -1.3114 -0.2184 -0.5629
 1951TIP3    H227269   4.717   4.080  15.343  1.1671 -0.8781  0.6917
 1952TIP3   OH227270   5.349   2.994  11.009  0.0418  0.1343 -0.1677
 1952TIP3    H127271   5.372   3.073  10.959 -1.0666  0.2873 -0.4383
 1952TIP3    H227272   5.286   2.948  10.954 -2.6063  1.2097  1.8747
 1953TIP3   OH227273   1.029   0.366  13.043 -0.3196  0.4504  0.1588
 1953TIP3    H127274   1.041   0.461  13.040  0.8890  0.2887 -0.8494
 1953TIP3    H227275   0.970   0.347  12.970 -0.5512  0.4300  0.3524
 1954TIP3   OH227276   6.267   5.602   5.097 -0.3368 -0.0752 -0.1446
 1954TIP3    H127277   6.310   5.520   5.073  1.5372  1.1716 -1.1064
 1954TIP3    H227278   6.221   5.581   5.178  0.8316 -1.8585  0.0917
 1955TIP3   OH227279   4.075   0.026   3.480 -0.3252 -0.1966 -0.3649
 1955TIP3    H127280   4.054  -0.035   3.551  0.1018 -0.7275 -0.6986
 1955TIP3    H227281   3.997   0.082   3.473 -2.1855 -2.9618 -2.4628
 1956TIP3   OH227282   1.057   5.949  13.985 -0.5400 -0.2322  0.1527
 1956TIP3    H127283   0.982   5.903  14.022 -0.4923  0.1184  0.6845
 1956TIP3    H227284   1.044   5.945  13.890 -1.4546  0.2073  0.2625
 1957TIP3   OH227285   4.906   0.438   4.848 -0.2545  0.5379  0.4926
 1957TIP3    H127286   4.833   0.397   4.895  1.1659  0.0601  2.3138
 1957TIP3    H227287   4.974   0.371   4.844  0.3053  1.1516 -0.7401
 1958TIP3   OH227288   4.074   0.422   2.607 -0.2700  0.3831  0.0031
 1958TIP3    H127289   3.985   0.457   2.596 -0.9485 -0.7313  1.7004
 1958TIP3    H227290   4.083   0.356   2.538 -0.0167  1.8825 -1.4215
 1959TIP3   OH227291   2.761   0.985   2.913  0.0482  0.6414 -0.1590
 1959TIP3    H127292   2.702   0.929   2.964  0.7757 -0.3235 -0.3827
 1959TIP3    H227293   2.737   0.969   2.822  2.0228 -1.3199 -0.3714
 1960TIP3   OH227294   6.045   1.837   3.771 -0.2767 -0.2659 -0.4762
 1960TIP3    H127295   6.058   1.770   3.838 -0.5705 -1.0969 -1.2495
 1960TIP3    H227296   5.957   1.821   3.738  0.6170 -1.1462 -2.4870
 1961TIP3   OH227297   5.222   2.865   4.920  0.1352 -0.1337 -0.2970
 1961TIP3    H127298   5.209   2.771   4.906 -0.2492  0.1642 -1.9619
 1961TIP3    H227299   5.303   2.885   4.874 -0.8272  0.7438 -1.6139
 1962TIP3   OH227300   4.945   2.060  15.558  0.3103  0.1129 -0.3427
 1962TIP3    H127301   4.924   2.148  15.526  0.5409  0.6281  0.9124
 1962TIP3    H227302   4.862   2.026  15.592  0.7695  0.8965  1.6343
 1963TIP3   OH227303   2.595   3.852   2.940  0.1576 -0.3492  0.0135
 1963TIP3    H127304   2.549   3.899   2.871 -0.5984  1.1475  1.4839
 1963TIP3    H227305   2.649   3.919   2.982  0.9860 -1.3441  0.5524
 1964TIP3   OH227306   0.264   5.025   5.485  0.1320  0.1524  0.0980
 1964TIP3    H127307   0.265   4.932   5.462  0.2384 -0.1281  1.2355
 1964TIP3    H227308   0.236   5.069   5.404 -0.0653 -0.8710 -0.4007
 1965TIP3   OH227309   5.177   0.234  11.657 -0.0856 -0.1612  0.1912
 1965TIP3    H127310   5.155   0.305  11.718 -0.0178  0.7166 -0.7959
 1965TIP3    H227311   5.247   0.185  11.702 -0.5750  0.0119  1.1557
 1966TIP3   OH227312   1.112   4.381  16.269 -0.4772  0.7307  0.3611
 1966TIP3    H127313   1.144   4.295  16.296 -1.5342  0.6371  1.3417
 1966TIP3    H227314   1.148   4.442  16.334 -2.1385  0.6422  1.3914
 1967TIP3   OH227315   1.135   0.433   2.595 -0.3519 -0.0341 -0.0031
 1967TIP3    H127316   1.145   0.485   2.675 -1.0296  0.2642 -0.1049
 1967TIP3    H227317   1.159   0.344   2.621  1.5578  0.4645 -0.0137
 1968TIP3   OH227318   4.672   4.565  14.266  0.6823 -0.0034 -0.2527
 1968TIP3    H127319   4.676   4.537  14.174 -1.0736 -0.1742 -0.2893
 1968TIP3    H227320   4.711   4.492  14.315 -1.6935 -1.5381 -0.5615
 1969TIP3   OH227321   6.233   5.892   5.701  0.0088 -0.0182 -0.0580
 1969TIP3    H127322   6.293   5.850   5.763 -0.3545  0.7303  0.8163
 1969TIP3    H227323   6.241   5.841   5.620 -1.6472 -2.7644  1.4495
 1970TIP3   OH227324   0.968   3.736  15.926  0.5824  0.5795  0.3761
 1970TIP3    H127325   0.945   3.643  15.919  1.2011  0.5085 -0.8154
 1970TIP3    H227326   0.884   3.781  15.935  0.1842  0.0405 -0.6756
 1971TIP3   OH227327   4.233   5.947   1.860 -0.1879 -0.1504 -0.0740
 1971TIP3    H127328   4.220   6.028   1.908 -0.9280 -1.5882  2.2210
 1971TIP3    H227329   4.291   5.971   1.788 -2.6662  3.0145 -1.1397
 1972TIP3   OH227330   6.265   0.062   2.955  0.0237 -0.0748 -0.0569
 1972TIP3    H127331   6.260   0.024   2.867  0.9473  0.8997 -0.5402
 1972TIP3    H227332   6.328   0.007   3.001  0.4171  0.1172 -0.3648
 1973TIP3   OH227333   3.981   3.617   1.837  0.2438 -0.1028  0.1338
 1973TIP3    H127334   3.929   3.619   1.756  1.0410 -0.4671 -0.3914
 1973TIP3    H227335   3.921   3.583   1.903 -0.9377  1.8306  0.0835
 1974TIP3   OH227336   6.581   0.659   3.378  0.2691  0.7515 -0.3581
 1974TIP3    H127337   6.552   0.733   3.325  0.3475 -0.3064 -1.9108
 1974TIP3    H227338   6.663   0.630   3.336 -1.0902 -1.8117 -1.3437
 1975TIP3   OH227339   3.645   3.127   1.876  0.0487 -0.2829  0.5939
 1975TIP3    H127340   3.678   3.170   1.956 -0.6946  0.6797  0.3918
 1975TIP3    H227341   3.696   3.167   1.805  0.2414 -0.6542  0.5227
 1976TIP3   OH227342   3.594   5.894   2.996  0.4577 -0.0808  0.7024
 1976TIP3    H127343   3.598   5.805   2.960  0.1414 -0.3747  1.3781
 1976TIP3    H227344   3.604   5.882   3.090 -1.8158  0.3903  1.0446
 1977TIP3   OH227345   4.382   6.176   1.348 -0.3217  0.0111  0.4002
 1977TIP3    H127346   4.322   6.127   1.405  0.0705 -1.4279 -0.3987
 1977TIP3    H227347   4.395   6.118   1.273  3.1321 -0.2649  1.1626
 1978TIP3   OH227348   3.049   5.052  15.167  0.0066  0.2602 -0.0380
 1978TIP3    H127349   3.123   5.100  15.204  0.0366  1.0840 -1.1197
 1978TIP3    H227350   3.005   5.012  15.242  1.5053 -0.1836  0.6243
 1979TIP3   OH227351   4.553   0.186   0.279 -0.7166  0.1831  0.1280
 1979TIP3    H127352   4.534   0.140   0.360 -1.6165 -0.6297 -0.5295
 1979TIP3    H227353   4.551   0.117   0.212 -0.2306  0.8831 -0.6082
 1980TIP3   OH227354   6.284   5.274   2.695  0.2713 -0.2931  0.4085
 1980TIP3    H127355   6.218   5.339   2.670  1.2043  0.5933  0.2321
 1980TIP3    H227356   6.236   5.191   2.697 -0.7391  0.2661 -0.1991
 1981TIP3   OH227357   1.079   5.776   4.903  0.2372 -0.0718 -0.5638
 1981TIP3    H127358   0.992   5.737   4.901 -0.1413  0.7705 -1.4632
 1981TIP3    H227359   1.129   5.727   4.837  0.5320 -0.7433  0.1553
 1982TIP3   OH227360   4.274   1.062   2.187 -0.1307 -0.2157 -0.3466
 1982TIP3    H127361   4.188   1.101   2.199  0.0029  0.1452 -0.5688
 1982TIP3    H227362   4.262   0.970   2.211 -0.6256 -0.2169 -0.6009
 1983TIP3   OH227363   5.523   2.496   0.948 -0.2496  0.4359  0.1965
 1983TIP3    H127364   5.463   2.568   0.969 -0.3031 -0.5313  3.7861
 1983TIP3    H227365   5.594   2.538   0.899 -1.1260  2.6392  0.7341
 1984TIP3   OH227366   4.027   1.180   5.640 -0.3098 -0.0285 -0.3688
 1984TIP3    H127367   4.113   1.176   5.682 -0.4613 -0.2553 -0.0805
 1984TIP3    H227368   3.976   1.112   5.683 -1.0049  0.9060  0.3036
 1985TIP3   OH227369   5.416   2.694   6.733 -0.1839 -0.1851  0.0870
 1985TIP3    H127370   5.363   2.624   6.771 -1.1771  1.1295  1.1640
 1985TIP3    H227371   5.373   2.775   6.760  0.6033  0.8479 -1.6449
 1986TIP3   OH227372   5.302   3.845   0.164 -0.0002 -0.2042  0.0350
 1986TIP3    H127373   5.273   3.903   0.094  0.1400 -2.1013 -1.6242
 1986TIP3    H227374   5.232   3.850   0.230  1.6888  4.6524  1.6930
 1987TIP3   OH227375   4.148   5.368  15.255 -0.0840 -0.1253 -0.1888
 1987TIP3    H127376   4.111   5.320  15.181 -1.2002 -1.3798  1.1466
 1987TIP3    H227377   4.074   5.381  15.314  0.3943  2.4999 -0.1307
 1988TIP3   OH227378   4.816   6.598  16.946 -0.3796 -0.2239 -0.1399
 1988TIP3    H127379   4.758   6.615  17.020 -0.9346  1.8045 -1.0069
 1988TIP3    H227380   4.901   6.580  16.986 -1.1926 -1.4224  1.0728
 1989TIP3   OH227381   0.716   0.751  13.458 -0.5245  0.1853 -0.5449
 1989TIP3    H127382   0.754   0.666  13.438 -2.1637 -0.4455 -1.0737
 1989TIP3    H227383   0.716   0.757  13.554 -0.0730 -0.2605 -0.5222
 1990TIP3   OH227384   1.310   0.718  14.999 -0.4994  0.5643  0.5213
 1990TIP3    H127385   1.321   0.623  15.001  1.2804  0.7739  1.6844
 1990TIP3    H227386   1.399   0.752  14.992 -0.9771  2.1777  1.9494
 1991TIP3   OH227387   5.895   6.344   1.297 -0.0370 -0.0628  0.6492
 1991TIP3    H127388   5.826   6.396   1.255  0.7025 -1.2489 -2.1578
 1991TIP3    H227389   5.854   6.307   1.375 -1.8969  1.0631  0.2360
 1992TIP3   OH227390   0.087   0.964   3.260  0.2205  0.1233  0.1505
 1992TIP3    H127391   0.007   1.017   3.262 -0.5523 -1.0069 -0.5367
 1992TIP3    H227392   0.156   1.025   3.288 -1.3571  0.2176  4.2134
 1993TIP3   OH227393   3.757   2.120   5.714 -0.1006 -0.3090  0.2915
 1993TIP3    H127394   3.809   2.088   5.640 -0.9811 -0.0843 -0.4210
 1993TIP3    H227395   3.668   2.089   5.696 -1.0404  2.7899 -0.5614
 1994TIP3   OH227396   5.278   0.503   3.379 -0.0599  0.2387 -0.4301
 1994TIP3    H127397   5.372   0.487   3.368  0.2818  1.5244  0.4612
 1994TIP3    H227398   5.242   0.493   3.291  1.5317  3.4435 -1.5234
 1995TIP3   OH227399   4.613   5.711  16.347 -0.1233  0.0163  0.5752
 1995TIP3    H127400   4.551   5.769  16.302 -0.8491  0.1977  1.7962
 1995TIP3    H227401   4.681   5.694  16.282 -1.5488 -0.3380 -0.8543
 1996TIP3   OH227402   4.839   2.308  16.667 -0.4922 -0.3827 -0.1858
 1996TIP3    H127403   4.785   2.383  16.692 -0.4888 -0.6486  0.6708
 1996TIP3    H227404   4.925   2.329  16.702 -0.7103 -1.1821  0.8744
 1997TIP3   OH227405   4.063   5.886  15.811 -0.2505 -0.5337 -0.3030
 1997TIP3    H127406   4.077   5.792  15.799 -0.7343 -0.4391 -1.7191
 1997TIP3    H227407   4.004   5.911  15.740 -1.7605  0.4693  1.2699
 1998TIP3   OH227408   2.218   0.107  16.895  0.3212  0.1586 -0.1692
 1998TIP3    H127409   2.154   0.057  16.946  0.6919 -0.5889 -0.4281
 1998TIP3    H227410   2.169   0.142  16.821 -0.2176  1.2318  0.6828
 1999TIP3   OH227411   2.462   3.844   3.686 -0.5698 -0.1393 -0.3933
 1999TIP3    H127412   2.434   3.804   3.604  0.5255  0.1338 -0.9105
 1999TIP3    H227413   2.389   3.901   3.711 -0.1700  1.1527 -2.1122
 2000TIP3   OH227414   4.710   6.489  15.660  0.0826  0.0908  0.1986
 2000TIP3    H127415   4.784   6.441  15.696 -1.1891 -1.5609  0.6766
 2000TIP3    H227416   4.721   6.484  15.565  1.5189  1.3731  0.2898
 2001TIP3   OH227417   1.637   1.418   4.592 -0.1220 -0.3413  0.4429
 2001TIP3    H127418   1.581   1.341   4.600 -1.5720  0.6908  0.5274
 2001TIP3    H227419   1.715   1.397   4.643 -0.4457 -1.7922  0.3606
 2002TIP3   OH227420   0.189   3.731  16.926  0.0165  0.1997 -0.0976
 2002TIP3    H127421   0.110   3.752  16.876 -0.8012 -1.7171  0.3174
 2002TIP3    H227422   0.164   3.745  17.017  0.0625 -0.6398  0.0511
 2003TIP3   OH227423   3.251   4.504   3.955  0.0482  0.0920  0.4459
 2003TIP3    H127424   3.329   4.492   3.901 -1.1455 -2.4868 -0.7978
 2003TIP3    H227425   3.273   4.463   4.038 -0.6638 -2.5485 -0.6158
 2004TIP3   OH227426   6.705   4.899  16.707 -0.0758 -0.5145  0.2896
 2004TIP3    H127427   6.798   4.882  16.720 -0.1741 -0.3767  1.1425
 2004TIP3    H227428   6.662   4.854  16.779 -0.8089 -2.0945 -1.0926
 2005TIP3   OH227429   6.046   4.541  16.542  0.1211 -0.0431  0.4897
 2005TIP3    H127430   6.053   4.450  16.514  0.8609  0.2196 -0.1863
 2005TIP3    H227431   5.998   4.537  16.625 -0.3455 -0.9934  0.1810
 2006TIP3   OH227432   6.487   0.882  15.889 -0.2017  0.6781 -0.3213
 2006TIP3    H127433   6.574   0.871  15.852  0.2493  0.5894  0.7415
 2006TIP3    H227434   6.431   0.904  15.815  0.7025  0.6115 -1.0217
 2007TIP3   OH227435   2.491   1.567   3.825  0.5793 -0.3351  0.6409
 2007TIP3    H127436   2.470   1.549   3.916 -0.2745 -1.1502  0.2897
 2007TIP3    H227437   2.407   1.583   3.783  1.1415  2.3104  0.4599
 2008TIP3   OH227438   2.280   6.245  14.578  0.1972 -0.6372 -0.1369
 2008TIP3    H127439   2.199   6.287  14.608 -0.4251 -2.8868  1.4453
 2008TIP3    H227440   2.257   6.205  14.494  0.2955  0.5676 -0.7541
 2009TIP3   OH227441   5.313   6.653   0.456  0.4019 -0.4867 -0.5056
 2009TIP3    H127442   5.342   6.720   0.518  0.9051 -0.4199 -0.8097
 2009TIP3    H227443   5.325   6.571   0.504  1.1316 -0.4624 -0.6337
 2010TIP3   OH227444   2.313   4.242  14.499  0.5278  0.5814  0.1519
 2010TIP3    H127445   2.366   4.230  14.420 -1.3232  0.3407 -1.0878
 2010TIP3    H227446   2.305   4.154  14.536 -0.4773  0.3310 -0.6427
 2011TIP3   OH227447   3.657   3.375   4.999 -0.0894 -0.2873  0.2741
 2011TIP3    H127448   3.592   3.408   5.062  2.3002  2.5242  1.3745
 2011TIP3    H227449   3.705   3.308   5.047  0.5164  0.5654  0.8901
 2012TIP3   OH227450   1.130   1.377   1.689  0.1218  0.1570 -0.4883
 2012TIP3    H127451   1.165   1.305   1.741  2.2024  0.9863 -0.6880
 2012TIP3    H227452   1.111   1.339   1.603  0.5802 -0.2900 -0.3909
 2013TIP3   OH227453   4.987   4.351  15.433  0.5420 -0.1736 -0.2552
 2013TIP3    H127454   5.077   4.353  15.465  0.1471 -1.5137  0.9557
 2013TIP3    H227455   4.968   4.258  15.421 -1.1171  0.0269  0.7445
 2014TIP3   OH227456   6.302   2.720  11.658  0.3031 -0.3797 -0.3307
 2014TIP3    H127457   6.305   2.669  11.739  2.0683 -0.8014 -0.6454
 2014TIP3    H227458   6.361   2.794  11.674 -2.4732  1.8307  0.2469
 2015TIP3   OH227459   5.844   0.948  15.725 -0.1627  0.1308 -0.9744
 2015TIP3    H127460   5.803   1.030  15.698 -1.5122  0.2614  1.3156
 2015TIP3    H227461   5.775   0.882  15.713 -0.0914 -0.1509  0.1120
 2016TIP3   OH227462   1.082   3.272  14.043 -0.0421  0.4759  0.1744
 2016TIP3    H127463   1.123   3.298  14.126 -2.0142  0.8938  1.0382
 2016TIP3    H227464   1.086   3.351  13.989 -1.8266  1.2523  1.1277
 2017TIP3   OH227465   5.426   1.522   0.519 -0.1328 -0.2452 -0.3144
 2017TIP3    H127466   5.381   1.540   0.601  0.1569 -0.8764 -0.0119
 2017TIP3    H227467   5.474   1.602   0.499  0.0365 -0.1972  0.2868
 2018TIP3   OH227468   1.265   3.775   5.601 -0.2159 -0.0097 -0.1941
 2018TIP3    H127469   1.245   3.750   5.511  1.9199 -1.0810 -0.4143
 2018TIP3    H227470   1.353   3.813   5.596 -0.4283  0.6987  1.3151
 2019TIP3   OH227471   3.196   3.932   5.651  0.3980  0.2361  0.0165
 2019TIP3    H127472   3.219   3.855   5.703 -0.1340  0.0856  0.0329
 2019TIP3    H227473   3.134   3.980   5.706 -0.0459  0.1545 -0.4084
 2020TIP3   OH227474   2.468   5.805   3.333  0.0963  0.1483 -0.3696
 2020TIP3    H127475   2.486   5.828   3.241  1.7786 -1.7764 -0.5772
 2020TIP3    H227476   2.435   5.885   3.372  1.9810  1.7891 -1.9930
 2021TIP3   OH227477   5.095   5.393  13.445  0.5167  0.3620  0.5643
 2021TIP3    H127478   5.122   5.457  13.510  0.0467  1.9741 -0.7891
 2021TIP3    H227479   5.002   5.410  13.432  0.6238  0.1158 -0.5865
 2022TIP3   OH227480   3.963   3.122   4.799 -0.3526 -0.0180  0.4716
 2022TIP3    H127481   3.975   3.028   4.789 -1.3701 -0.0508 -0.5493
 2022TIP3    H227482   3.993   3.141   4.888 -1.7767 -1.5769  1.2968
 2023TIP3   OH227483   2.329   1.884   1.612 -0.0596  0.1502  0.3996
 2023TIP3    H127484   2.327   1.927   1.526  0.1963 -1.7627 -0.5697
 2023TIP3    H227485   2.338   1.791   1.593 -1.4661 -0.4458  2.4779
 2024TIP3   OH227486   1.620   3.715  13.401 -0.0957 -0.3889 -0.1215
 2024TIP3    H127487   1.547   3.690  13.457  1.4601 -0.7584  1.8087
 2024TIP3    H227488   1.628   3.643  13.338 -0.7183 -0.8407  0.3090
 2025TIP3   OH227489   1.562   3.639  13.820 -0.0727  0.0012  0.3020
 2025TIP3    H127490   1.525   3.727  13.822 -0.0130  0.0169  1.2535
 2025TIP3    H227491   1.654   3.651  13.843 -0.3407 -0.4213  1.6927
 2026TIP3   OH227492   3.500   3.379   1.557 -0.5227  0.8573 -0.8065
 2026TIP3    H127493   3.497   3.299   1.504  0.7913  0.4331 -0.2614
 2026TIP3    H227494   3.590   3.383   1.589 -0.7690  2.1901 -0.2545
 2027TIP3   OH227495   4.879   6.383   2.977  0.2700  0.1243 -0.7627
 2027TIP3    H127496   4.848   6.466   3.012 -0.3507  0.0127 -1.0360
 2027TIP3    H227497   4.962   6.366   3.023  0.0144  0.5126 -0.1616
 2028TIP3   OH227498   5.689   6.656  11.450 -0.2245  0.3777 -0.0224
 2028TIP3    H127499   5.766   6.664  11.393 -0.5422  0.2871 -0.4636
 2028TIP3    H227500   5.681   6.562  11.467  1.1216  0.5775  1.8926
 2029TIP3   OH227501   6.487   1.800  15.034  0.1060 -0.0445  0.5255
 2029TIP3    H127502   6.507   1.858  15.108 -0.2011 -0.3097  0.8173
 2029TIP3    H227503   6.514   1.713  15.063  0.9496  0.0098 -0.0660
 2030TIP3   OH227504   1.489   6.725   3.005  0.0158 -0.2889  0.0650
 2030TIP3    H127505   1.441   6.737   3.087 -1.7772 -0.3910 -0.9497
 2030TIP3    H227506   1.547   6.652   3.023  1.0590  0.9203  1.8629
 2031TIP3   OH227507   4.980   5.626   3.967  0.7798  0.3333 -0.4573
 2031TIP3    H127508   4.987   5.698   3.904  1.6524 -1.1539 -2.0972
 2031TIP3    H227509   5.038   5.558   3.933  1.1293 -0.5823  1.8752
 2032TIP3   OH227510   1.168   1.397  13.443 -0.0161  0.3054  0.0963
 2032TIP3    H127511   1.163   1.455  13.518  2.2248 -1.0463  1.3387
 2032TIP3    H227512   1.090   1.341  13.450 -0.8757  1.5115  0.2555
 2033TIP3   OH227513   4.446   6.650  13.776 -0.1033 -0.5291 -0.1684
 2033TIP3    H127514   4.538   6.647  13.752 -0.1012 -0.7101 -0.1414
 2033TIP3    H227515   4.406   6.708  13.712  0.0726 -0.2574 -0.0344
 2034TIP3   OH227516   3.957   0.030   2.802 -0.5878  0.6427 -0.1714
 2034TIP3    H127517   3.935  -0.061   2.781 -1.2227  0.1213  2.5534
 2034TIP3    H227518   4.051   0.028   2.821 -0.8649  0.2748  1.2079
 2035TIP3   OH227519   3.944   6.422  13.551  0.1483 -0.7567  0.4223
 2035TIP3    H127520   3.956   6.510  13.586  0.5190 -0.4647 -0.4167
 2035TIP3    H227521   3.978   6.364  13.618  0.0569 -0.2515  0.9106
 2036TIP3   OH227522   4.592   2.276   3.787  0.1163  0.1169  0.4479
 2036TIP3    H127523   4.523   2.259   3.723  0.8524 -1.7193  0.1203
 2036TIP3    H227524   4.567   2.224   3.863 -1.1415  2.8384  1.9996
 2037TIP3   OH227525   0.545   0.485  11.176 -0.0730  0.4501  0.3137
 2037TIP3    H127526   0.511   0.396  11.192 -1.4150  0.6817 -1.1168
 2037TIP3    H227527   0.473   0.529  11.131  0.9198  2.0168  0.2615
 2038TIP3   OH227528   0.168   2.472  14.565 -0.4641  0.3344  0.7768
 2038TIP3    H127529   0.187   2.471  14.472 -1.8139  0.5176  0.4856
 2038TIP3    H227530   0.233   2.532  14.602  1.8321 -1.8219  0.3890
 2039TIP3   OH227531   2.124   5.484   2.447 -0.1435  0.2248 -0.1348
 2039TIP3    H127532   2.046   5.449   2.491 -0.0344 -0.5131 -0.5307
 2039TIP3    H227533   2.194   5.474   2.510 -0.1098 -0.2823 -0.2522
 2040TIP3   OH227534   1.938   1.294  13.818 -0.4426  0.0643  0.7108
 2040TIP3    H127535   1.868   1.329  13.763 -0.8635 -1.6175  0.1284
 2040TIP3    H227536   1.914   1.319  13.907 -2.3231 -1.3565  0.6164
 2041TIP3   OH227537   0.021   4.878   5.576  0.1817 -0.6797 -0.1987
 2041TIP3    H127538   0.055   4.940   5.640 -0.1003  0.6595 -1.3249
 2041TIP3    H227539   0.021   4.926   5.494 -1.5800 -1.6613 -0.7923
 2042TIP3   OH227540   1.167   3.829  15.228 -0.4784 -0.0947  0.0679
 2042TIP3    H127541   1.163   3.912  15.276  1.0406  0.0306  0.0019
 2042TIP3    H227542   1.204   3.767  15.291  1.4531  0.0489 -0.8875
 2043TIP3   OH227543   0.959   3.322   0.304  0.3097  0.1555 -0.4853
 2043TIP3    H127544   0.948   3.356   0.215  0.4889 -0.6110 -0.8012
 2043TIP3    H227545   1.021   3.249   0.294  0.5633  0.2662  0.3119
 2044TIP3   OH227546   6.747   2.157  15.299 -0.7025  0.1102 -0.1326
 2044TIP3    H127547   6.771   2.247  15.322 -3.0555  0.6847  0.2764
 2044TIP3    H227548   6.795   2.103  15.361 -0.5855  1.2040  0.7501
 2045TIP3   OH227549   0.704   5.122  15.144 -0.0442 -0.1055  0.5197
 2045TIP3    H127550   0.710   5.181  15.220  1.1842  1.6171 -0.8881
 2045TIP3    H227551   0.792   5.121  15.108 -0.6252 -0.9334 -0.8915
 2046TIP3   OH227552   4.339   2.790  15.957  0.6727  0.0655 -0.0030
 2046TIP3    H127553   4.341   2.755  15.868  0.4363  1.0511 -0.4009
 2046TIP3    H227554   4.298   2.876  15.948  0.3217  0.0172  1.1133
 2047TIP3   OH227555   1.060   3.358   6.018 -0.2619  0.1492  0.2832
 2047TIP3    H127556   1.069   3.398   6.105 -0.7084 -0.9725  0.8512
 2047TIP3    H227557   1.091   3.268   6.030 -0.4391 -0.0460 -0.6945
 2048TIP3   OH227558   4.122   5.080  15.285  0.0293 -0.3826  0.0175
 2048TIP3    H127559   4.196   5.026  15.260 -0.6705 -0.3838 -2.2004
 2048TIP3    H227560   4.142   5.110  15.374  1.7808 -1.8806  0.1530
 2049TIP3   OH227561   5.094   0.651  13.358 -0.4290  0.2926  0.2263
 2049TIP3    H127562   5.028   0.593  13.321  0.6604 -0.1202 -1.1404
 2049TIP3    H227563   5.071   0.659  13.450 -2.4287  0.2368 -0.2600
 2050TIP3   OH227564   2.988   0.613  12.540 -0.3595  0.3404  0.2591
 2050TIP3    H127565   2.909   0.565  12.515 -0.8510  1.1035  0.3331
 2050TIP3    H227566   3.052   0.590  12.473 -1.0790  0.8325 -0.6171
 2051TIP3   OH227567   5.611   3.410  11.484  0.4478  0.8304  0.1591
 2051TIP3    H127568   5.640   3.353  11.414 -0.1519 -1.2340  1.5522
 2051TIP3    H227569   5.692   3.446  11.521  0.9642 -0.9573  0.7797
 2052TIP3   OH227570   2.305   0.123  16.374 -0.0043 -0.0931  0.2094
 2052TIP3    H127571   2.302   0.200  16.431 -3.4258  0.6326 -0.8644
 2052TIP3    H227572   2.234   0.067  16.405  0.3611 -1.3416 -1.1306
 2053TIP3   OH227573   6.130   2.403   5.965  0.3874 -0.4296  0.1960
 2053TIP3    H127574   6.172   2.478   6.007 -1.7195  0.4642  0.7572
 2053TIP3    H227575   6.200   2.339   5.955  2.2621  1.6527 -0.4049
 2054TIP3   OH227576   4.898   2.282  14.306 -0.2386 -0.3486 -0.3458
 2054TIP3    H127577   4.848   2.211  14.265 -1.4677  0.6880 -0.6712
 2054TIP3    H227578   4.848   2.306  14.383 -0.7224  1.2587 -1.1256
 2055TIP3   OH227579   5.849   5.274   4.314 -0.0368 -0.1231  0.0905
 2055TIP3    H127580   5.792   5.209   4.274 -2.0197  1.8254 -0.3386
 2055TIP3    H227581   5.793   5.321   4.375  1.2259  1.5159  0.0153
 2056TIP3   OH227582   3.299   2.311  15.591 -0.5210  0.2135  0.1418
 2056TIP3    H127583   3.292   2.223  15.629 -1.9256  0.1360 -0.2731
 2056TIP3    H227584   3.241   2.309  15.515  0.1093  1.2394 -0.3677
 2057TIP3   OH227585   3.292   6.289   3.035 -0.1293 -0.8629 -0.3853
 2057TIP3    H127586   3.387   6.300   3.046 -0.3126 -0.2808  0.6804
 2057TIP3    H227587   3.282   6.204   2.993  0.7759 -1.6744  1.0264
 2058TIP3   OH227588   5.946   1.720   2.912 -0.0651 -0.4302  0.1300
 2058TIP3    H127589   5.947   1.721   3.008  1.0970 -1.2127  0.1386
 2058TIP3    H227590   5.936   1.812   2.887  0.1282 -0.1688  0.9977
 2059TIP3   OH227591   4.256   2.670  13.676 -0.0837  0.1896  0.2192
 2059TIP3    H127592   4.168   2.656  13.641 -0.3093 -2.1958  1.6485
 2059TIP3    H227593   4.304   2.590  13.654  0.6803 -0.0267  2.5462
 2060TIP3   OH227594   1.028   2.901  11.893  0.0948 -0.2263  0.0450
 2060TIP3    H127595   1.002   2.848  11.817 -0.4362 -1.0220  0.7800
 2060TIP3    H227596   1.103   2.854  11.930 -0.2737 -0.3651  0.6044
 2061TIP3   OH227597   6.159   2.264  12.316 -0.7250 -0.7527  0.1733
 2061TIP3    H127598   6.145   2.359  12.312  0.2121 -0.6079  0.0158
 2061TIP3    H227599   6.200   2.250  12.401  1.4757 -0.6584 -0.8087
 2062TIP3   OH227600   2.747   2.962  11.193  0.5018 -0.2343  0.4249
 2062TIP3    H127601   2.766   2.991  11.104  0.2298  0.5229  0.6090
 2062TIP3    H227602   2.833   2.956  11.235  0.8123 -2.5639 -0.4717
 2063TIP3   OH227603   6.265   5.376  16.491 -0.0710  0.0018  0.3480
 2063TIP3    H127604   6.279   5.286  16.520 -0.5081  0.4582  2.0507
 2063TIP3    H227605   6.170   5.388  16.497 -0.4611 -0.5306 -3.3360
 2064TIP3   OH227606   2.647   0.388   1.135 -0.2101 -0.4207  0.0848
 2064TIP3    H127607   2.648   0.461   1.197 -1.4898 -2.1552  2.2127
 2064TIP3    H227608   2.554   0.375   1.115  0.0786 -0.9271 -0.9770
 2065TIP3   OH227609   6.286   4.607  13.064 -0.5454  0.4189  0.4683
 2065TIP3    H127610   6.275   4.525  13.111  2.5321  1.3468  2.9825
 2065TIP3    H227611   6.374   4.602  13.026 -0.8205  2.0150 -0.4742
 2066TIP3   OH227612   2.538   0.402  15.537  0.2533  0.0619 -0.5452
 2066TIP3    H127613   2.495   0.448  15.465 -0.4963 -0.9551 -0.7605
 2066TIP3    H227614   2.598   0.466  15.574 -1.2207  1.4115 -0.4331
 2067TIP3   OH227615   5.975   5.133  14.895  0.0633  0.1806 -0.0901
 2067TIP3    H127616   6.007   5.047  14.922  0.6264  0.4928  0.2448
 2067TIP3    H227617   6.012   5.146  14.807  0.9409  0.5899  0.3444
 2068TIP3   OH227618   4.178   5.163  12.985 -0.2486 -0.3344 -0.2581
 2068TIP3    H127619   4.130   5.178  13.066  0.5134 -0.7566  0.2783
 2068TIP3    H227620   4.236   5.089  13.004  0.5984  0.1435 -0.8967
 2069TIP3   OH227621   4.563   2.167   0.272 -0.5269 -0.0759  0.0630
 2069TIP3    H127622   4.554   2.083   0.227  2.0303  0.2343 -1.0999
 2069TIP3    H227623   4.639   2.156   0.329 -1.1396  0.9507  1.1071
 2070TIP3   OH227624   6.294   2.779  15.270  0.2473  0.6140 -0.4953
 2070TIP3    H127625   6.304   2.874  15.260 -0.5780  0.6542 -0.9336
 2070TIP3    H227626   6.276   2.747  15.181 -1.6828  0.3177 -0.0113
 2071TIP3   OH227627   0.534   4.918  10.481  0.1743 -0.1746 -0.1486
 2071TIP3    H127628   0.442   4.904  10.504 -0.3946 -0.6597 -2.5654
 2071TIP3    H227629   0.577   4.835  10.502  0.0069 -0.0502  0.7003
 2072TIP3   OH227630   1.133   3.598   5.041  0.1142  0.0181  0.0188
 2072TIP3    H127631   1.209   3.646   5.073  0.2885 -0.3113  0.1011
 2072TIP3    H227632   1.059   3.655   5.061  0.2536 -0.0271  0.6911
 2073TIP3   OH227633   4.324   0.331  11.695  0.0745 -0.5349  0.4730
 2073TIP3    H127634   4.299   0.416  11.659  1.4981  0.1188  0.9838
 2073TIP3    H227635   4.418   0.339  11.713 -0.1409 -1.5676  2.2711
 2074TIP3   OH227636   5.122   5.379   4.335  0.0922 -0.2444  0.4422
 2074TIP3    H127637   5.173   5.298   4.332 -0.1775 -0.4718  1.6297
 2074TIP3    H227638   5.087   5.389   4.246 -1.7853 -2.6970  0.8344
 2075TIP3   OH227639   0.974   3.676   2.785 -0.6322 -0.0926  0.3003
 2075TIP3    H127640   0.943   3.663   2.695 -2.7410  0.3800  0.9501
 2075TIP3    H227641   1.061   3.716   2.774 -0.9187  0.0898 -1.5198
 2076TIP3   OH227642   1.574   1.785   6.103  0.0319 -0.1573  0.9158
 2076TIP3    H127643   1.522   1.833   6.168 -2.5658  0.0618 -1.2317
 2076TIP3    H227644   1.619   1.718   6.154  0.9448  2.2885  3.4557
 2077TIP3   OH227645   5.605   4.855   2.410  0.1543 -0.3301  0.0253
 2077TIP3    H127646   5.658   4.783   2.375  1.0177  0.4872 -0.3567
 2077TIP3    H227647   5.563   4.894   2.333  1.3340  0.8912 -0.0163
 2078TIP3   OH227648   1.097   3.130  12.980  0.3017  0.7596 -0.9390
 2078TIP3    H127649   1.071   3.221  12.987 -0.6344  0.4081  0.2797
 2078TIP3    H227650   1.037   3.093  12.915 -1.4113  0.2782  0.8671
 2079TIP3   OH227651   5.890   1.054   2.592 -0.3032  0.3077 -0.1068
 2079TIP3    H127652   5.882   0.988   2.523  1.2558 -0.2771  0.2558
 2079TIP3    H227653   5.926   1.006   2.667  1.2701  1.6428  0.0205
 2080TIP3   OH227654   2.129   1.258   2.753  0.6311 -0.3013 -0.3695
 2080TIP3    H127655   2.224   1.264   2.747  0.6565  2.3594  1.6140
 2080TIP3    H227656   2.114   1.196   2.824  0.8978 -0.4079 -0.4064
 2081TIP3   OH227657   4.160   6.052  16.727 -0.3719  0.0170 -0.3805
 2081TIP3    H127658   4.174   6.122  16.664 -2.8886 -0.0782 -1.0773
 2081TIP3    H227659   4.095   5.995  16.686 -0.1147 -1.4465  1.1904
 2082TIP3   OH227660   4.439   1.670   1.264  0.0149  0.0485  0.2557
 2082TIP3    H127661   4.479   1.639   1.346 -1.2514  0.5309  1.0750
 2082TIP3    H227662   4.478   1.757   1.251 -1.2083  0.7916  1.3958
 2083TIP3   OH227663   2.467   2.308   4.611  0.0124  0.0076 -0.5497
 2083TIP3    H127664   2.512   2.392   4.618 -0.5149  0.2613 -0.1892
 2083TIP3    H227665   2.524   2.255   4.556  2.2557 -0.6781  2.2957
 2084TIP3   OH227666   6.489   5.023   5.313 -0.3759 -0.1563  0.0123
 2084TIP3    H127667   6.424   5.055   5.376 -2.9610 -0.6107 -2.3320
 2084TIP3    H227668   6.441   4.960   5.259  2.2386 -1.0716 -1.3138
 2085TIP3   OH227669   6.513   6.051   3.632  0.2696  0.1062 -0.0810
 2085TIP3    H127670   6.450   6.088   3.571 -0.5012  2.0243  1.8245
 2085TIP3    H227671   6.460   6.019   3.706  1.1255 -2.7317 -0.6323
 2086TIP3   OH227672   6.630   3.877  11.897 -0.5268 -0.2910 -0.3453
 2086TIP3    H127673   6.624   3.793  11.942 -1.0705  0.2265  0.5741
 2086TIP3    H227674   6.677   3.858  11.816  0.3202 -1.2840  0.3607
 2087TIP3   OH227675   6.480   5.428   0.948  0.2348  0.3795 -0.0053
 2087TIP3    H127676   6.505   5.471   0.866 -0.7503 -0.5014 -0.7830
 2087TIP3    H227677   6.405   5.373   0.924  0.1334 -0.1154  1.4247
 2088TIP3   OH227678   6.097   4.125   0.938  0.0206  0.4120 -0.1522
 2088TIP3    H127679   6.117   4.105   0.847 -2.3424 -0.3120 -0.5625
 2088TIP3    H227680   6.138   4.054   0.987  2.1351  1.3389 -0.5506
 2089TIP3   OH227681   1.847   5.102   4.290 -0.4108 -0.2636 -0.0404
 2089TIP3    H127682   1.897   5.155   4.352  0.9719  0.8413 -2.0087
 2089TIP3    H227683   1.761   5.144   4.286 -2.0313 -2.9069  4.3120
 2090TIP3   OH227684   3.910   6.627  12.693 -0.2342 -0.2087  0.2883
 2090TIP3    H127685   4.000   6.608  12.667  0.0182  1.6787 -0.2704
 2090TIP3    H227686   3.879   6.546  12.733  1.5917 -0.9829  0.1707
 2091TIP3   OH227687   4.932   3.851   3.269 -0.3144  0.9024 -0.4392
 2091TIP3    H127688   4.932   3.756   3.267 -3.4870  0.7947  1.1459
 2091TIP3    H227689   4.948   3.874   3.361 -1.4193  1.8124 -0.4498
 2092TIP3   OH227690   1.961   5.173   1.829 -0.4532 -0.3035  0.6251
 2092TIP3    H127691   1.993   5.174   1.739 -1.3780 -0.5953  0.2810
 2092TIP3    H227692   1.881   5.227   1.827 -0.7780 -0.7555  1.1493
 2093TIP3   OH227693   0.859   3.709  11.343  0.1035  0.5242 -0.1985
 2093TIP3    H127694   0.916   3.769  11.295  2.6209  0.1706  2.1965
 2093TIP3    H227695   0.847   3.750  11.429 -2.7918  0.2675 -0.4331
 2094TIP3   OH227696   5.505   0.257   2.223 -0.0706  0.1515  0.4180
 2094TIP3    H127697   5.414   0.228   2.210 -0.1235  0.1407  0.8274
 2094TIP3    H227698   5.548   0.237   2.140  0.0609 -1.7026  0.9185
 2095TIP3   OH227699   3.268   6.297  16.675 -0.3067  0.1350 -0.0889
 2095TIP3    H127700   3.282   6.390  16.695 -0.7747  0.0456  0.6895
 2095TIP3    H227701   3.334   6.252  16.729 -1.5054 -0.1034  1.1985
 2096TIP3   OH227702   1.122   5.160  14.708 -0.1314 -0.2690 -0.1140
 2096TIP3    H127703   1.116   5.205  14.792 -1.2315  0.4504 -0.5619
 2096TIP3    H227704   1.148   5.228  14.646  0.0897 -0.6682 -0.4609
 2097TIP3   OH227705   4.979   2.029  14.728 -0.3620 -0.0772 -0.2501
 2097TIP3    H127706   5.045   2.098  14.726 -0.1911 -0.2641 -1.7035
 2097TIP3    H227707   4.968   2.004  14.636 -1.4188 -1.0324  0.1256
 2098TIP3   OH227708   6.407   3.807  16.753  0.4319 -0.3630 -0.1300
 2098TIP3    H127709   6.333   3.765  16.710  1.8986 -1.6273 -1.4683
 2098TIP3    H227710   6.417   3.890  16.707  0.3919 -0.5827 -0.5418
 2099TIP3   OH227711   3.512   4.907   3.082 -0.0718 -0.5589  0.8112
 2099TIP3    H127712   3.547   4.952   3.006  0.0783 -0.2627  1.0524
 2099TIP3    H227713   3.451   4.842   3.046  0.1808 -0.5866  0.4314
 2100TIP3   OH227714   0.368   4.776  12.890 -0.5046  0.3061  0.6690
 2100TIP3    H127715   0.324   4.826  12.821 -3.1388 -1.5125  0.9872
 2100TIP3    H227716   0.326   4.805  12.971  0.3668  0.0952  1.2042
 2101TIP3   OH227717   0.526   5.916   5.458 -0.2114 -0.1474  0.1908
 2101TIP3    H127718   0.439   5.880   5.441 -0.7102  1.1583 -0.0476
 2101TIP3    H227719   0.521   6.007   5.428  0.5205  0.6296  2.3130
 2102TIP3   OH227720   3.017   1.697  15.725  0.5129 -0.0865 -0.2841
 2102TIP3    H127721   2.980   1.785  15.732 -0.9422 -0.8075  1.5561
 2102TIP3    H227722   3.088   1.696  15.789  1.4039  0.1496 -1.2535
 2103TIP3   OH227723   5.212   3.256  13.093  0.2075 -0.4843  0.2073
 2103TIP3    H127724   5.270   3.275  13.019  0.0688  1.5927  0.6027
 2103TIP3    H227725   5.125   3.251  13.054  0.1584  0.4213  0.1769
 2104TIP3   OH227726   3.452   3.384  12.588  0.0311  0.1770 -0.2285
 2104TIP3    H127727   3.467   3.469  12.629  0.7969  0.0572 -0.2597
 2104TIP3    H227728   3.418   3.329  12.659  1.3607 -0.0332  0.2495
 2105TIP3   OH227729   0.758   3.114   4.140 -0.3463 -0.4037 -0.4168
 2105TIP3    H127730   0.849   3.094   4.115 -0.2813  0.7598 -1.1730
 2105TIP3    H227731   0.767   3.175   4.213 -0.5091  0.3276 -1.0033
 2106TIP3   OH227732   6.443   4.194  14.053  0.0655 -0.3247  0.3224
 2106TIP3    H127733   6.519   4.162  14.102 -1.1868 -1.1689  1.7641
 2106TIP3    H227734   6.446   4.289  14.063  0.6990 -0.3828  0.7123
 2107TIP3   OH227735   6.267   5.732  16.080 -0.1714 -0.5793 -0.0906
 2107TIP3    H127736   6.172   5.744  16.089 -0.3071 -2.8893  2.1208
 2107TIP3    H227737   6.281   5.728  15.985 -1.6862  3.7096 -0.6119
 2108TIP3   OH227738   3.349   6.235   3.329 -0.7360 -0.3561 -0.2013
 2108TIP3    H127739   3.297   6.314   3.346  0.1240  0.1844 -0.0138
 2108TIP3    H227740   3.434   6.269   3.301 -0.2693 -1.2189  0.1579
 2109TIP3   OH227741   6.617   2.290   4.673  0.4784 -0.1793 -0.1501
 2109TIP3    H127742   6.677   2.246   4.733 -1.2028 -1.1157  0.9052
 2109TIP3    H227743   6.544   2.317   4.729  1.1154  3.3136 -0.9146
 2110TIP3   OH227744   3.710   1.248   3.656  0.4520 -0.3258  0.2099
 2110TIP3    H127745   3.784   1.280   3.605  1.5683 -0.4055  1.7503
 2110TIP3    H227746   3.670   1.327   3.693  1.8070 -0.4956  2.1091
 2111TIP3   OH227747   4.667   4.949  11.281  0.0844 -0.4680  0.0622
 2111TIP3    H127748   4.655   4.915  11.192 -1.8021 -0.7260  0.3881
 2111TIP3    H227749   4.727   5.022  11.271 -1.6450  0.7655 -1.7537
 2112TIP3   OH227750   3.904   5.231  13.926 -0.4789  0.0334 -0.2016
 2112TIP3    H127751   3.843   5.159  13.939 -1.3178  0.5180 -1.4096
 2112TIP3    H227752   3.896   5.254  13.834 -0.2622  1.7051  0.1671
 2113TIP3   OH227753   1.175   3.750  12.331  0.1346 -0.3842 -0.5422
 2113TIP3    H127754   1.151   3.731  12.422  1.5069  0.6619  0.0697
 2113TIP3    H227755   1.266   3.779  12.337 -0.7214  2.7947 -1.8323
 2114TIP3   OH227756   4.709   6.608  14.634  0.6545  0.9438 -0.1835
 2114TIP3    H127757   4.697   6.583  14.543 -1.1014  2.5737 -0.4215
 2114TIP3    H227758   4.750   6.694  14.630  1.2082  0.7235  0.5857
 2115TIP3   OH227759   3.813   3.910   0.561 -0.1388  0.3928 -0.6781
 2115TIP3    H127760   3.889   3.852   0.559 -0.6962 -0.4415  1.0082
 2115TIP3    H227761   3.787   3.919   0.469 -0.1334 -2.2244 -0.9774
 2116TIP3   OH227762   4.478   2.734  16.395 -0.2416  0.1424  0.6381
 2116TIP3    H127763   4.483   2.709  16.302 -0.8794 -1.7042  1.0957
 2116TIP3    H227764   4.562   2.777  16.412  0.8469 -1.5770 -0.1982
 2117TIP3   OH227765   5.207   0.655  13.972  0.3871 -0.8099  0.7059
 2117TIP3    H127766   5.130   0.712  13.969  0.6388 -0.5276 -1.0616
 2117TIP3    H227767   5.195   0.595  13.899  1.4345 -1.3021  0.9340
 2118TIP3   OH227768   1.478   2.686   1.100  0.7038 -0.6001 -0.3567
 2118TIP3    H127769   1.522   2.610   1.138  2.0828  0.3907  0.0736
 2118TIP3    H227770   1.511   2.761   1.150  1.2214  0.5294 -2.3175
 2119TIP3   OH227771   1.975   1.794   4.739  0.0449 -0.3294  0.3542
 2119TIP3    H127772   1.938   1.882   4.746  2.1087  0.6216  0.0263
 2119TIP3    H227773   2.035   1.787   4.813  1.2269 -0.7653 -0.6211
 2120TIP3   OH227774   0.832   0.174   0.209 -0.0456 -0.0035  0.1056
 2120TIP3    H127775   0.924   0.172   0.236 -0.0464  0.3467  0.1332
 2120TIP3    H227776   0.834   0.160   0.115  0.0912  0.8983 -0.0240
 2121TIP3   OH227777   5.605   3.688  12.201  0.2819  0.3829 -0.7013
 2121TIP3    H127778   5.625   3.739  12.280 -1.0938  0.0775 -0.1501
 2121TIP3    H227779   5.516   3.712  12.179 -1.2764 -3.4523  0.9034
 2122TIP3   OH227780   4.260   6.515  15.748  0.3296  0.4793 -0.5481
 2122TIP3    H127781   4.256   6.610  15.747 -0.8163  0.4408 -0.2038
 2122TIP3    H227782   4.198   6.487  15.681  0.2642 -0.0315 -0.2803
 2123TIP3   OH227783   5.720   2.727  16.782  1.1333  0.2462 -0.2880
 2123TIP3    H127784   5.780   2.655  16.803 -0.4893 -0.9645  0.3289
 2123TIP3    H227785   5.685   2.755  16.867  0.6180  0.7593 -0.6624
 2124TIP3   OH227786   5.526   1.479   0.127  0.5402  0.0312 -0.0802
 2124TIP3    H127787   5.554   1.433   0.207 -0.4401 -0.7149 -0.1531
 2124TIP3    H227788   5.431   1.466   0.124  0.6016 -0.1797 -1.5176
 2125TIP3   OH227789   3.407   2.811  14.946  0.0455 -0.5871  0.4892
 2125TIP3    H127790   3.501   2.826  14.950 -0.0454 -0.3044  1.7033
 2125TIP3    H227791   3.369   2.898  14.953 -0.2925 -0.5672 -1.2876
 2126TIP3   OH227792   5.579   6.602   0.184  0.1412 -0.6030  0.9587
 2126TIP3    H127793   5.600   6.688   0.222 -1.4281 -0.9299  2.6556
 2126TIP3    H227794   5.615   6.539   0.247 -1.0678 -1.1602  1.1114
 2127TIP3   OH227795   2.142   5.507   0.857  0.1034  0.2896 -0.4420
 2127TIP3    H127796   2.169   5.573   0.792 -1.5047  2.0253  0.5908
 2127TIP3    H227797   2.050   5.489   0.835  0.8644 -2.5969 -1.4863
 2128TIP3   OH227798   5.926   3.826  16.100 -0.0162  0.0222  0.0580
 2128TIP3    H127799   5.964   3.833  16.013  0.3818  2.1269  0.3737
 2128TIP3    H227800   5.900   3.916  16.122  0.6234 -0.3335  2.4132
 2129TIP3   OH227801   1.234   5.218   0.228 -0.1301  0.2662  0.0274
 2129TIP3    H127802   1.144   5.199   0.253  0.0888 -1.0295 -0.1101
 2129TIP3    H227803   1.245   5.312   0.244 -0.5793 -0.1300  2.9439
 2130TIP3   OH227804   6.495   2.776  10.901  0.8362  0.3153 -0.1620
 2130TIP3    H127805   6.468   2.765  10.810  0.5129 -1.6582  0.1573
 2130TIP3    H227806   6.428   2.731  10.952  1.0514  1.3350  1.0595
 2131TIP3   OH227807   2.322   3.302   0.412 -0.6157 -0.1857 -0.2263
 2131TIP3    H127808   2.230   3.291   0.433 -0.6559  0.1875 -0.2046
 2131TIP3    H227809   2.324   3.372   0.347 -0.3541 -0.2531 -0.2946
 2132TIP3   OH227810   0.713   1.897  13.320 -0.6874  0.4244  0.2309
 2132TIP3    H127811   0.786   1.835  13.319 -2.3931 -1.6379  0.3025
 2132TIP3    H227812   0.738   1.965  13.257  1.4570 -0.0402  0.5581
 2133TIP3   OH227813   5.965   4.026  15.148  0.0613  0.0534 -0.0636
 2133TIP3    H127814   5.876   4.057  15.167 -0.9924 -2.3878 -0.7661
 2133TIP3    H227815   5.995   4.081  15.076 -0.9934  0.6889 -0.0302
 2134TIP3   OH227816   6.398   5.043   3.574 -0.1200 -0.6704 -0.6476
 2134TIP3    H127817   6.453   5.067   3.499 -0.7152 -2.0596 -1.5623
 2134TIP3    H227818   6.421   4.952   3.591 -1.4816 -0.9852 -0.4669
 2135TIP3   OH227819   6.724   5.334   3.903 -0.2731 -0.1556 -0.6182
 2135TIP3    H127820   6.680   5.270   3.847  0.6109  0.5668 -2.1577
 2135TIP3    H227821   6.804   5.356   3.856  0.6548  0.2163  1.0956
 2136TIP3   OH227822   4.835   3.585   1.982  0.1992  0.2698  0.2126
 2136TIP3    H127823   4.806   3.598   1.891 -2.8765 -0.7021  0.9703
 2136TIP3    H227824   4.764   3.624   2.035  1.4812 -0.0493  2.2070
 2137TIP3   OH227825   3.468   5.406  15.696  0.1152  0.3478 -0.2164
 2137TIP3    H127826   3.552   5.416  15.740 -0.0836 -2.2233  0.8444
 2137TIP3    H227827   3.456   5.311  15.688 -2.6832  0.6492 -0.3068
 2138TIP3   OH227828   3.064   0.781   3.657  0.0079 -0.1804 -0.0231
 2138TIP3    H127829   3.064   0.871   3.688 -1.9581 -0.2108  0.1080
 2138TIP3    H227830   3.118   0.733   3.720  1.1352  0.9032 -0.1463
 2139TIP3   OH227831   2.386   3.506  15.139  0.1992 -0.3166  0.0166
 2139TIP3    H127832   2.312   3.505  15.079 -0.3172 -0.2274  0.6538
 2139TIP3    H227833   2.463   3.516  15.082 -0.3549  0.7589 -0.5575
 2140TIP3   OH227834   5.090   3.109  10.847  0.3315 -0.1546  0.3379
 2140TIP3    H127835   5.171   3.154  10.868  0.0738  0.7410 -0.5237
 2140TIP3    H227836   5.112   3.016  10.850  1.4390  0.0881 -0.0856
 2141TIP3   OH227837   6.550   3.322   6.260  0.2378 -0.8561  0.1500
 2141TIP3    H127838   6.516   3.233   6.270  0.1436 -0.7527  0.7547
 2141TIP3    H227839   6.494   3.376   6.315 -1.0026 -0.0961 -1.8192
 2142TIP3   OH227840   0.184   6.294   3.595 -0.1384 -0.7577 -0.3966
 2142TIP3    H127841   0.208   6.205   3.619 -1.6392 -1.1094 -0.1554
 2142TIP3    H227842   0.255   6.348   3.630  0.4828 -1.7938 -0.0293
 2143TIP3   OH227843   2.881   3.860   4.225  0.3786  0.0097 -0.4337
 2143TIP3    H127844   2.851   3.939   4.270  0.8990 -0.2956  0.4841
 2143TIP3    H227845   2.955   3.889   4.172 -0.6191  0.4890 -1.5860
 2144TIP3   OH227846   2.118   3.772  16.660 -0.4562 -0.1892 -0.2806
 2144TIP3    H127847   2.175   3.738  16.590  0.7146  0.6823  0.2418
 2144TIP3    H227848   2.175   3.828  16.712 -0.9672 -1.8646  2.1703
 2145TIP3   OH227849   2.786   3.417   1.867  0.2908  0.3712 -0.2555
 2145TIP3    H127850   2.722   3.413   1.938 -0.1998  1.3679 -0.6326
 2145TIP3    H227851   2.735   3.442   1.790  0.7982 -0.7892 -0.9841
 2146TIP3   OH227852   2.526   0.096   2.497 -0.0180  0.0628  0.0846
 2146TIP3    H127853   2.614   0.128   2.513 -0.2778  0.5116  0.6286
 2146TIP3    H227854   2.501   0.052   2.579 -0.5209  0.4561  0.1473
 2147TIP3   OH227855   2.566   4.172  16.328  0.4573  0.6369  0.7359
 2147TIP3    H127856   2.563   4.266  16.345  0.3591  0.4373  1.8442
 2147TIP3    H227857   2.479   4.152  16.293  0.1876  0.8149  1.2865
 2148TIP3   OH227858   3.468   4.577   1.504 -0.5102 -0.7217 -0.1686
 2148TIP3    H127859   3.460   4.561   1.598 -0.0639 -0.0828 -0.0282
 2148TIP3    H227860   3.555   4.544   1.481 -0.4096 -0.3880 -0.2629
 2149TIP3   OH227861   1.557   5.783   6.065  0.3005 -0.1840  0.6732
 2149TIP3    H127862   1.471   5.758   6.098  0.2824 -0.2697  0.5610
 2149TIP3    H227863   1.550   5.775   5.970  0.1726  0.6498  0.6158
 2150TIP3   OH227864   5.916   3.337  13.030  0.6261 -0.4659 -0.4571
 2150TIP3    H127865   5.997   3.296  13.000  0.6689 -0.5251 -0.2624
 2150TIP3    H227866   5.922   3.334  13.126  0.5513 -0.1601 -0.4441
 2151TIP3   OH227867   6.324   4.438  14.803 -0.2959  0.1490 -0.1472
 2151TIP3    H127868   6.407   4.425  14.758  0.3715  1.0513  0.7796
 2151TIP3    H227869   6.300   4.351  14.835 -0.2741 -0.3138 -1.3679
 2152TIP3   OH227870   2.524   5.368  13.511 -0.3763 -0.3199  0.0025
 2152TIP3    H127871   2.524   5.447  13.457  1.2543  0.3044  0.8755
 2152TIP3    H227872   2.460   5.385  13.579 -0.8085 -0.1874 -0.4371
 2153TIP3   OH227873   0.172   2.171  16.913  0.5701 -0.1479 -0.8747
 2153TIP3    H127874   0.130   2.142  16.995 -0.2325  1.7016 -0.6098
 2153TIP3    H227875   0.204   2.259  16.933  0.2559  0.3613 -2.5922
 2154TIP3   OH227876   6.328   5.719  13.971 -0.2332  0.3661 -0.3405
 2154TIP3    H127877   6.420   5.739  13.988 -0.2366 -1.7782  2.5395
 2154TIP3    H227878   6.330   5.639  13.918 -0.4655  0.3898 -0.3869
 2155TIP3   OH227879   2.721   6.241  16.994  0.2384  0.5382 -0.7592
 2155TIP3    H127880   2.720   6.333  16.969 -0.4226  0.6577 -0.3000
 2155TIP3    H227881   2.776   6.199  16.927 -0.9875  0.9585 -2.0549
 2156TIP3   OH227882   4.496   2.218  16.667  0.3365 -0.2176 -0.0944
 2156TIP3    H127883   4.517   2.142  16.721  1.5117 -0.1832 -0.4852
 2156TIP3    H227884   4.434   2.185  16.601 -0.7057 -0.3685  0.9407
 2157TIP3   OH227885   0.418   5.283   4.994  0.2404 -0.4857  0.1667
 2157TIP3    H127886   0.370   5.247   5.068  0.1802 -1.4176 -0.3249
 2157TIP3    H227887   0.469   5.210   4.960  1.0877  0.1979 -0.0605
 2158TIP3   OH227888   5.567   5.242  13.054 -0.6182  0.1713  0.1976
 2158TIP3    H127889   5.550   5.232  13.147 -1.8895 -0.6088 -0.0999
 2158TIP3    H227890   5.507   5.311  13.025 -0.1451  0.4960 -0.0243
 2159TIP3   OH227891   6.321   5.833  10.377  0.6329  0.7078  0.2441
 2159TIP3    H127892   6.233   5.794  10.383  0.9304  0.4393  3.2446
 2159TIP3    H227893   6.376   5.761  10.346  0.0596  0.5118 -0.3514
 2160TIP3   OH227894   6.310   4.827   5.176 -0.4550 -0.1970 -0.0993
 2160TIP3    H127895   6.365   4.756   5.143  1.8009  0.5393  1.9417
 2160TIP3    H227896   6.264   4.790   5.251 -0.7004 -0.0221 -0.1613
 2161TIP3   OH227897   1.301   3.518  15.131  0.1379 -0.1193 -0.3877
 2161TIP3    H127898   1.284   3.489  15.220  1.6781 -1.7283 -0.6084
 2161TIP3    H227899   1.222   3.494  15.083  0.4252 -1.7792 -0.0429
 2162TIP3   OH227900   2.139   4.392  14.083  0.2720  0.3678  0.2608
 2162TIP3    H127901   2.148   4.298  14.068 -0.6533  0.6271 -2.0195
 2162TIP3    H227902   2.084   4.397  14.162  0.9862 -1.0012  0.8702
 2163TIP3   OH227903   1.720   2.687  15.868 -0.1660 -0.1169  0.1294
 2163TIP3    H127904   1.727   2.782  15.867  1.3815 -0.2172 -0.4746
 2163TIP3    H227905   1.750   2.660  15.781 -0.8409 -1.1439  0.2029
 2164TIP3   OH227906   2.615   2.479  13.469  0.0924  0.1933  0.6020
 2164TIP3    H127907   2.561   2.408  13.502 -0.7400  0.7579  0.4689
 2164TIP3    H227908   2.592   2.554  13.524 -0.5019  0.8604 -0.5455
 2165TIP3   OH227909   5.945   5.851   2.740 -0.2620 -0.1172 -0.7447
 2165TIP3    H127910   5.863   5.896   2.762  0.2973  0.2260  0.7443
 2165TIP3    H227911   5.963   5.876   2.650 -1.1733  0.7978 -0.6787
 2166TIP3   OH227912   5.108   2.274  16.708  0.0056 -0.2714  0.2180
 2166TIP3    H127913   5.198   2.303  16.695  0.4758 -1.5503  0.4861
 2166TIP3    H227914   5.113   2.179  16.701 -1.0802 -0.4457  1.6366
 2167TIP3   OH227915   0.317   3.380   5.411 -0.2857  0.3579 -0.0394
 2167TIP3    H127916   0.392   3.326   5.387  0.7991  1.9254 -0.2512
 2167TIP3    H227917   0.241   3.333   5.376  0.7148 -0.5577 -1.0098
 2168TIP3   OH227918   2.536   1.158  14.071  0.3757  0.3860  0.1077
 2168TIP3    H127919   2.569   1.247  14.059  0.6293  0.1545 -0.9805
 2168TIP3    H227920   2.615   1.106  14.085  0.1756  0.4411  1.5193
 2169TIP3   OH227921   2.232   4.342   0.987  0.0782 -0.0696  0.1870
 2169TIP3    H127922   2.177   4.406   0.942  0.4944  1.0446  1.2362
 2169TIP3    H227923   2.173   4.268   1.004 -0.8008  0.6340  0.2639
 2170TIP3   OH227924   3.933   1.811   2.330  0.5552  0.1786  0.5243
 2170TIP3    H127925   3.915   1.905   2.326 -0.6971  0.0253  2.0536
 2170TIP3    H227926   3.999   1.802   2.399  0.9963 -0.0198  0.0763
 2171TIP3   OH227927   2.954   3.822   3.870  0.4876 -0.1204 -0.4944
 2171TIP3    H127928   2.917   3.745   3.913  3.1226 -1.0731  0.2175
 2171TIP3    H227929   2.884   3.887   3.871 -1.1450 -1.8461  0.6924
 2172TIP3   OH227930   4.940   5.206  15.985 -0.0092 -0.0464 -0.2763
 2172TIP3    H127931   4.949   5.124  15.936 -1.9228 -1.4378  1.6181
 2172TIP3    H227932   4.869   5.253  15.941  0.4196  0.1479 -0.7629
 2173TIP3   OH227933   4.976   4.769   2.983  0.1483  0.7592  0.2301
 2173TIP3    H127934   5.009   4.749   2.896 -2.3543  1.0674 -0.8547
 2173TIP3    H227935   4.922   4.693   3.006 -1.4354  1.8652  0.2893
 2174TIP3   OH227936   4.561   0.077  12.728  0.4180 -0.4057 -0.5239
 2174TIP3    H127937   4.494   0.145  12.717  1.5886  0.3539 -3.4846
 2174TIP3    H227938   4.523  -0.001  12.689  0.4993 -0.4845 -0.4458
 2175TIP3   OH227939   0.809   2.454   3.952 -0.1102  0.2433 -0.1176
 2175TIP3    H127940   0.730   2.404   3.933  0.3389  0.1281 -1.7324
 2175TIP3    H227941   0.787   2.504   4.031 -0.4831 -2.6203  1.6628
 2176TIP3   OH227942   1.588   4.274   0.289 -0.4817 -0.0773  0.1130
 2176TIP3    H127943   1.673   4.235   0.307 -0.2580 -0.3049 -1.3847
 2176TIP3    H227944   1.607   4.351   0.237 -1.0813  0.8775  1.2697
 2177TIP3   OH227945   3.415   0.965  11.617  0.1717 -0.2393 -0.1572
 2177TIP3    H127946   3.461   0.896  11.666 -0.0552 -0.1032  0.2469
 2177TIP3    H227947   3.399   0.926  11.531  1.4844 -0.1130 -0.4683
 2178TIP3   OH227948   2.731   1.320   6.615 -1.1011  0.1960 -0.1182
 2178TIP3    H127949   2.819   1.311   6.653 -0.3584 -1.8247 -2.1857
 2178TIP3    H227950   2.689   1.235   6.632 -0.8673 -0.6417 -3.4041
 2179TIP3   OH227951   5.088   4.860   4.948  0.0010 -0.4027 -0.7917
 2179TIP3    H127952   4.993   4.868   4.953  0.2170  1.5027  0.6095
 2179TIP3    H227953   5.104   4.765   4.943 -1.8830 -0.8092  0.5161
 2180TIP3   OH227954   6.443   6.783  12.406 -0.3672 -0.2357  0.3103
 2180TIP3    H127955   6.451   6.762  12.313  0.9718 -0.2675  0.4234
 2180TIP3    H227956   6.372   6.727  12.437 -0.5341 -0.5419 -0.5958
 2181TIP3   OH227957   3.024   3.498   1.089  0.6520 -0.1620 -0.5566
 2181TIP3    H127958   3.019   3.425   1.028 -0.9369 -0.5482  0.0124
 2181TIP3    H227959   3.037   3.456   1.175  1.5796  0.3121 -0.4607
 2182TIP3   OH227960   1.554   0.322  13.419  0.2119  0.0079  0.3641
 2182TIP3    H127961   1.561   0.261  13.346 -0.4292 -0.8492  1.0018
 2182TIP3    H227962   1.464   0.355  13.414  0.2971  0.2629  0.5134
 2183TIP3   OH227963   0.891   3.635  15.144 -0.2045 -0.0048  0.1255
 2183TIP3    H127964   0.932   3.707  15.191  2.8705 -0.4310 -1.8250
 2183TIP3    H227965   0.815   3.675  15.101  2.1049  2.3494 -1.8705
 2184TIP3   OH227966   1.226   4.639   3.878 -0.1399  0.0444 -0.0890
 2184TIP3    H127967   1.190   4.589   3.805 -0.6408 -0.1618  0.2915
 2184TIP3    H227968   1.320   4.618   3.878 -0.1773 -0.1191 -0.5400
 2185TIP3   OH227969   0.549   0.074  15.439 -0.2322  0.4621  0.1533
 2185TIP3    H127970   0.624   0.066  15.498  1.5472 -3.4119 -2.3716
 2185TIP3    H227971   0.520  -0.016  15.426 -2.1178  1.4381 -2.8587
 2186TIP3   OH227972   5.874   1.725  11.945 -0.3087  0.2386  0.4575
 2186TIP3    H127973   5.798   1.671  11.925  0.6235 -2.3658  3.6193
 2186TIP3    H227974   5.947   1.664  11.949  1.4818  2.2974  0.3598
 2187TIP3   OH227975   0.591   1.434   4.433 -0.0692 -0.4037  0.5079
 2187TIP3    H127976   0.502   1.460   4.458  1.2223  2.2554  2.6560
 2187TIP3    H227977   0.613   1.490   4.359 -0.3308 -1.3881 -0.3243
 2188TIP3   OH227978   2.429   3.865  17.216 -0.1616 -0.1962 -0.2516
 2188TIP3    H127979   2.361   3.830  17.158  1.0900  0.1830 -1.9975
 2188TIP3    H227980   2.511   3.835  17.176  0.7591  1.0565  0.6776
 2189TIP3   OH227981   0.472   4.976  16.428  0.3523 -0.2964  0.1005
 2189TIP3    H127982   0.443   4.986  16.519  2.0455 -0.5704  0.7019
 2189TIP3    H227983   0.560   5.013  16.428  1.1541 -2.1416 -0.9507
 2190TIP3   OH227984   5.323   0.467   5.825 -0.4102 -0.0263  0.2620
 2190TIP3    H127985   5.298   0.480   5.733 -0.3717  1.3642  0.4371
 2190TIP3    H227986   5.322   0.556   5.862 -0.5136 -0.5962  1.6246
 2191TIP3   OH227987   3.388   5.131  15.683 -0.1851 -0.1686  0.5328
 2191TIP3    H127988   3.405   5.070  15.754  1.0037  0.7815  1.0709
 2191TIP3    H227989   3.462   5.121  15.624  0.8316  1.8706  1.4198
 2192TIP3   OH227990   3.338   2.417   5.971  0.6537 -0.6875  0.1141
 2192TIP3    H127991   3.363   2.448   5.884 -1.3301 -0.2893 -0.3534
 2192TIP3    H227992   3.374   2.482   6.031 -0.9515  0.9815 -0.6746
 2193TIP3   OH227993   3.151   6.684  14.424  0.1505 -0.4025 -0.0704
 2193TIP3    H127994   3.171   6.592  14.437 -2.2249 -1.2949 -2.2291
 2193TIP3    H227995   3.096   6.707  14.499 -0.2699 -1.0900 -0.1601
 2194TIP3   OH227996   5.088   5.800   2.767 -0.7531  0.0757 -0.8016
 2194TIP3    H127997   5.058   5.749   2.693  1.0797 -0.3564 -1.2792
 2194TIP3    H227998   5.041   5.764   2.842 -0.0290 -1.8305 -1.2467
 2195TIP3   OH227999   3.233   5.621   2.450 -0.1059  0.2589 -0.5115
 2195TIP3    H128000   3.187   5.689   2.500 -0.9915  0.5995 -1.7502
 2195TIP3    H228001   3.213   5.641   2.358  2.2947  0.2423 -1.0785
 2196TIP3   OH228002   3.785   5.013  14.683  0.1229 -0.0952  0.2097
 2196TIP3    H128003   3.850   5.034  14.616  2.4438  0.3865  2.5556
 2196TIP3    H228004   3.748   4.929  14.654  0.1161  0.7284 -2.3365
 2197TIP3   OH228005   5.137   4.076   3.612  1.1647 -0.5282  0.2605
 2197TIP3    H128006   5.172   4.138   3.676  0.1234 -0.5445  0.8476
 2197TIP3    H228007   5.215   4.038   3.571  1.8265  0.1261  0.8879
 2198TIP3   OH228008   0.186   5.818  13.691 -0.0028  0.1618 -0.1527
 2198TIP3    H128009   0.098   5.849  13.716  0.3983  0.7701  0.5335
 2198TIP3    H228010   0.211   5.759  13.761 -1.3957 -3.0102 -2.2193
 2199TIP3   OH228011   4.622   3.651  16.525 -0.9152  0.0145  0.6222
 2199TIP3    H128012   4.558   3.669  16.457 -0.6044  1.6481  0.7445
 2199TIP3    H228013   4.635   3.735  16.569  1.2294 -0.2946  0.6538
 2200TIP3   OH228014   2.052   6.596  16.069  0.3752  0.3655  0.1115
 2200TIP3    H128015   1.988   6.643  16.016  0.8102 -0.6605 -1.3726
 2200TIP3    H228016   2.043   6.633  16.157  0.3964  2.8560 -0.9110
 2201TIP3   OH228017   2.985   1.574   2.254 -0.1333  0.3923 -0.1726
 2201TIP3    H128018   2.953   1.542   2.338 -1.8824  0.6175 -0.7372
 2201TIP3    H228019   2.949   1.662   2.246  0.5096  0.6007 -0.8901
 2202TIP3   OH228020   0.199   5.107   4.249 -0.1424  0.5790 -0.4859
 2202TIP3    H128021   0.239   5.020   4.259 -0.6721  0.1775 -1.8474
 2202TIP3    H228022   0.222   5.153   4.330 -0.8918 -1.2361  0.7769
 2203TIP3   OH228023   0.930   4.275   2.030  0.4910 -0.0399  0.3072
 2203TIP3    H128024   1.019   4.309   2.029  0.1020  1.0039  0.0660
 2203TIP3    H228025   0.880   4.340   2.080 -0.4083  0.1253 -0.7656
 2204TIP3   OH228026   1.102   6.167   3.263 -0.1084  0.3963 -0.6036
 2204TIP3    H128027   1.131   6.103   3.198 -1.2348  1.4128 -2.1539
 2204TIP3    H228028   1.170   6.234   3.262  0.0743  0.2137 -0.4427
 2205TIP3   OH228029   0.957   3.387   1.020  0.1496  0.1074 -0.7001
 2205TIP3    H128030   0.938   3.359   1.109  2.1942  0.2994 -0.1892
 2205TIP3    H228031   0.985   3.307   0.975  0.5508  0.2880 -0.7688
 2206TIP3   OH228032   3.942   5.121   0.499 -0.0287  0.0390  0.1669
 2206TIP3    H128033   3.934   5.142   0.592  1.6495 -0.5737  0.4820
 2206TIP3    H228034   4.020   5.169   0.470  0.5037 -1.1873 -0.4768
 2207TIP3   OH228035   0.404   6.085  15.628  0.2000  1.2028 -0.2725
 2207TIP3    H128036   0.484   6.135  15.619  1.4275 -0.4294  1.2308
 2207TIP3    H228037   0.381   6.092  15.721  1.5005 -2.5467  0.4257
 2208TIP3   OH228038   5.364   1.558  11.056 -0.1331 -0.2565 -0.0742
 2208TIP3    H128039   5.287   1.562  10.999  0.5294  0.1714 -0.9531
 2208TIP3    H228040   5.334   1.594  11.140 -0.7127  0.5131 -0.6083
 2209TIP3   OH228041   1.599   6.716  13.471 -0.8269  0.0859  0.0912
 2209TIP3    H128042   1.503   6.714  13.476 -0.9103  0.0169 -1.2065
 2209TIP3    H228043   1.626   6.627  13.495 -1.1946 -0.3546 -1.0733
 2210TIP3   OH228044   0.423   4.257   5.367  0.1376 -0.0868  0.2456
 2210TIP3    H128045   0.375   4.325   5.415 -0.1420 -1.8982  2.6370
 2210TIP3    H228046   0.371   4.242   5.288 -1.1000  0.7601  0.8798
 2211TIP3   OH228047   1.004   4.926   0.168  0.0436 -0.0620  0.3048
 2211TIP3    H128048   1.003   5.011   0.126 -0.4808 -0.7485 -1.1094
 2211TIP3    H228049   0.967   4.866   0.103 -0.5337 -1.2011  1.6385
 2212TIP3   OH228050   6.012   5.140   6.209 -0.7010 -0.4481  0.1700
 2212TIP3    H128051   5.977   5.212   6.262 -0.9529 -1.1769  1.0146
 2212TIP3    H228052   6.077   5.098   6.266  2.1425  1.3375 -1.6250
 2213TIP3   OH228053   1.342   5.940  11.493  0.4122  0.4107 -0.1977
 2213TIP3    H128054   1.424   5.944  11.543  0.8054 -0.9267 -0.7160
 2213TIP3    H228055   1.321   6.031  11.475 -0.2620  1.0278  3.2791
 2214TIP3   OH228056   0.797   1.886   4.776 -0.3376 -0.2792 -0.8676
 2214TIP3    H128057   0.774   1.812   4.721 -1.4536  0.9283 -2.0741
 2214TIP3    H228058   0.882   1.915   4.743 -0.6479 -0.0330 -1.4523
 2215TIP3   OH228059   4.612   5.795  16.638  0.0289 -0.4626  0.8709
 2215TIP3    H128060   4.618   5.890  16.628  3.7200 -0.6253  0.7004
 2215TIP3    H228061   4.559   5.766  16.564 -0.9901  1.4412  0.8348
 2216TIP3   OH228062   4.230   1.594   4.588  0.5442 -0.2847  0.2701
 2216TIP3    H128063   4.201   1.647   4.662  0.3187 -0.6486  0.4440
 2216TIP3    H228064   4.150   1.569   4.542  0.7334  0.5076 -0.4907
 2217TIP3   OH228065   0.900   3.971   1.665  0.4687  0.1306 -0.2276
 2217TIP3    H128066   0.886   4.058   1.629  0.1394  0.3069  0.3242
 2217TIP3    H228067   0.972   3.935   1.613  0.0830  0.4225 -0.9834
 2218TIP3   OH228068   2.245   6.574   0.797  0.3057 -0.0071  0.4290
 2218TIP3    H128069   2.157   6.551   0.765  1.1336 -1.0218 -1.1954
 2218TIP3    H228070   2.231   6.600   0.888 -1.7479  0.2895  0.0617
 2219TIP3   OH228071   0.899   5.294   4.063  1.0656  0.4748 -0.9000
 2219TIP3    H128072   0.874   5.288   3.970  1.9505 -0.8659 -1.0714
 2219TIP3    H228073   0.968   5.229   4.073  0.9872  0.6247  0.7143
 2220TIP3   OH228074   5.969   4.340   2.837 -0.7155 -0.0578 -0.2626
 2220TIP3    H128075   5.881   4.328   2.801 -0.4830 -0.7020 -0.6194
 2220TIP3    H228076   6.018   4.265   2.805  0.0947  0.5495 -0.4596
 2221TIP3   OH228077   1.780   2.531   0.197  0.3828 -0.1556 -0.1454
 2221TIP3    H128078   1.720   2.587   0.148  1.2831 -0.6197 -1.7927
 2221TIP3    H228079   1.802   2.583   0.275 -0.4644  0.9024 -0.5956
 2222TIP3   OH228080   3.616   3.459   2.510 -0.6861  0.0698  0.1458
 2222TIP3    H128081   3.534   3.478   2.556 -0.3291  0.7490  0.5090
 2222TIP3    H228082   3.682   3.512   2.555  0.2848 -1.8000  0.9758
 2223TIP3   OH228083   6.698   0.622  13.733 -0.4895 -0.1685 -0.1211
 2223TIP3    H128084   6.746   0.576  13.664 -0.9080 -2.5172  1.0667
 2223TIP3    H228085   6.693   0.558  13.804 -3.0322  0.9946  0.8069
 2224TIP3   OH228086   2.496   3.810   1.494  0.1702  0.2447 -0.5761
 2224TIP3    H128087   2.549   3.730   1.497 -1.2146 -0.7707 -2.1887
 2224TIP3    H228088   2.456   3.815   1.581 -0.7278 -1.5414 -0.8590
 2225TIP3   OH228089   1.836   4.205  13.941  0.3929 -0.3578 -0.3083
 2225TIP3    H128090   1.851   4.299  13.939  0.8345 -0.4115  0.4061
 2225TIP3    H228091   1.764   4.193  14.003  2.9470 -0.8231  2.6504
 2226TIP3   OH228092   3.439   6.005  11.293  0.7138  0.0916  0.6227
 2226TIP3    H128093   3.386   6.000  11.372  0.3663 -1.3173  0.3128
 2226TIP3    H228094   3.407   6.083  11.248  0.0239  0.1649  1.2349
 2227TIP3   OH228095   5.120   3.187   1.295  0.4211 -0.3196  0.3695
 2227TIP3    H128096   5.095   3.251   1.228  0.0868 -0.6850  0.1394
 2227TIP3    H228097   5.208   3.158   1.270 -0.5012 -1.9813 -1.1050
 2228TIP3   OH228098   1.784   0.789   4.306 -0.4918  0.4725 -0.1923
 2228TIP3    H128099   1.696   0.769   4.273 -0.6928  0.2402  0.4581
 2228TIP3    H228100   1.776   0.877   4.342 -0.6102  0.2463  0.3536
 2229TIP3   OH228101   1.886   4.363  17.217 -0.4813 -0.8551 -0.3164
 2229TIP3    H128102   1.805   4.314  17.225  0.8610 -3.1167 -0.1697
 2229TIP3    H228103   1.913   4.379  17.307 -0.2363 -1.0111 -0.3628
 2230TIP3   OH228104   6.447   6.043  15.650  0.1074 -0.3224  0.3251
 2230TIP3    H128105   6.353   6.051  15.665 -0.0672 -1.3013 -0.2123
 2230TIP3    H228106   6.471   5.961  15.693  0.5864 -0.4444 -0.1740
 2231TIP3   OH228107   4.081   6.723  16.546 -0.3278 -0.0635  0.2055
 2231TIP3    H128108   4.083   6.633  16.579 -0.8297 -1.0323 -2.2796
 2231TIP3    H228109   4.173   6.749  16.543 -0.0780 -0.9471 -0.1726
 2232TIP3   OH228110   4.924   2.317  12.862 -0.5445 -0.1922 -0.0947
 2232TIP3    H128111   4.836   2.278  12.853 -0.8141  0.6912 -1.4740
 2232TIP3    H228112   4.983   2.247  12.833 -0.9433 -0.0317 -1.3234
 2233TIP3   OH228113   3.548   6.642  12.548  0.0820  0.6418 -0.5103
 2233TIP3    H128114   3.461   6.660  12.584  0.5897  1.4455  0.3449
 2233TIP3    H228115   3.533   6.628  12.455 -0.7632  2.3306 -0.6569
 2234TIP3   OH228116   2.277   1.061   5.574  0.6143 -0.1400 -0.3029
 2234TIP3    H128117   2.236   0.975   5.576  3.2069 -1.4178  0.0340
 2234TIP3    H228118   2.280   1.089   5.665 -2.4111  1.4495 -0.6196
 2235TIP3   OH228119   3.774   5.666  14.506 -0.0983 -0.3284  0.1903
 2235TIP3    H128120   3.850   5.706  14.550  0.3420  0.6085 -1.3799
 2235TIP3    H228121   3.720   5.633  14.578  1.3178 -0.1468  1.3800
 2236TIP3   OH228122   6.502   4.893  15.911  0.5387 -0.2497  0.3246
 2236TIP3    H128123   6.438   4.949  15.955  0.3442  0.1110 -0.4213
 2236TIP3    H228124   6.450   4.827  15.866  0.6927  0.1280 -0.3999
 2237TIP3   OH228125   2.320   1.628   0.732  0.3051  0.1533 -0.7286
 2237TIP3    H128126   2.327   1.644   0.826  0.5229  2.5486 -1.1278
 2237TIP3    H228127   2.268   1.548   0.725 -1.2068  0.9048  1.3796
 2238TIP3   OH228128   2.941   1.852   5.264  0.3908  0.5557 -0.4379
 2238TIP3    H128129   2.874   1.918   5.277 -0.4746 -0.1708 -1.1361
 2238TIP3    H228130   3.023   1.901   5.261  0.0586  1.3155  1.8888
 2239TIP3   OH228131   4.103   1.455   1.035  0.6453 -0.4679  0.8480
 2239TIP3    H128132   4.014   1.425   1.057  1.3606 -2.3831  1.2065
 2239TIP3    H228133   4.137   1.490   1.118  0.9311 -1.5404  1.1853
 2240TIP3   OH228134   3.579   1.647  13.784  0.4378  0.1967 -0.2251
 2240TIP3    H128135   3.495   1.608  13.807  0.5328 -0.9218 -1.7292
 2240TIP3    H228136   3.557   1.729  13.740  0.1362 -0.1106 -0.6423
 2241TIP3   OH228137   3.923   1.967  11.271 -0.1760  0.6078 -0.0541
 2241TIP3    H128138   3.855   2.020  11.229  0.1351  0.2988 -0.9525
 2241TIP3    H228139   3.972   2.030  11.325 -0.0812  1.1606 -0.7790
 2242TIP3   OH228140   0.347   1.498   3.933  0.3646  0.3124  0.6682
 2242TIP3    H128141   0.398   1.578   3.919  1.6674 -0.8535 -1.6022
 2242TIP3    H228142   0.408   1.439   3.978  0.2499 -0.2600  0.0756
 2243TIP3   OH228143   4.735   2.048   4.783  0.0336  0.5537  0.4991
 2243TIP3    H128144   4.671   2.113   4.812 -0.1908  0.7877 -0.5077
 2243TIP3    H228145   4.710   2.028   4.693  0.9762  0.1436  0.3237
 2244TIP3   OH228146   4.682   5.627   0.609  0.4264 -0.1788  0.1985
 2244TIP3    H128147   4.648   5.627   0.698 -0.5251 -3.2669 -0.0997
 2244TIP3    H228148   4.750   5.559   0.610  2.1816  1.5162 -0.8142
 2245TIP3   OH228149   1.749   5.077   5.299 -0.5253  0.0952  0.0540
 2245TIP3    H128150   1.787   5.043   5.218 -0.4663  0.1799  0.0451
 2245TIP3    H228151   1.819   5.067   5.364 -0.9993 -1.1411  0.3865
 2246TIP3   OH228152   0.725   6.617   0.817 -0.1453 -0.0290  0.0351
 2246TIP3    H128153   0.738   6.548   0.881 -1.4448 -1.4244 -1.1797
 2246TIP3    H228154   0.693   6.692   0.868 -2.7157 -1.6085  0.8170
 2247TIP3   OH228155   1.501   2.616   3.214  0.2872  0.2540  0.1608
 2247TIP3    H128156   1.437   2.576   3.154  0.5635  1.4627 -0.9519
 2247TIP3    H228157   1.493   2.710   3.198  1.8978  0.4507  0.4724
 2248TIP3   OH228158   6.596   4.781  13.016 -0.1497 -0.4267  0.0350
 2248TIP3    H128159   6.632   4.694  13.034  1.7454  0.7089  1.9348
 2248TIP3    H228160   6.656   4.818  12.950 -0.9066 -0.5075 -0.7086
 2249TIP3   OH228161   6.335   4.012  15.806  0.5549 -0.4584  1.0679
 2249TIP3    H128162   6.362   4.006  15.898  0.9072  0.8039  1.0549
 2249TIP3    H228163   6.363   4.100  15.778  1.0187 -1.0522 -0.4227
 2250TIP3   OH228164   0.759   2.481  13.454 -0.0783 -0.0827 -0.7513
 2250TIP3    H128165   0.792   2.396  13.483  1.0544 -0.1238 -2.1011
 2250TIP3    H228166   0.669   2.484  13.486  0.2475 -1.2926  0.3209
 2251TIP3   OH228167   1.397   1.746  15.904  0.2991 -0.5045 -0.0216
 2251TIP3    H128168   1.323   1.695  15.937  2.1615 -1.7473  2.3974
 2251TIP3    H228169   1.440   1.688  15.841  0.2974 -0.4919 -0.0345
 2252TIP3   OH228170   5.935   4.706   6.243 -0.1636 -0.2125  0.3837
 2252TIP3    H128171   5.894   4.624   6.214 -1.9843  0.6817  0.3337
 2252TIP3    H228172   5.900   4.772   6.183  1.8327  0.5079 -0.0168
 2253TIP3   OH228173   0.126   3.438  15.058  0.2576 -0.1112  0.4260
 2253TIP3    H128174   0.186   3.507  15.029  0.2986 -0.4365 -0.2608
 2253TIP3    H228175   0.045   3.485  15.079  0.6226  0.2798  0.9947
 2254TIP3   OH228176   3.650   3.194  16.966 -0.5510  0.3689  0.0832
 2254TIP3    H128177   3.651   3.109  17.012  0.8141 -0.4318 -1.3903
 2254TIP3    H228178   3.575   3.188  16.907 -0.2817  0.0699 -0.2299
 2255TIP3   OH228179   2.422   6.263   3.116 -0.5445  0.0997 -0.0347
 2255TIP3    H128180   2.448   6.333   3.056  2.5854 -0.8843  0.0819
 2255TIP3    H228181   2.485   6.193   3.099 -1.2235 -1.1912  2.5800
 2256TIP3   OH228182   5.497   2.956   5.833  0.5132 -0.0809 -0.1084
 2256TIP3    H128183   5.409   2.926   5.811  0.3345  0.8630 -0.7158
 2256TIP3    H228184   5.555   2.890   5.794  0.1244  0.2373 -1.2549
 2257TIP3   OH228185   5.907   3.859   4.044  0.2609  0.4060  0.1937
 2257TIP3    H128186   5.916   3.837   3.952  0.8954  0.9737  0.1201
 2257TIP3    H228187   5.820   3.825   4.068  0.4939 -0.5936 -0.3558
 2258TIP3   OH228188   4.582   0.599   1.723 -0.3556 -0.6481 -0.0932
 2258TIP3    H128189   4.507   0.621   1.668 -2.7983 -2.8694  2.2462
 2258TIP3    H228190   4.578   0.662   1.795  2.1237  1.4467 -1.6525
 2259TIP3   OH228191   4.676   4.701   3.896 -0.1910  0.4937 -0.0857
 2259TIP3    H128192   4.733   4.772   3.866 -1.2853  1.4739  0.1475
 2259TIP3    H228193   4.643   4.731   3.980  1.9280 -1.7195  1.6200
 2260TIP3   OH228194   3.204   6.777  15.794  0.3739  0.5738  0.2021
 2260TIP3    H128195   3.120   6.823  15.803  0.4114  0.5947  0.4701
 2260TIP3    H228196   3.207   6.749  15.703 -0.8234 -1.1670  0.6734
 2261TIP3   OH228197   1.920   1.624  12.022  0.0174 -0.5643  0.7058
 2261TIP3    H128198   1.941   1.550  11.965 -0.2471 -1.9974  2.4292
 2261TIP3    H228199   1.853   1.591  12.081  0.4435  0.8149  1.9971
 2262TIP3   OH228200   1.424   2.846  16.750  0.1919 -0.3804  0.9797
 2262TIP3    H128201   1.340   2.801  16.761 -1.0884  1.7083  0.1129
 2262TIP3    H228202   1.429   2.905  16.825  0.2015  0.5041  0.2924
 2263TIP3   OH228203   1.495   0.165   2.822  0.3522  0.7919 -0.0899
 2263TIP3    H128204   1.545   0.178   2.741 -0.3274  0.0681 -0.6200
 2263TIP3    H228205   1.506   0.073   2.843 -0.9033  0.5932 -0.2955
 2264TIP3   OH228206   5.650   2.441  16.661  0.1470 -0.7565 -0.1532
 2264TIP3    H128207   5.646   2.477  16.573  1.3614 -0.9690 -0.2983
 2264TIP3    H228208   5.558   2.433  16.688 -0.2513 -1.4503 -1.6937
 2265TIP3   OH228209   4.439   5.161  11.395  0.5810  0.1333 -0.6201
 2265TIP3    H128210   4.360   5.162  11.342  0.3582  0.3769 -0.2876
 2265TIP3    H228211   4.439   5.075  11.437 -2.3835  2.0281  3.6283
 2266TIP3   OH228212   6.048   6.636   1.358  0.1216  0.4369  0.2118
 2266TIP3    H128213   5.955   6.615   1.362  0.1777  0.4157  1.5717
 2266TIP3    H228214   6.076   6.606   1.271 -0.7721 -1.0355  0.4198
 2267TIP3   OH228215   3.792   1.876  16.734  0.7082 -0.3066  0.5194
 2267TIP3    H128216   3.710   1.866  16.783  1.2971 -0.0735  1.5769
 2267TIP3    H228217   3.824   1.787  16.722  1.0159 -0.3168  1.3670
 2268TIP3   OH228218   2.433   3.152  12.913  0.0491  0.2619  0.0348
 2268TIP3    H128219   2.369   3.183  12.976  0.1110 -0.2059  0.3325
 2268TIP3    H228220   2.515   3.196  12.936  0.2390 -0.4304  0.7182
 2269TIP3   OH228221   3.280   6.027   0.755  0.3090  0.5149 -0.6786
 2269TIP3    H128222   3.335   5.958   0.719 -1.0989 -0.4239 -1.0676
 2269TIP3    H228223   3.193   6.010   0.719  0.0032  2.7044 -1.0670
 2270TIP3   OH228224   5.125   5.716   1.239 -0.1172 -0.9403  0.2400
 2270TIP3    H128225   5.039   5.721   1.281 -0.4325  1.3956 -0.6034
 2270TIP3    H228226   5.108   5.736   1.147  1.3806  0.0773  0.1622
 2271TIP3   OH228227   5.478   1.122  15.435  0.3417  0.1123 -0.1783
 2271TIP3    H128228   5.445   1.106  15.346 -1.8373  2.1403  0.2319
 2271TIP3    H228229   5.427   1.062  15.490 -0.9735  1.4791  0.1357
 2272TIP3   OH228230   2.505   3.825  14.535 -0.8810 -0.3129 -0.0196
 2272TIP3    H128231   2.574   3.762  14.513  0.4362  0.4336  1.7489
 2272TIP3    H228232   2.463   3.788  14.613 -0.5842  0.6205  0.5938
 2273TIP3   OH228233   3.017   3.317   5.262  0.2583 -0.2194 -0.9361
 2273TIP3    H128234   3.016   3.222   5.271  0.8726 -0.0966  0.6161
 2273TIP3    H228235   3.099   3.337   5.217  0.3484 -0.3872 -0.8430
 2274TIP3   OH228236   3.360   2.969  12.693 -0.1955 -0.0777  0.1909
 2274TIP3    H128237   3.276   2.952  12.736 -0.4938  2.6129  0.8133
 2274TIP3    H228238   3.395   3.046  12.739  3.1629 -1.8256  0.6897
 2275TIP3   OH228239   5.998   3.201   5.606 -0.0207 -0.3012  0.2793
 2275TIP3    H128240   6.047   3.127   5.642  0.8400 -0.1674 -0.6179
 2275TIP3    H228241   6.064   3.268   5.587 -0.5850  0.0171 -0.5962
 2276TIP3   OH228242   5.287   5.428   5.764 -0.0428 -1.1040  0.7217
 2276TIP3    H128243   5.245   5.342   5.767  1.3894 -1.7785  2.4505
 2276TIP3    H228244   5.379   5.410   5.743 -0.3087  0.2591 -1.8449
 2277TIP3   OH228245   5.316   0.552  11.051  0.4663  0.3040  0.6445
 2277TIP3    H128246   5.271   0.569  10.968  1.8919 -2.0452 -0.6781
 2277TIP3    H228247   5.249   0.513  11.107 -0.8317  3.0610  1.0736
 2278TIP3   OH228248   5.286   4.355  15.210 -0.3521  0.6054  0.5579
 2278TIP3    H128249   5.258   4.271  15.246 -0.6174  0.6222  0.3909
 2278TIP3    H228250   5.216   4.379  15.149 -0.3283  0.9968  0.6846
 2279TIP3   OH228251   5.549   1.144   1.019 -0.1998 -0.0876 -0.4085
 2279TIP3    H128252   5.526   1.234   1.041 -1.0782 -0.2165 -0.7638
 2279TIP3    H228253   5.636   1.131   1.056 -0.5515  0.5443  0.6646
 2280TIP3   OH228254   5.966   3.190   1.125  0.7318  0.4711 -0.0795
 2280TIP3    H128255   6.048   3.141   1.128 -0.2022 -1.0932  0.7942
 2280TIP3    H228256   5.964   3.237   1.208 -0.6643 -1.9293  1.3203
 2281TIP3   OH228257   5.046   4.565  15.231 -0.3258 -0.5307 -0.7066
 2281TIP3    H128258   5.053   4.487  15.285  0.6281  0.7251  1.0393
 2281TIP3    H228259   5.064   4.534  15.142  3.2567 -1.7845  0.3740
 2282TIP3   OH228260   2.643   1.399  13.577 -0.5181  0.2174  0.3891
 2282TIP3    H128261   2.608   1.362  13.658 -0.1122 -1.1904 -0.0593
 2282TIP3    H228262   2.620   1.335  13.509  1.3992  0.1009 -0.1852
 2283TIP3   OH228263   5.983   2.369   4.497 -0.1752 -0.0170  0.1574
 2283TIP3    H128264   6.058   2.420   4.527 -0.3179 -0.1890  0.8152
 2283TIP3    H228265   5.926   2.432   4.454  1.6465 -0.3326 -2.8688
 2284TIP3   OH228266   6.375   5.332   4.529 -0.3902  0.7154  0.2639
 2284TIP3    H128267   6.287   5.311   4.498 -0.2657  0.1662  0.2684
 2284TIP3    H228268   6.364   5.354   4.621 -0.1957 -1.9358  0.9773
 2285TIP3   OH228269   4.460   3.788   0.416  0.9459  0.1728  0.1899
 2285TIP3    H128270   4.438   3.881   0.413  0.5241  0.1513  1.6822
 2285TIP3    H228271   4.376   3.744   0.402  0.9860  0.0401  0.3593
 2286TIP3   OH228272   5.651   6.026  12.112  0.4276 -0.2530 -0.2571
 2286TIP3    H128273   5.584   5.960  12.096 -0.3020  0.2669  0.5845
 2286TIP3    H228274   5.604   6.110  12.104  1.0381  0.1209  0.0163
 2287TIP3   OH228275   4.266   6.119  16.280 -0.0056  0.0185 -0.1173
 2287TIP3    H128276   4.192   6.141  16.223 -0.7838  0.6773  1.1309
 2287TIP3    H228277   4.335   6.179  16.253  0.0146 -0.4323 -1.1229
 2288TIP3   OH228278   6.153   6.671   5.079 -0.0697  0.6322  0.6219
 2288TIP3    H128279   6.155   6.766   5.071 -3.5228  0.7277  0.0010
 2288TIP3    H228280   6.141   6.655   5.172  0.9098  0.8096  0.7741
 2289TIP3   OH228281   2.030   0.915  11.245 -0.4773 -0.2122  0.0003
 2289TIP3    H128282   1.950   0.900  11.296  0.0348 -1.2318  0.5266
 2289TIP3    H228283   2.000   0.962  11.167 -1.3375  0.8839  0.9811
 2290TIP3   OH228284   3.926   5.083  12.735 -0.0054  0.0227 -0.4306
 2290TIP3    H128285   4.021   5.071  12.728 -0.0788 -0.6358 -0.3043
 2290TIP3    H228286   3.901   5.119  12.650  0.1305 -1.3037 -1.0482
 2291TIP3   OH228287   3.197   1.970   5.288  0.3148 -0.3816  0.2741
 2291TIP3    H128288   3.261   2.041   5.282  0.4047 -0.5251 -0.5347
 2291TIP3    H228289   3.246   1.891   5.266 -0.0547 -0.5338 -0.0194
 2292TIP3   OH228290   2.146   5.193  11.887  0.1132 -0.2192  0.3066
 2292TIP3    H128291   2.095   5.125  11.845 -0.6777  0.7954 -0.4032
 2292TIP3    H228292   2.237   5.162  11.883  0.1239  0.0629 -2.5781
 2293TIP3   OH228293   6.565   6.620  15.554  0.1022 -0.2173  0.0999
 2293TIP3    H128294   6.559   6.525  15.551  1.5869 -0.3188 -0.6081
 2293TIP3    H228295   6.642   6.638  15.608  0.5201  0.5294 -0.7118
 2294TIP3   OH228296   4.624   2.757  13.495  0.0657  0.5276  0.3160
 2294TIP3    H128297   4.674   2.689  13.539  0.6255  0.8997  0.2766
 2294TIP3    H228298   4.554   2.779  13.555 -0.5126 -0.5451  0.0428
 2295TIP3   OH228299   3.664   4.008  12.038  0.2582 -0.1306 -0.0764
 2295TIP3    H128300   3.665   4.104  12.041  2.1735 -0.0914 -0.7960
 2295TIP3    H228301   3.742   3.983  12.088 -0.0696 -1.3029 -0.1449
 2296TIP3   OH228302   2.178   0.791   5.866  0.1132  0.0786  0.2301
 2296TIP3    H128303   2.238   0.746   5.806  0.1127  0.1675  0.1618
 2296TIP3    H228304   2.231   0.856   5.910 -0.1657  0.9206 -0.6482
 2297TIP3   OH228305   2.076   6.591  14.675 -0.0352  0.2983  0.2156
 2297TIP3    H128306   2.143   6.612  14.610  2.5337 -0.1851  2.6182
 2297TIP3    H228307   2.051   6.500  14.655  0.1416  0.4197 -0.5793
 2298TIP3   OH228308   2.205   6.214  16.289  0.0641  0.0413 -0.0331
 2298TIP3    H128309   2.181   6.251  16.204 -1.7367 -1.9720 -0.4615
 2298TIP3    H228310   2.165   6.273  16.353  2.1442  2.0404 -0.5444
 2299TIP3   OH228311   2.166   4.235  12.196  0.1762  0.4977  0.1844
 2299TIP3    H128312   2.133   4.157  12.151  0.3777  0.4056  0.1986
 2299TIP3    H228313   2.095   4.259  12.256  0.6918 -0.5048  1.2139
 2300TIP3   OH228314   3.471   6.028   2.786 -0.0670 -0.0157  0.0271
 2300TIP3    H128315   3.391   5.976   2.779 -1.7072  2.1417  1.8913
 2300TIP3    H228316   3.516   5.993   2.862  0.6765 -1.0681 -0.8773
 2301TIP3   OH228317   0.525   4.299   2.459 -0.4217  0.7988 -0.2112
 2301TIP3    H128318   0.547   4.383   2.498 -0.6822  1.1003 -0.7027
 2301TIP3    H228319   0.444   4.273   2.504 -0.8690  1.2738 -0.7284
 2302TIP3   OH228320   2.919   1.741   4.524  0.3391  0.0062 -0.0151
 2302TIP3    H128321   2.935   1.835   4.530  1.2055 -0.2086  1.4439
 2302TIP3    H228322   2.824   1.732   4.527  0.2636  0.8329  0.0004
 2303TIP3   OH228323   3.688   3.688  13.403  0.1080 -0.2629 -0.3799
 2303TIP3    H128324   3.769   3.674  13.354 -0.2517 -0.6461 -0.8638
 2303TIP3    H228325   3.678   3.783  13.406  0.0668 -0.2419 -1.1587
 2304TIP3   OH228326   2.614   4.964  13.873  0.0242  0.0705 -0.4374
 2304TIP3    H128327   2.543   4.910  13.908 -0.1551 -0.2403 -1.2801
 2304TIP3    H228328   2.603   4.960  13.778  1.9594 -1.0623 -0.6406
 2305TIP3   OH228329   3.072   6.284   3.692  0.3030 -0.6257 -0.8363
 2305TIP3    H128330   3.021   6.337   3.631  0.0110 -1.2436 -1.1302
 2305TIP3    H228331   3.126   6.347   3.739 -1.9017  0.2642  0.6414
 2306TIP3   OH228332   4.395   0.050  14.310 -0.3763 -0.7010  0.1068
 2306TIP3    H128333   4.376   0.075  14.219  0.2141 -0.1164  0.1396
 2306TIP3    H228334   4.428   0.130  14.350 -2.2480 -0.5000  1.3169
 2307TIP3   OH228335   4.521   6.389   0.731  0.1641  0.3042  0.0905
 2307TIP3    H128336   4.523   6.389   0.635 -1.0227  0.0927  0.0521
 2307TIP3    H228337   4.540   6.479   0.756  1.1478  0.2178 -0.3195
 2308TIP3   OH228338   2.173   6.211  12.482  0.3628  0.2207 -0.1855
 2308TIP3    H128339   2.096   6.192  12.535  1.0987  0.4757  0.9924
 2308TIP3    H228340   2.153   6.296  12.441  0.1952  0.4787  0.4325
 2309TIP3   OH228341   0.358   2.069   3.897 -0.6233  0.3832 -0.1559
 2309TIP3    H128342   0.312   2.152   3.909 -0.1506  1.0239 -2.5308
 2309TIP3    H228343   0.397   2.075   3.809  0.7058 -1.7243  0.2440
 2310TIP3   OH228344   1.732   4.143   5.775 -0.2670  0.7744  0.8458
 2310TIP3    H128345   1.690   4.171   5.694  2.4184  0.3103 -0.7955
 2310TIP3    H228346   1.678   4.178   5.845 -2.4796  1.4452 -1.1609
 2311TIP3   OH228347   1.549   0.785  10.702  0.6693 -0.4376  0.2555
 2311TIP3    H128348   1.512   0.735  10.775 -1.7906  0.3909 -0.3603
 2311TIP3    H228349   1.562   0.873  10.737 -0.4940 -0.0438 -0.2765
 2312TIP3   OH228350   4.176   2.732  15.581  0.3882 -0.7808 -0.6361
 2312TIP3    H128351   4.186   2.656  15.524  0.7633 -0.9736 -0.3089
 2312TIP3    H228352   4.265   2.754  15.609  0.0577 -1.6674  1.1592
 2313TIP3   OH228353   1.188   5.493  16.672 -0.3575 -0.0568  0.2470
 2313TIP3    H128354   1.129   5.438  16.725 -1.2346  0.5727 -0.0694
 2313TIP3    H228355   1.256   5.432  16.643  0.3428 -0.3574  2.3734
 2314TIP3   OH228356   3.471   0.548  13.007  0.2664  0.4660 -0.4287
 2314TIP3    H128357   3.473   0.457  12.980  3.1095 -0.2060  1.7407
 2314TIP3    H228358   3.378   0.570  13.015 -0.4341 -2.2711 -0.8329
 2315TIP3   OH228359   3.063   6.075   0.429 -0.4454  0.2987 -0.5446
 2315TIP3    H128360   3.026   6.000   0.476  0.5453 -0.2328 -0.5851
 2315TIP3    H228361   3.043   6.058   0.337  0.1725 -0.1481 -0.5976
 2316TIP3   OH228362   4.173   3.217   3.336 -0.1276 -0.3043  0.0242
 2316TIP3    H128363   4.256   3.204   3.382 -1.1728 -0.1259  2.0152
 2316TIP3    H228364   4.145   3.129   3.311  0.3176 -0.4322 -0.0210
 2317TIP3   OH228365   0.308   1.433  13.332 -0.1990  0.0141 -0.1464
 2317TIP3    H128366   0.289   1.340  13.342  0.6579 -0.0842  0.6452
 2317TIP3    H228367   0.227   1.471  13.297 -0.8371 -0.8831  0.3513
 2318TIP3   OH228368   1.223   5.652  12.270  0.3115 -0.7677  0.1142
 2318TIP3    H128369   1.211   5.639  12.364 -0.0868  1.2084  0.3603
 2318TIP3    H228370   1.315   5.630  12.253  0.1880 -1.8339  0.8298
 2319TIP3   OH228371   2.521   2.537  15.298  0.6831  0.0937 -0.1682
 2319TIP3    H128372   2.497   2.526  15.206  0.8763  1.0729 -0.3396
 2319TIP3    H228373   2.446   2.502  15.346  0.9416 -1.1995 -0.6917
 2320TIP3   OH228374   0.462   4.920   1.917  0.1392 -0.2942  0.2724
 2320TIP3    H128375   0.469   4.832   1.881 -1.4445 -0.6902  0.8694
 2320TIP3    H228376   0.464   4.978   1.841 -0.4891 -0.9524 -0.2484
 2321TIP3   OH228377   2.393   0.332   4.857  0.3683 -0.1098 -0.3237
 2321TIP3    H128378   2.468   0.327   4.916 -0.2010  0.2093  0.4331
 2321TIP3    H228379   2.345   0.250   4.872 -0.0148  0.1653 -0.0033
 2322TIP3   OH228380   0.132   2.437  16.306 -0.1027 -0.3742 -0.0466
 2322TIP3    H128381   0.140   2.491  16.384 -0.1145 -1.3213  0.6124
 2322TIP3    H228382   0.165   2.492  16.235  3.3294 -0.8020  1.1671
 2323TIP3   OH228383   4.460   4.300   6.349  0.7087  0.0615 -0.3709
 2323TIP3    H128384   4.486   4.337   6.265  2.9679 -0.9687 -0.1687
 2323TIP3    H228385   4.445   4.376   6.406  0.9366  0.7181 -1.1825
 2324TIP3   OH228386   4.969   1.163  12.270  0.1728  0.0023  0.0442
 2324TIP3    H128387   4.875   1.143  12.270 -0.0773  1.1598 -1.3345
 2324TIP3    H228388   4.973   1.257  12.284  1.1065  0.0567 -0.5780
 2325TIP3   OH228389   4.374   0.257   2.897  0.2746  0.0859  0.2767
 2325TIP3    H128390   4.362   0.230   2.805  0.0682 -1.5588  0.7635
 2325TIP3    H228391   4.311   0.203   2.945  1.2562  0.0419  1.5206
 2326TIP3   OH228392   0.124   3.902  14.079 -0.6307  0.3907  0.1320
 2326TIP3    H128393   0.086   3.814  14.078  2.1367 -0.8827  0.1476
 2326TIP3    H228394   0.114   3.932  14.169 -1.6940  0.1337  0.0985
 2327TIP3   OH228395   5.311   5.784   3.942  0.3209  0.5887 -0.1145
 2327TIP3    H128396   5.377   5.730   3.985  0.4234 -0.5490 -1.6547
 2327TIP3    H228397   5.269   5.832   4.013  2.3567  0.8425  0.9594
 2328TIP3   OH228398   4.808   5.480  16.437 -0.1432  0.4596 -0.0869
 2328TIP3    H128399   4.873   5.530  16.485  0.5268 -1.5164  1.1503
 2328TIP3    H228400   4.780   5.537  16.366 -0.2046  2.9752  1.9056
 2329TIP3   OH228401   4.574   4.499   4.607 -0.5569  0.1051 -0.6830
 2329TIP3    H128402   4.520   4.541   4.540 -0.1785 -0.0083 -1.0617
 2329TIP3    H228403   4.558   4.550   4.686 -0.0154  1.0439 -1.1616
 2330TIP3   OH228404   1.015   5.892   4.586  0.2870  0.0051  0.0415
 2330TIP3    H128405   1.018   5.908   4.492 -0.3651 -2.2481 -0.4030
 2330TIP3    H228406   1.096   5.846   4.606 -0.0181 -0.3784  0.4092
 2331TIP3   OH228407   2.022   3.625   3.904 -0.0644  0.1713 -0.2022
 2331TIP3    H128408   1.982   3.689   3.963  0.1479  0.2125 -0.0999
 2331TIP3    H228409   1.984   3.643   3.819  1.7601  2.0308 -0.6715
 2332TIP3   OH228410   4.828   6.124  15.945  0.3377 -0.4208  0.2306
 2332TIP3    H128411   4.744   6.090  15.977  0.6994 -0.5575  1.0680
 2332TIP3    H228412   4.855   6.187  16.013  0.2922  0.5762 -0.6736
 2333TIP3   OH228413   5.835   6.544   5.165  0.6371 -0.4648 -0.1179
 2333TIP3    H128414   5.765   6.478   5.156  0.7256 -0.3709 -1.6911
 2333TIP3    H228415   5.790   6.627   5.152  1.0123 -0.3981 -1.0135
 2334TIP3   OH228416   0.796   2.433  16.886  0.0620  0.0120  0.1262
 2334TIP3    H128417   0.727   2.469  16.942  1.1855  1.9397  0.3478
 2334TIP3    H228418   0.752   2.413  16.803 -1.1131 -0.5160  0.8616
 2335TIP3   OH228419   3.757   3.598  15.360  0.1750  0.1564  0.4687
 2335TIP3    H128420   3.813   3.525  15.387 -1.0412 -0.8284  0.3503
 2335TIP3    H228421   3.703   3.563  15.290 -0.9130  0.9647  0.8849
 2336TIP3   OH228422   3.290   5.766   4.105 -0.2478 -0.0593 -0.7583
 2336TIP3    H128423   3.314   5.857   4.087 -4.5057  1.1422 -1.0032
 2336TIP3    H228424   3.336   5.715   4.039 -0.5693  2.3066 -2.9020
 2337TIP3   OH228425   4.551   5.617   5.134  0.1857 -0.1472  0.3369
 2337TIP3    H128426   4.569   5.557   5.061  0.1756 -0.3783  0.5212
 2337TIP3    H228427   4.458   5.640   5.123  0.0404 -0.6030  0.5784
 2338TIP3   OH228428   1.349   3.590   4.545 -0.3009  0.6800 -0.0168
 2338TIP3    H128429   1.367   3.610   4.453  0.7598  1.0565  0.2556
 2338TIP3    H228430   1.259   3.558   4.546 -0.9430  2.3723 -0.9378
 2339TIP3   OH228431   3.989   2.549  13.924 -0.2594  0.4832  0.5432
 2339TIP3    H128432   3.899   2.580  13.916 -0.8059 -1.2167  0.0058
 2339TIP3    H228433   3.994   2.473  13.866  1.4571  0.4103  0.7547
 2340TIP3   OH228434   5.558   5.187  14.557 -0.2661 -0.5333  0.1424
 2340TIP3    H128435   5.633   5.187  14.497  0.1571  1.5586  0.6482
 2340TIP3    H228436   5.587   5.132  14.630  2.0707  2.7872  1.8328
 2341TIP3   OH228437   3.278   4.894   2.853  0.4406 -0.1224 -0.1604
 2341TIP3    H128438   3.278   4.827   2.922  1.6072 -0.6485 -0.6580
 2341TIP3    H228439   3.308   4.848   2.775 -0.1493  0.6517 -0.8508
 2342TIP3   OH228440   0.214   6.681   0.199 -0.8305  0.2143  0.1760
 2342TIP3    H128441   0.204   6.682   0.104  0.7127  0.6470 -0.0113
 2342TIP3    H228442   0.258   6.598   0.217 -0.7256  0.3287  0.4463
 2343TIP3   OH228443   3.213   4.571   2.734  0.0382  0.2858 -0.0023
 2343TIP3    H128444   3.163   4.614   2.802 -1.4387 -2.2869  0.5830
 2343TIP3    H228445   3.271   4.510   2.781 -0.9283 -1.4401 -0.9866
 2344TIP3   OH228446   3.785   5.368   5.529  0.1650  0.2291 -0.3732
 2344TIP3    H128447   3.760   5.362   5.437 -0.7995 -0.1437 -0.0926
 2344TIP3    H228448   3.851   5.438   5.531 -0.1648  0.5755 -1.2654
 2345TIP3   OH228449   2.464   2.248  12.703 -0.2394 -0.3931  0.0556
 2345TIP3    H128450   2.466   2.188  12.778  0.4592 -0.9944 -0.4445
 2345TIP3    H228451   2.475   2.335  12.742  2.3975 -0.8698  0.4654
 2346TIP3   OH228452   3.614   1.456   5.397 -0.0588 -0.0634  0.0500
 2346TIP3    H128453   3.619   1.551   5.391  0.8915  0.0810  2.4184
 2346TIP3    H228454   3.689   1.425   5.346 -0.3718  0.4450 -0.7264
 2347TIP3   OH228455   0.176   2.834  12.823 -0.2952  0.4937 -0.2315
 2347TIP3    H128456   0.237   2.868  12.888  0.5262 -0.4155 -0.5248
 2347TIP3    H228457   0.189   2.740  12.825 -0.4398  0.4397 -1.5558
 2348TIP3   OH228458   4.061   3.292  14.319 -0.1116  0.5426 -0.0584
 2348TIP3    H128459   4.052   3.244  14.401  3.4699 -0.5151 -0.2223
 2348TIP3    H228460   3.994   3.361  14.324  0.0588  0.5283  3.7458
 2349TIP3   OH228461   4.226   0.498   2.817  0.2129 -0.1815 -0.1949
 2349TIP3    H128462   4.283   0.421   2.827  0.5317  0.1153  0.2758
 2349TIP3    H228463   4.163   0.472   2.750  1.9388  0.0701 -2.0016
 2350TIP3   OH228464   2.364   3.446   0.161 -0.4553 -0.0391 -0.2002
 2350TIP3    H128465   2.320   3.525   0.194 -1.3255 -0.4212 -0.4383
 2350TIP3    H228466   2.457   3.471   0.157 -0.3576  0.1539  2.1850
 2351TIP3   OH228467   3.160   5.701  14.338  0.3403  0.3005 -0.7035
 2351TIP3    H128468   3.234   5.757  14.316  2.3571 -2.2665 -0.6565
 2351TIP3    H228469   3.111   5.750  14.404  2.0998  1.9360 -0.5821
 2352TIP3   OH228470   0.598   6.378   4.633 -0.2403  0.1739  0.0046
 2352TIP3    H128471   0.647   6.456   4.607  0.0473  0.2641  0.7894
 2352TIP3    H228472   0.584   6.389   4.727  0.3634 -1.0188  0.2449
 2353TIP3   OH228473   3.425   3.074   3.716  0.0578 -0.1244  0.6772
 2353TIP3    H128474   3.435   3.155   3.766 -2.3710  0.6025  0.0546
 2353TIP3    H228475   3.332   3.070   3.695  0.0736 -3.2365  0.9310
 2354TIP3   OH228476   1.807   4.745   0.805 -0.3951  0.4166  0.5553
 2354TIP3    H128477   1.729   4.702   0.767 -0.9982  0.3236  1.8870
 2354TIP3    H228478   1.806   4.719   0.897  1.1721  0.4982  0.6042
 2355TIP3   OH228479   5.464   0.035   2.608 -0.2288 -0.5905 -0.1166
 2355TIP3    H128480   5.376   0.013   2.580  0.1725 -1.2978 -0.8555
 2355TIP3    H228481   5.452   0.090   2.686 -1.3080 -0.6840 -0.2117
 2356TIP3   OH228482   3.827   3.781   4.184 -0.1594  0.1187  0.0660
 2356TIP3    H128483   3.909   3.803   4.141 -0.3159 -2.2966 -1.5603
 2356TIP3    H228484   3.853   3.756   4.273  0.7395  0.3348 -0.1329
 2357TIP3   OH228485   1.549   0.108  13.674  0.2099 -0.6394  0.2691
 2357TIP3    H128486   1.640   0.082  13.691 -0.1382 -1.2313  1.3134
 2357TIP3    H228487   1.521   0.052  13.601 -0.0010 -2.0669  1.4026
 2358TIP3   OH228488   0.076   5.258  11.199 -0.4972  0.3223  0.5616
 2358TIP3    H128489   0.020   5.265  11.276 -1.5830  0.8438 -0.2662
 2358TIP3    H228490   0.020   5.219  11.132  0.0533  1.0462 -0.3372
 2359TIP3   OH228491   0.370   1.772   2.026 -0.1398  0.0759 -0.1940
 2359TIP3    H128492   0.368   1.797   1.934  1.6363  1.3594  0.0926
 2359TIP3    H228493   0.308   1.831   2.068  0.4966  0.8005 -0.2668
 2360TIP3   OH228494   5.983   5.777   5.018 -0.0427 -0.4297 -0.7690
 2360TIP3    H128495   5.932   5.854   5.042 -1.5569 -1.7858  0.4897
 2360TIP3    H228496   5.932   5.734   4.950  0.4433 -0.7187 -0.9562
 2361TIP3   OH228497   2.262   1.311   6.054 -0.5226  0.2596 -0.0969
 2361TIP3    H128498   2.256   1.304   6.150  1.6082 -3.1372 -0.1305
 2361TIP3    H228499   2.342   1.361   6.039 -1.6541  2.0881 -0.1106
 2362TIP3   OH228500   4.284   4.052   1.577 -0.0036  0.2554  0.0840
 2362TIP3    H128501   4.329   4.112   1.517 -0.4260  1.2302  0.7231
 2362TIP3    H228502   4.255   4.108   1.649 -2.1030 -0.3841 -0.2252
 2363TIP3   OH228503   0.825   5.562  15.179 -0.5226 -0.0064  0.2286
 2363TIP3    H128504   0.904   5.513  15.205 -1.2683 -0.8001  1.0324
 2363TIP3    H228505   0.818   5.632  15.244 -0.4795  0.0571  0.1636
 2364TIP3   OH228506   3.797   5.719  15.702 -0.3464 -0.2284 -0.2905
 2364TIP3    H128507   3.738   5.705  15.627 -0.1465 -0.3765 -0.4211
 2364TIP3    H228508   3.803   5.814  15.710  1.1993 -0.1719 -1.7124
 2365TIP3   OH228509   2.638   3.321   0.650  0.3612  0.4473  0.3890
 2365TIP3    H128510   2.576   3.249   0.660 -1.4401  1.4130 -3.0374
 2365TIP3    H228511   2.632   3.370   0.732 -1.2211 -1.1254  1.2351
 2366TIP3   OH228512   1.079   4.142   1.125 -0.0033  0.2332 -0.0718
 2366TIP3    H128513   1.092   4.047   1.120  0.8464  0.3209  0.3419
 2366TIP3    H228514   1.112   4.175   1.042  1.2709  0.3258  0.4596
 2367TIP3   OH228515   3.125   0.814  12.783  0.4395  0.2829 -0.0566
 2367TIP3    H128516   3.171   0.731  12.792 -0.4333 -0.1161  0.7797
 2367TIP3    H228517   3.193   0.880  12.799  1.6433 -0.1928 -2.9712
 2368TIP3   OH228518   6.641   0.681   1.738 -0.2243 -0.1946  0.6786
 2368TIP3    H128519   6.554   0.646   1.757  0.2291 -1.3220  0.7348
 2368TIP3    H228520   6.700   0.606   1.748  0.7698  0.5821  0.7452
 2369TIP3   OH228521   2.767   6.540  15.058  0.6184 -0.1895 -0.0058
 2369TIP3    H128522   2.848   6.489  15.054  0.6955 -0.2287  1.8713
 2369TIP3    H228523   2.723   6.510  15.138 -1.6663 -0.7884 -1.4099
 2370TIP3   OH228524   1.597   6.326  11.279  0.1124 -0.2035 -0.1967
 2370TIP3    H128525   1.688   6.297  11.284  0.3011  0.2608 -0.8568
 2370TIP3    H228526   1.571   6.308  11.189 -0.6819 -0.9971  0.1817
 2371TIP3   OH228527   0.030   3.012   0.341  0.2356 -0.2933  0.0400
 2371TIP3    H128528   0.070   3.029   0.426 -0.9507  3.5330 -0.1051
 2371TIP3    H228529  -0.051   2.964   0.361  0.3149 -0.0222  1.0031
 2372TIP3   OH228530   6.744   4.229   3.363 -0.4105 -0.7498 -0.7524
 2372TIP3    H128531   6.676   4.201   3.302 -0.7376  1.5412 -1.5102
 2372TIP3    H228532   6.825   4.220   3.314 -0.3476 -1.8077 -0.4597
 2373TIP3   OH228533   4.332   6.272   1.829  0.1499 -0.0536 -0.0746
 2373TIP3    H128534   4.383   6.231   1.898 -0.5266  1.2860  1.2518
 2373TIP3    H228535   4.377   6.355   1.812  0.2246 -0.2977 -1.1576
 2374TIP3   OH228536   0.278   3.521   0.430 -0.3482  0.1582  0.5101
 2374TIP3    H128537   0.267   3.457   0.360  0.2379  1.0036 -0.3626
 2374TIP3    H228538   0.257   3.605   0.390  0.0050  0.6461  1.3343
 2375TIP3   OH228539   2.191   4.836  14.598 -0.2797 -0.4048 -0.6551
 2375TIP3    H128540   2.139   4.796  14.667  1.4344 -2.4606 -0.5133
 2375TIP3    H228541   2.279   4.841  14.633  0.1330  0.8123 -1.7938
 2376TIP3   OH228542   4.661   0.227   2.514 -0.6819 -0.0344  0.3290
 2376TIP3    H128543   4.715   0.228   2.435 -0.5227  0.3165  0.4426
 2376TIP3    H228544   4.692   0.151   2.563 -0.0486  0.3721  0.5631
 2377TIP3   OH228545   6.041   0.221  17.072 -0.0260  0.5054  0.8036
 2377TIP3    H128546   6.048   0.265  16.987  2.1951 -2.0540 -0.3793
 2377TIP3    H228547   6.081   0.283  17.134 -0.5228  1.8417 -0.1786
 2378TIP3   OH228548   1.699   1.149   0.127 -0.3397 -0.2029  0.2214
 2378TIP3    H128549   1.640   1.090   0.173 -1.5423  1.4396  0.8053
 2378TIP3    H228550   1.769   1.167   0.190 -0.2896 -0.5024  0.2530
 2379TIP3   OH228551   1.733   2.381  13.377 -0.7049 -0.0337 -0.1916
 2379TIP3    H128552   1.672   2.341  13.315 -0.7755  1.4970 -1.1462
 2379TIP3    H228553   1.707   2.473  13.380 -0.0048  0.1316  1.2966
 2380TIP3   OH228554   5.717   5.697  17.114  0.0912  0.4902 -0.5855
 2380TIP3    H128555   5.717   5.792  17.100 -1.8672  0.8653  1.6257
 2380TIP3    H228556   5.782   5.684  17.184  0.0528  0.2665 -0.5902
 2381TIP3   OH228557   3.933   1.761  11.837 -0.3297  0.4897 -0.2486
 2381TIP3    H128558   3.989   1.808  11.775 -1.3263  1.4125 -0.4625
 2381TIP3    H228559   3.929   1.672  11.803  1.1268  0.3796 -0.1491
 2382TIP3   OH228560   4.709   1.922  17.064  0.1762  0.3215  0.0524
 2382TIP3    H128561   4.695   1.864  16.990  0.7628  0.5430 -0.2351
 2382TIP3    H228562   4.626   1.969  17.074  0.2796  0.6998 -0.8176
 2383TIP3   OH228563   4.969   2.909   1.515 -0.3409  0.7124 -0.4005
 2383TIP3    H128564   5.053   2.883   1.478 -0.5217 -0.0098 -0.3044
 2383TIP3    H228565   4.966   2.868   1.601 -1.6309 -0.9267 -1.1919
 2384TIP3   OH228566   0.751   5.369   5.934  0.1254  0.3031 -0.2851
 2384TIP3    H128567   0.671   5.355   5.884  0.5943 -0.7446 -0.7720
 2384TIP3    H228568   0.744   5.459   5.966 -0.4993  0.7648 -1.6573
 2385TIP3   OH228569   0.453   4.333  13.841  0.1015 -0.2501  0.4170
 2385TIP3    H128570   0.477   4.309  13.752 -0.8083 -0.0338  0.1043
 2385TIP3    H228571   0.402   4.258  13.873 -0.6111  0.1866  0.3196
 2386TIP3   OH228572   4.249   1.555  15.691  0.5073  0.0615  0.5994
 2386TIP3    H128573   4.295   1.540  15.608  2.5589  1.3573  1.4343
 2386TIP3    H228574   4.319   1.556  15.757 -0.4312  3.9737  1.7042
 2387TIP3   OH228575   3.050   5.377  17.151 -0.0424  0.0841  0.2165
 2387TIP3    H128576   3.118   5.316  17.124 -0.4402 -0.3731  0.2439
 2387TIP3    H228577   3.070   5.397  17.243  1.8896  2.4138 -0.6827
 2388TIP3   OH228578   1.725   0.845   2.791 -0.4240 -0.3571 -0.3386
 2388TIP3    H128579   1.800   0.828   2.735 -0.1448  1.4905 -0.5581
 2388TIP3    H228580   1.693   0.758   2.815  1.5487 -1.1693 -0.5288
 2389TIP3   OH228581   3.937   5.828  16.666 -0.0839 -1.0429 -0.1382
 2389TIP3    H128582   3.948   5.808  16.758 -0.1635  0.5122  0.2340
 2389TIP3    H228583   3.843   5.845  16.655  0.2237  0.8717 -0.0283
 2390TIP3   OH228584   6.272   0.068   1.037 -0.2722 -0.7911 -0.1690
 2390TIP3    H128585   6.317   0.052   1.120  0.5743 -1.0270 -0.6755
 2390TIP3    H228586   6.338   0.109   0.981 -1.2200  0.6207 -0.2906
 2391TIP3   OH228587   3.315   1.858   3.890 -0.7125 -0.5036  0.2743
 2391TIP3    H128588   3.260   1.936   3.882  0.7122  0.2772 -2.7755
 2391TIP3    H228589   3.301   1.811   3.808 -0.7999 -2.9905  1.6746
 2392TIP3   OH228590   4.243   0.088   3.254  0.3146  0.1241 -0.4907
 2392TIP3    H128591   4.200   0.078   3.339 -0.4245  0.9421 -0.7544
 2392TIP3    H228592   4.336   0.076   3.272 -0.0575 -2.2787 -0.0106
 2393TIP3   OH228593   0.812   5.774  16.915  0.4059  0.2451  0.1896
 2393TIP3    H128594   0.720   5.798  16.921  0.9807  2.2694  1.2228
 2393TIP3    H228595   0.851   5.807  16.995  1.8566 -1.4719  0.2177
 2394TIP3   OH228596   1.186   0.560  14.774  0.0053  0.1671  0.4354
 2394TIP3    H128597   1.193   0.506  14.695 -1.4209  0.1567  0.3188
 2394TIP3    H228598   1.245   0.517  14.836 -1.1493 -1.5900  0.3729
 2395TIP3   OH228599   5.372   2.339   3.667  0.2080  0.2436  0.1719
 2395TIP3    H128600   5.433   2.372   3.601  1.2696 -0.2018  0.9299
 2395TIP3    H228601   5.315   2.279   3.618  1.2562 -0.4106 -0.2555
 2396TIP3   OH228602   3.833   5.120   4.894  0.2206 -0.4097 -0.1443
 2396TIP3    H128603   3.871   5.090   4.977  0.2727  0.6015  0.2037
 2396TIP3    H228604   3.860   5.211   4.887 -0.9377 -0.0951 -0.6082
 2397TIP3   OH228605   5.459   0.903   3.997 -0.1948  0.0075  0.3149
 2397TIP3    H128606   5.484   0.866   3.912  0.6429 -0.5404  0.7988
 2397TIP3    H228607   5.367   0.929   3.986 -0.0646  0.0118 -0.7820
 2398TIP3   OH228608   4.013   6.556  16.925 -0.8016  0.1702  0.0873
 2398TIP3    H128609   4.037   6.648  16.929  0.7529 -0.2094 -0.1582
 2398TIP3    H228610   4.070   6.513  16.989 -1.5554 -0.6177  0.2488
 2399TIP3   OH228611   1.884   3.952  13.572 -0.5461  0.3888  0.0247
 2399TIP3    H128612   1.884   4.008  13.494 -1.0586  0.0221 -0.2457
 2399TIP3    H228613   1.801   3.972  13.615 -0.0867  0.8811  0.6953
 2400TIP3   OH228614   1.906   2.952  12.837 -0.1487 -0.1893 -0.0216
 2400TIP3    H128615   1.935   2.952  12.929 -0.5240  0.1758  0.0977
 2400TIP3    H228616   1.820   2.912  12.839 -0.2630  0.0476 -0.1783
 2401TIP3   OH228617   5.418   2.798  16.711 -0.2941  0.2356 -0.5207
 2401TIP3    H128618   5.425   2.818  16.804  1.2926 -0.1921 -0.5381
 2401TIP3    H228619   5.389   2.880  16.671  2.7684  1.5827 -0.1313
 2402TIP3   OH228620   0.228   1.269   1.124 -0.0952  0.1232  0.2471
 2402TIP3    H128621   0.170   1.338   1.094  1.1238  1.6644  1.3751
 2402TIP3    H228622   0.313   1.312   1.137  0.6974 -1.5826  0.9203
 2403TIP3   OH228623   4.190   4.487   0.768 -0.5812  0.3235  0.6757
 2403TIP3    H128624   4.119   4.481   0.705  0.1799 -1.9064 -0.0190
 2403TIP3    H228625   4.234   4.570   0.748 -0.2964 -0.4015 -1.7905
 2404TIP3   OH228626   6.511   5.395  14.383 -0.7039 -0.5018 -0.2863
 2404TIP3    H128627   6.598   5.435  14.390 -0.2092 -1.3229 -1.4821
 2404TIP3    H228628   6.451   5.460  14.420  0.1505  1.0075 -1.5037
 2405TIP3   OH228629   5.002   2.952  15.544 -0.3756 -0.0924 -0.2098
 2405TIP3    H128630   5.079   2.942  15.488  0.1100  0.2974  0.3878
 2405TIP3    H228631   4.929   2.919  15.490  0.1025  0.1631 -1.0259
 2406TIP3   OH228632   2.634   2.713  12.450  0.2520 -0.2654  0.0893
 2406TIP3    H128633   2.548   2.735  12.415  0.0067  0.2476  0.9832
 2406TIP3    H228634   2.629   2.739  12.542  1.9262  1.3941 -0.2490
 2407TIP3   OH228635   6.183   6.324  16.802 -0.3102 -0.1222  0.5061
 2407TIP3    H128636   6.197   6.315  16.897  0.0206 -1.2161  0.3649
 2407TIP3    H228637   6.088   6.328  16.792 -0.3551 -0.2428  0.8643
 2408TIP3   OH228638   2.761   2.246   6.256 -0.4114  0.5736  0.4453
 2408TIP3    H128639   2.751   2.315   6.322 -0.4414 -0.5215  1.6151
 2408TIP3    H228640   2.722   2.168   6.297 -2.4486  0.3849 -1.7441
 2409TIP3   OH228641   4.205   5.525   2.133 -0.3222  0.2846 -0.4657
 2409TIP3    H128642   4.261   5.495   2.061  0.0142 -1.3420  0.4661
 2409TIP3    H228643   4.129   5.563   2.089 -0.9526 -2.2809 -1.6932
 2410TIP3   OH228644   0.556   1.631   5.634  0.0719  0.1560  0.0076
 2410TIP3    H128645   0.549   1.601   5.724  0.4923  0.3314  0.0982
 2410TIP3    H228646   0.607   1.712   5.639  0.7380 -0.2323 -0.4761
 2411TIP3   OH228647   6.767   5.041   5.339  0.2601  0.2369  0.0330
 2411TIP3    H128648   6.809   5.080   5.262 -0.4276 -1.2788 -1.1267
 2411TIP3    H228649   6.676   5.028   5.313 -0.4693  1.5124  1.7925
 2412TIP3   OH228650   5.507   4.638  10.991  0.2114  0.4229  0.2972
 2412TIP3    H128651   5.432   4.641  10.932  0.5101 -0.5584 -0.1429
 2412TIP3    H228652   5.570   4.699  10.954 -0.4786  1.4590  0.8214
 2413TIP3   OH228653   6.138   1.956   0.286 -0.3529  0.2506 -0.4091
 2413TIP3    H128654   6.123   2.040   0.330 -0.0107  0.6405 -1.0301
 2413TIP3    H228655   6.052   1.931   0.252 -0.4323  0.4018 -0.3205
 2414TIP3   OH228656   3.041   4.766   0.941 -0.7228 -0.4757  0.2382
 2414TIP3    H128657   2.996   4.791   1.021 -1.3210  0.0029 -0.2376
 2414TIP3    H228658   3.011   4.676   0.924  0.2565 -0.9742  1.1368
 2415TIP3   OH228659   1.808   2.319   2.656 -0.0224  0.2358  0.1500
 2415TIP3    H128660   1.765   2.244   2.697 -0.8629 -0.5663 -2.1428
 2415TIP3    H228661   1.744   2.355   2.595  2.0129 -0.1692 -2.3568
 2416TIP3   OH228662   6.444   5.927  10.670 -0.0912 -0.6296  0.0615
 2416TIP3    H128663   6.495   5.848  10.651  0.9545 -0.0673  0.4717
 2416TIP3    H228664   6.469   5.990  10.602  1.7843  0.5413  1.7830
 2417TIP3   OH228665   0.252   1.247   1.546 -0.3636  0.0411  0.8153
 2417TIP3    H128666   0.251   1.194   1.625  0.8571  1.3123  1.6994
 2417TIP3    H228667   0.187   1.316   1.562 -0.9725 -0.3781  0.2106
 2418TIP3   OH228668   4.882   3.655  15.720 -0.3514  0.4037  0.0934
 2418TIP3    H128669   4.807   3.596  15.715 -0.6937  0.8241  0.1720
 2418TIP3    H228670   4.843   3.741  15.737  0.0764  0.7973 -0.8492
 2419TIP3   OH228671   3.168   6.012  15.727 -0.3426 -0.2339  0.1442
 2419TIP3    H128672   3.100   6.075  15.706  0.5355  0.6976  0.0741
 2419TIP3    H228673   3.166   6.005  15.822 -0.8624 -0.5937  0.1140
 2420TIP3   OH228674   6.005   1.498  14.593  0.2229 -0.4936  0.4165
 2420TIP3    H128675   6.086   1.549  14.592 -1.8618  3.0902  1.4239
 2420TIP3    H228676   6.028   1.415  14.634  3.7982 -0.4060 -1.2744
 2421TIP3   OH228677   6.375   3.267  14.413  0.1522 -0.5679  0.1191
 2421TIP3    H128678   6.294   3.216  14.421  2.5785 -4.2688  2.0674
 2421TIP3    H228679   6.406   3.250  14.324 -1.0261  0.6593 -0.5466
 2422TIP3   OH228680   5.810   2.754  14.126  0.3267  0.0287 -0.1331
 2422TIP3    H128681   5.801   2.758  14.221 -1.7474  2.0490 -0.3803
 2422TIP3    H228682   5.843   2.666  14.109  1.5985 -0.0609  2.5096
 2423TIP3   OH228683   2.999   1.306   6.716  0.2326  0.2447 -0.4153
 2423TIP3    H128684   3.057   1.277   6.646  0.3160  1.8485 -1.0381
 2423TIP3    H228685   3.031   1.393   6.740 -1.0413  0.5624  0.2119
 2424TIP3   OH228686   6.242   1.785  13.267 -0.4232  0.2031  0.2332
 2424TIP3    H128687   6.261   1.784  13.361 -0.3723 -0.3739  0.2201
 2424TIP3    H228688   6.201   1.870  13.252  1.5386  1.2170  0.3851
 2425TIP3   OH228689   2.310   4.387  13.858  0.0405 -0.1598 -0.3723
 2425TIP3    H128690   2.273   4.299  13.851 -0.5050  0.0176  0.2759
 2425TIP3    H228691   2.254   4.432  13.920 -0.7136  1.1877 -1.9799
 2426TIP3   OH228692   2.804   0.950  16.001  0.0021 -0.3898 -0.0171
 2426TIP3    H128693   2.751   0.969  16.078  1.0180  0.0982  0.5777
 2426TIP3    H228694   2.797   0.856  15.989 -0.1297 -0.4726  0.6998
 2427TIP3   OH228695   6.740   4.192  12.922 -0.0867  0.1416 -1.0203
 2427TIP3    H128696   6.813   4.254  12.915 -0.8124  0.8432 -2.5869
 2427TIP3    H228697   6.678   4.235  12.980  1.3809 -1.1239  1.5665
 2428TIP3   OH228698   0.536   0.584   5.137 -0.6580  0.1095 -0.0178
 2428TIP3    H128699   0.600   0.515   5.157 -0.0331  0.3986 -0.9636
 2428TIP3    H228700   0.460   0.562   5.190 -0.1321 -0.8083  0.3744
 2429TIP3   OH228701   2.790   0.582   0.167 -0.2013 -0.0507  0.0916
 2429TIP3    H128702   2.750   0.669   0.165 -3.2133 -1.3319  1.4588
 2429TIP3    H228703   2.797   0.562   0.260  2.2926 -0.5005 -0.1705
 2430TIP3   OH228704   2.267   1.597  13.489 -0.5490  0.1613  0.8726
 2430TIP3    H128705   2.249   1.521  13.543 -0.1595 -0.1463  0.5666
 2430TIP3    H228706   2.226   1.577  13.405  0.6271 -0.2535  0.3859
 2431TIP3   OH228707   3.769   1.982  12.393 -0.5562  0.2033  0.0058
 2431TIP3    H128708   3.838   1.968  12.458 -0.4793 -0.4817 -0.2273
 2431TIP3    H228709   3.794   2.064  12.350  1.9850 -1.7450 -2.4255
 2432TIP3   OH228710   5.995   6.356  12.782 -0.7914 -0.3990 -0.0301
 2432TIP3    H128711   6.018   6.346  12.874 -0.5153 -0.3650 -0.0929
 2432TIP3    H228712   5.944   6.279  12.761 -0.6077 -0.5509  0.0760
 2433TIP3   OH228713   2.084   4.004   5.247 -0.6160 -0.0634 -0.0775
 2433TIP3    H128714   2.048   3.915   5.254 -0.1232 -0.3856 -1.5450
 2433TIP3    H228715   2.072   4.028   5.155  3.3359 -0.3752 -0.7801
 2434TIP3   OH228716   3.285   0.942  15.177 -0.2908 -0.0348  0.3974
 2434TIP3    H128717   3.365   0.894  15.159 -1.1345 -1.7065  0.9714
 2434TIP3    H228718   3.250   0.965  15.091  0.6558  0.4623  0.1460
 2435TIP3   OH228719   3.746   1.227  15.350 -0.1586  0.3504 -0.4882
 2435TIP3    H128720   3.672   1.202  15.295 -1.5426  1.8562  0.6393
 2435TIP3    H228721   3.765   1.150  15.402 -1.7025  0.3207  0.0429
 2436TIP3   OH228722   4.562   0.820  12.266 -0.2866  0.3596  0.1035
 2436TIP3    H128723   4.517   0.748  12.221 -1.2021  0.9744 -0.0022
 2436TIP3    H228724   4.536   0.811  12.357  1.0413 -0.4955  0.4105
 2437TIP3   OH228725   3.837   1.526  12.479 -0.3092  0.0119  0.4153
 2437TIP3    H128726   3.862   1.446  12.433  2.3349 -0.8509  3.1491
 2437TIP3    H228727   3.751   1.506  12.517 -0.6233 -0.7476 -0.6737
 2438TIP3   OH228728   5.379   3.775  12.088  0.1961  0.2174  0.3221
 2438TIP3    H128729   5.342   3.803  12.004 -0.9303  0.8691  1.0201
 2438TIP3    H228730   5.307   3.728  12.130  1.5429 -2.3458 -0.1381
 2439TIP3   OH228731   4.533   5.679   3.211 -0.2811  0.5413  0.2924
 2439TIP3    H128732   4.556   5.668   3.119  3.5778  1.8980  1.0118
 2439TIP3    H228733   4.475   5.755   3.212 -0.6043  0.3377 -1.0040
 2440TIP3   OH228734   0.760   1.956  14.715 -0.2204 -0.7202  0.2060
 2440TIP3    H128735   0.813   1.981  14.790 -1.8387 -1.3582  1.5904
 2440TIP3    H228736   0.672   1.942  14.751 -1.1466 -0.4729 -1.8969
 2441TIP3   OH228737   4.264   1.410   4.968  0.4042 -0.3561  0.5052
 2441TIP3    H128738   4.288   1.501   4.985  0.1998 -0.2538  0.2486
 2441TIP3    H228739   4.172   1.414   4.942  0.3514 -0.6527  0.6423
 2442TIP3   OH228740   2.535   6.536  12.139  0.9378 -0.3556  0.1592
 2442TIP3    H128741   2.574   6.563  12.223  0.9728  0.6192 -0.1593
 2442TIP3    H228742   2.582   6.588  12.074 -0.6341  0.5699 -0.2661
 2443TIP3   OH228743   0.998   4.725  15.807  0.0155 -0.2697 -0.3642
 2443TIP3    H128744   0.967   4.810  15.840 -0.0369 -0.7656  0.9070
 2443TIP3    H228745   1.093   4.732  15.811  0.0339  0.2267 -1.5731
 2444TIP3   OH228746   1.146   0.808   3.376 -0.2365 -0.3988  0.0099
 2444TIP3    H128747   1.111   0.740   3.319 -2.2688  1.4152 -0.9884
 2444TIP3    H228748   1.231   0.829   3.338 -0.4544 -1.0108 -0.8474
 2445TIP3   OH228749   2.369   2.673  13.413  0.2726 -0.1176  0.4154
 2445TIP3    H128750   2.324   2.605  13.463 -0.5875  1.2092  1.4824
 2445TIP3    H228751   2.382   2.744  13.476  1.0319  0.7633 -0.7218
 2446TIP3   OH228752   2.565   2.481   0.045 -0.2718  0.0304  0.4769
 2446TIP3    H128753   2.601   2.392   0.043  0.2422  0.2610 -1.3231
 2446TIP3    H228754   2.488   2.477  -0.012  1.1387  1.3063 -1.5855
 2447TIP3   OH228755   5.022   3.518  13.399  0.2113 -0.4859 -0.0984
 2447TIP3    H128756   5.037   3.424  13.395 -2.1285 -0.8910  0.0942
 2447TIP3    H228757   4.970   3.538  13.321 -0.8041  0.3409  0.7721
 2448TIP3   OH228758   0.774   3.221   5.223  0.0084  0.2678  0.4305
 2448TIP3    H128759   0.681   3.244   5.228 -0.4378 -1.3020 -0.4967
 2448TIP3    H228760   0.781   3.136   5.267  0.9244  0.1398  0.0616
 2449TIP3   OH228761   0.189   3.727  16.479  0.3212 -0.2304 -0.2528
 2449TIP3    H128762   0.094   3.714  16.486  0.5219 -0.2401  3.6760
 2449TIP3    H228763   0.198   3.821  16.463 -0.3645  0.1230  1.2545
 2450TIP3   OH228764   3.984   0.212   2.096  0.5447  0.2362  0.3756
 2450TIP3    H128765   4.050   0.151   2.130  1.0921  1.2139  1.0601
 2450TIP3    H228766   3.910   0.155   2.072  1.6123 -0.8546 -0.3752
 2451TIP3   OH228767   4.227   3.795  15.421  0.1322  0.1094  0.1999
 2451TIP3    H128768   4.141   3.778  15.462 -0.4273 -2.1097 -1.8251
 2451TIP3    H228769   4.224   3.888  15.400 -0.9199  0.5486  2.0668
 2452TIP3   OH228770   1.995   3.261  13.135  0.2187  0.4512 -0.0134
 2452TIP3    H128771   1.948   3.235  13.215 -0.6620 -1.5209 -1.1221
 2452TIP3    H228772   1.991   3.356  13.135 -0.4050  0.4585  1.9258
 2453TIP3   OH228773   1.938   1.625  16.361  0.3771 -0.1157  0.3179
 2453TIP3    H128774   2.031   1.622  16.337  0.3065 -1.6398  0.1936
 2453TIP3    H228775   1.893   1.590  16.285 -0.0706 -2.1030  1.4564
 2454TIP3   OH228776   3.698   5.437   2.536 -0.0317  0.0069  0.0432
 2454TIP3    H128777   3.692   5.510   2.598 -1.2619  0.6911 -0.8627
 2454TIP3    H228778   3.608   5.410   2.523  0.4036 -1.4994  0.1473
 2455TIP3   OH228779   4.437   3.110   5.613  0.0460 -0.3838  0.0673
 2455TIP3    H128780   4.527   3.140   5.623 -0.5306  1.2941  0.4545
 2455TIP3    H228781   4.384   3.181   5.650 -1.4239 -1.4206 -0.0031
 2456TIP3   OH228782   4.251   0.608  11.648 -0.7633 -0.5905 -0.5495
 2456TIP3    H128783   4.287   0.694  11.629 -0.3491 -0.8340 -0.8810
 2456TIP3    H228784   4.198   0.620  11.727  2.0700 -0.7526  1.4631
 2457TIP3   OH228785   5.709   3.368   4.472 -0.0106 -0.3097 -0.7746
 2457TIP3    H128786   5.701   3.293   4.530  3.5003 -0.5594 -0.5203
 2457TIP3    H228787   5.719   3.443   4.531  1.4823 -0.3018 -1.0240
 2458TIP3   OH228788   0.783   1.328   4.022  0.9377  0.6308  0.2180
 2458TIP3    H128789   0.871   1.364   4.020  1.0787  0.4961  2.3854
 2458TIP3    H228790   0.795   1.235   4.043  0.3346  0.3632 -0.5769
 2459TIP3   OH228791   2.529   6.318  13.217 -0.5023 -0.1711  0.1324
 2459TIP3    H128792   2.571   6.260  13.155 -1.5170  0.4334 -1.1499
 2459TIP3    H228793   2.596   6.337  13.282  0.8016 -0.2411 -1.1710
 2460TIP3   OH228794   3.715   4.874  16.007  0.0132 -0.7235 -0.0624
 2460TIP3    H128795   3.746   4.788  16.035  1.0359  0.0942  1.3988
 2460TIP3    H228796   3.788   4.910  15.957 -1.2272 -1.5486 -2.5644
 2461TIP3   OH228797   2.834   4.401  11.673  0.1388 -0.6571 -0.0063
 2461TIP3    H128798   2.831   4.360  11.759  1.7707 -2.6115 -0.8413
 2461TIP3    H228799   2.861   4.491  11.690 -0.8670 -0.6631  1.6421
 2462TIP3   OH228800   2.007   5.369  12.555  0.7073 -0.5659  0.4107
 2462TIP3    H128801   2.001   5.456  12.593  1.2861 -0.6022  0.5794
 2462TIP3    H228802   2.023   5.311  12.629  0.0296 -0.8533  0.3349
 2463TIP3   OH228803   5.496   1.338   6.000 -0.2690  0.0039  0.3840
 2463TIP3    H128804   5.457   1.363   5.917 -2.2205  0.4283  1.3897
 2463TIP3    H228805   5.584   1.307   5.978  0.0495  2.1698 -1.5678
 2464TIP3   OH228806   1.213   0.142  13.012 -0.1712 -0.1119  0.3392
 2464TIP3    H128807   1.155   0.205  12.968 -0.6521 -0.4449  0.4852
 2464TIP3    H228808   1.240   0.082  12.943 -0.1453 -0.0596  0.3038
 2465TIP3   OH228809   6.090   0.358   2.547  0.2822 -0.0241 -0.4326
 2465TIP3    H128810   6.026   0.316   2.490 -1.1306  0.6720  0.6194
 2465TIP3    H228811   6.066   0.332   2.635  1.3452  0.3948 -0.0016
 2466TIP3   OH228812   6.374   0.195   3.608 -0.0701 -0.0532 -0.1006
 2466TIP3    H128813   6.313   0.146   3.663 -0.6375  1.1503  0.3353
 2466TIP3    H228814   6.354   0.164   3.519 -0.6341 -0.3947  0.1357
 2467TIP3   OH228815   0.264   5.708  15.002 -0.9241 -0.4569 -0.4485
 2467TIP3    H128816   0.320   5.637  15.032  0.7022  0.5321 -1.0581
 2467TIP3    H228817   0.287   5.782  15.059  0.3573  0.7105 -2.3966
 2468TIP3   OH228818   4.809   1.505  15.841 -0.1839 -0.4016  0.2739
 2468TIP3    H128819   4.752   1.575  15.875  0.3252  0.3542 -0.4079
 2468TIP3    H228820   4.781   1.494  15.750 -0.5767 -1.4147  0.5181
 2469TIP3   OH228821   4.437   1.625   1.850 -0.1082  0.1063  0.1943
 2469TIP3    H128822   4.489   1.703   1.833  0.4896 -0.4347 -0.4679
 2469TIP3    H228823   4.492   1.552   1.822 -1.4904 -0.4473 -1.1692
 2470TIP3   OH228824   4.960   2.149   3.690  0.0785 -0.5143  0.4213
 2470TIP3    H128825   4.965   2.228   3.743  0.4626 -0.5438  0.4289
 2470TIP3    H228826   4.934   2.179   3.603  1.7387 -0.2033  0.0197
 2471TIP3   OH228827   5.651   5.575   3.344  0.2835 -0.2156 -0.7394
 2471TIP3    H128828   5.715   5.504   3.336 -0.7467 -1.0348 -1.8414
 2471TIP3    H228829   5.566   5.531   3.339 -0.3908  0.7441  1.7370
 2472TIP3   OH228830   4.390   1.373   5.813 -0.3270  0.0409 -0.1915
 2472TIP3    H128831   4.478   1.367   5.851 -0.1574 -0.9208 -0.7236
 2472TIP3    H228832   4.371   1.467   5.812  1.1275  0.3426 -1.0362
 2473TIP3   OH228833   5.420   2.831   1.738 -0.0927 -0.5995  0.0123
 2473TIP3    H128834   5.504   2.815   1.783  0.9907 -0.3277 -1.8801
 2473TIP3    H228835   5.422   2.773   1.662 -1.7757 -0.8055  0.1051
 2474TIP3   OH228836   6.620   4.479  13.376  0.4054  0.1021  0.1538
 2474TIP3    H128837   6.629   4.498  13.470  0.2279 -0.6362  0.3253
 2474TIP3    H228838   6.644   4.387  13.368  1.6822  0.4906 -0.7263
 2475TIP3   OH228839   6.368   3.509  12.657 -0.1746  0.4011 -0.0544
 2475TIP3    H128840   6.357   3.421  12.693  1.8623  0.2931  0.3484
 2475TIP3    H228841   6.286   3.526  12.611 -0.0512 -2.3032 -1.3901
 2476TIP3   OH228842   5.566   4.091  12.215 -0.6400 -0.3754 -0.2854
 2476TIP3    H128843   5.590   4.168  12.163 -3.3593  0.2218 -0.7298
 2476TIP3    H228844   5.559   4.021  12.151 -0.9046 -0.3431 -0.2954
 2477TIP3   OH228845   5.715   6.416   0.337 -0.2253 -0.5273  0.1575
 2477TIP3    H128846   5.786   6.382   0.283  0.5917  1.0994  0.1647
 2477TIP3    H228847   5.730   6.378   0.424  0.6984 -0.1113  0.1812
 2478TIP3   OH228848   4.094   0.014  15.684  0.1719 -0.2056 -0.2554
 2478TIP3    H128849   4.173   0.014  15.738 -0.4075  0.0621  0.6020
 2478TIP3    H228850   4.114   0.075  15.613  0.2783  0.8718  0.6686
 2479TIP3   OH228851   2.414   2.714   3.368  0.2476 -0.3809  0.1312
 2479TIP3    H128852   2.485   2.687   3.310  0.3877  0.7308 -0.2269
 2479TIP3    H228853   2.457   2.762   3.439 -0.1495  0.2903 -0.0813
 2480TIP3   OH228854   2.269   3.363  11.804 -0.6442 -0.0881 -0.2062
 2480TIP3    H128855   2.339   3.420  11.772 -0.7608  0.0499 -0.2152
 2480TIP3    H228856   2.196   3.378  11.744 -1.6490  1.8999  1.4702
 2481TIP3   OH228857   5.655   1.907   4.538  0.1377 -0.0658 -0.8115
 2481TIP3    H128858   5.702   1.974   4.489  1.4617 -0.3628  0.0425
 2481TIP3    H228859   5.569   1.903   4.496  0.3831  1.4732 -1.4884
 2482TIP3   OH228860   1.011   4.098  14.992  0.4710  0.1672 -0.0582
 2482TIP3    H128861   0.977   4.088  14.903  0.6360 -0.6668 -0.0305
 2482TIP3    H228862   1.099   4.060  14.987  1.2220  1.8839 -0.0223
 2483TIP3   OH228863   4.856   0.293   5.954 -0.2183  0.5437 -0.5228
 2483TIP3    H128864   4.898   0.360   6.008  1.3344 -1.0007  0.2540
 2483TIP3    H228865   4.769   0.284   5.991 -0.6032  2.4224 -0.9161
 2484TIP3   OH228866   2.516   3.386  16.904  0.3460  0.2263 -0.2230
 2484TIP3    H128867   2.514   3.462  16.845  2.0260 -0.3905 -1.1225
 2484TIP3    H228868   2.472   3.416  16.983 -2.6255  0.8744 -2.0184
 2485TIP3   OH228869   5.495   3.285  15.796  0.5004 -0.1024  0.2209
 2485TIP3    H128870   5.486   3.373  15.832  0.3729  0.1595 -0.4476
 2485TIP3    H228871   5.586   3.262  15.811  0.4374 -0.0117  0.7467
 2486TIP3   OH228872   6.150   0.809   0.018  0.5140  0.1558  0.4235
 2486TIP3    H128873   6.157   0.895   0.059 -1.0544  0.8138 -0.6322
 2486TIP3    H228874   6.152   0.827  -0.076 -2.8740 -0.5996  0.1392
 2487TIP3   OH228875   6.001   4.184   5.247  0.5261  0.4099 -0.2735
 2487TIP3    H128876   5.963   4.158   5.163 -0.1363 -1.7091  0.6299
 2487TIP3    H228877   5.990   4.279   5.250  0.7197  0.5381 -2.6466
 2488TIP3   OH228878   4.973   5.647  13.655 -0.4140 -0.7336  0.1734
 2488TIP3    H128879   4.994   5.564  13.696  2.9915  0.2883  0.6212
 2488TIP3    H228880   5.006   5.713  13.716  0.9769  0.8673 -2.2285
 2489TIP3   OH228881   4.163   6.300  14.250 -0.0774 -0.0960 -0.1097
 2489TIP3    H128882   4.232   6.245  14.213  1.0043 -0.0550  1.7954
 2489TIP3    H228883   4.082   6.261  14.218  0.7201 -1.9353  0.0395
 2490TIP3   OH228884   1.162   0.461  11.791 -0.4998 -0.8628 -0.0425
 2490TIP3    H128885   1.212   0.391  11.834  0.9779 -0.4318 -1.0187
 2490TIP3    H228886   1.206   0.474  11.707 -1.5796  0.3217 -0.4446
 2491TIP3   OH228887   5.174   1.782   3.769 -0.2126 -0.5745  0.0922
 2491TIP3    H128888   5.165   1.843   3.842 -0.2223 -0.3442 -0.1022
 2491TIP3    H228889   5.264   1.748   3.777 -0.3668 -0.8982  0.4809
 2492TIP3   OH228890   2.117   3.771  12.208  0.1158  0.0962  0.2583
 2492TIP3    H128891   2.128   3.849  12.155  1.4081 -0.0136  0.3605
 2492TIP3    H228892   2.025   3.773  12.235  0.2688  1.8441  0.6808
 2493TIP3   OH228893   3.399   6.666  13.143  0.5316 -0.1601  0.1367
 2493TIP3    H128894   3.442   6.581  13.132  0.7858 -0.2251  1.5038
 2493TIP3    H228895   3.470   6.726  13.165  0.2219  0.1869  0.1956
 2494TIP3   OH228896   3.946   6.627  13.355  0.4077 -0.4101 -0.4907
 2494TIP3    H128897   3.993   6.563  13.408  1.6243  1.3377  0.5816
 2494TIP3    H228898   3.859   6.632  13.394  1.6316  1.6905  2.1074
 2495TIP3   OH228899   6.069   0.283   5.758 -0.3733 -0.6592  0.5694
 2495TIP3    H128900   6.037   0.251   5.674 -0.0806 -1.2124  0.6672
 2495TIP3    H228901   6.092   0.204   5.807 -0.8450 -0.3481  1.2883
 2496TIP3   OH228902   2.324   6.344  14.991  0.1561 -0.1483 -0.0106
 2496TIP3    H128903   2.310   6.433  14.960  1.6604  0.1643  0.1391
 2496TIP3    H228904   2.240   6.300  14.979 -0.3775  1.0702 -0.8224
 2497TIP3   OH228905   5.917   4.324   3.370 -0.0692 -0.0248 -0.3127
 2497TIP3    H128906   5.856   4.376   3.422 -0.0459 -0.3573  0.0523
 2497TIP3    H228907   5.897   4.346   3.279  0.5055  1.2483 -0.1433
 2498TIP3   OH228908   0.405   5.528   1.675 -0.3443 -0.5183 -0.1774
 2498TIP3    H128909   0.470   5.479   1.625  0.7016  0.2465  0.4020
 2498TIP3    H228910   0.321   5.506   1.634  0.4634 -0.0296 -2.1549
 2499TIP3   OH228911   4.857   0.381   3.831 -0.4353 -0.7286 -0.2950
 2499TIP3    H128912   4.801   0.379   3.909 -0.3570 -2.2563 -0.2474
 2499TIP3    H228913   4.905   0.298   3.835  0.1098 -0.4831 -1.5831
 2500TIP3   OH228914   3.094   4.475  15.237 -0.3045  0.3016 -0.3898
 2500TIP3    H128915   3.032   4.510  15.301  0.0943 -1.4693  0.9890
 2500TIP3    H228916   3.066   4.513  15.154 -2.0818  1.0161  0.5068
 2501TIP3   OH228917   5.247   2.696  13.789 -0.2955  0.0396 -0.4537
 2501TIP3    H128918   5.338   2.673  13.772 -0.4365 -0.1321 -0.9982
 2501TIP3    H228919   5.197   2.643  13.727 -0.7419  0.3974 -0.4055
 2502TIP3   OH228920   6.392   6.315   3.911  0.1601 -0.3651 -0.5884
 2502TIP3    H128921   6.486   6.333   3.920 -0.4280  2.1865  0.7710
 2502TIP3    H228922   6.377   6.240   3.968  0.7150  1.5428  2.1477
 2503TIP3   OH228923   5.787   2.213  11.251 -0.7298 -0.0177  0.0083
 2503TIP3    H128924   5.749   2.300  11.245  0.3465  0.4436 -0.1987
 2503TIP3    H228925   5.874   2.221  11.211 -1.2714 -1.5680 -1.5680
 2504TIP3   OH228926   3.429   4.621   5.215 -0.0436 -0.1423  0.0953
 2504TIP3    H128927   3.459   4.712   5.220  2.7259 -1.0256  0.1651
 2504TIP3    H228928   3.396   4.602   5.303 -1.1437  0.9619 -0.0736
 2505TIP3   OH228929   5.893   0.052   0.989  0.1212  0.1477  0.1206
 2505TIP3    H128930   5.954   0.116   1.026 -0.3715  0.9726 -0.4752
 2505TIP3    H228931   5.809   0.072   1.030  0.3811 -1.4173  1.4428
 2506TIP3   OH228932   0.136   5.409   1.566 -0.2555 -0.0676  0.3079
 2506TIP3    H128933   0.067   5.445   1.622 -0.6482  0.7320 -0.6774
 2506TIP3    H228934   0.116   5.442   1.478 -0.0191 -1.8369 -0.4460
 2507TIP3   OH228935   1.488   1.620  15.687  0.5284 -0.2294  0.4876
 2507TIP3    H128936   1.534   1.619  15.603  0.3996  0.0238  0.4149
 2507TIP3    H228937   1.474   1.527  15.707 -1.0414 -0.2701 -0.6440
 2508TIP3   OH228938   2.127   6.718   0.397 -0.6874  0.1366  0.2374
 2508TIP3    H128939   2.151   6.629   0.370 -0.2518  0.6598 -1.1559
 2508TIP3    H228940   2.195   6.744   0.458  0.9130  0.6428 -1.7110
 2509TIP3   OH228941   1.948   6.592  16.383  0.2422 -0.1267  0.4858
 2509TIP3    H128942   1.880   6.658  16.396 -0.2188 -0.9336  2.4857
 2509TIP3    H228943   1.915   6.535  16.314 -2.3099 -1.9362  3.0829
 2510TIP3   OH228944   2.729   5.265  15.608  0.4344  0.6378  0.0978
 2510TIP3    H128945   2.795   5.300  15.549 -0.3778  2.4250  0.2098
 2510TIP3    H228946   2.746   5.307  15.692  0.0733 -0.0253  0.5172
 2511TIP3   OH228947   5.013   3.760  14.104  0.1652 -0.2084  0.1501
 2511TIP3    H128948   5.020   3.679  14.054  0.4048  1.1170 -2.0221
 2511TIP3    H228949   4.929   3.798  14.076  0.4873  0.7438  0.4727
 2512TIP3   OH228950   2.271   1.332   4.681 -0.1816 -0.2882  0.1499
 2512TIP3    H128951   2.221   1.412   4.664  1.6020  0.4699 -1.6547
 2512TIP3    H228952   2.251   1.310   4.773 -1.0540  1.9427  0.5133
 2513TIP3   OH228953   1.366   4.365  12.920  0.3618  0.1962  0.3275
 2513TIP3    H128954   1.454   4.402  12.914  0.6961 -0.2480  2.2684
 2513TIP3    H228955   1.368   4.310  12.999 -0.5032 -2.8872 -1.6839
 2514TIP3   OH228956   2.139   4.656  10.969  0.2689  0.2201  0.0974
 2514TIP3    H128957   2.096   4.682  10.888  0.7435 -2.0762 -0.9347
 2514TIP3    H228958   2.192   4.581  10.945  0.7539 -0.2372  2.4538
 2515TIP3   OH228959   6.082   1.871  10.813  0.3652  0.2534  0.0168
 2515TIP3    H128960   6.032   1.877  10.731  1.3784  0.8168 -0.5661
 2515TIP3    H228961   6.064   1.954  10.857  0.7847  0.4530 -0.1894
 2516TIP3   OH228962   2.596   4.295  12.910  0.4387 -0.0704  0.4063
 2516TIP3    H128963   2.530   4.349  12.866 -0.4343 -1.8235 -0.5331
 2516TIP3    H228964   2.554   4.269  12.992  0.3275 -0.4164  0.2403
 2517TIP3   OH228965   0.280   2.970   4.061  0.0844 -0.1831 -0.0295
 2517TIP3    H128966   0.273   2.885   4.103 -1.3670  0.3460  0.8506
 2517TIP3    H228967   0.217   3.025   4.108  1.9731  1.7338  0.3392
 2518TIP3   OH228968   5.705   6.159  16.195 -0.5668  0.0607  0.1547
 2518TIP3    H128969   5.741   6.248  16.188 -2.6606  0.8274 -1.6174
 2518TIP3    H228970   5.768   6.104  16.148  0.9021  0.5460  1.5294
 2519TIP3   OH228971   0.692   1.449  13.994  0.1114  0.0437  0.1053
 2519TIP3    H128972   0.659   1.528  14.038  0.3016  0.3938 -0.3792
 2519TIP3    H228973   0.785   1.445  14.017 -0.3444 -1.1920  1.8431
 2520TIP3   OH228974   0.334   0.046   2.396 -0.1384  0.0898 -0.2225
 2520TIP3    H128975   0.403  -0.000   2.349  1.1129  2.0429 -0.3699
 2520TIP3    H228976   0.256   0.036   2.342  0.0308 -2.0404 -0.1109
 2521TIP3   OH228977   0.770   6.016   1.048  0.1364  0.2587 -0.2480
 2521TIP3    H128978   0.749   5.923   1.052 -1.6975  0.6918  0.7366
 2521TIP3    H228979   0.852   6.024   1.097 -0.6977 -0.5550  1.2940
 2522TIP3   OH228980   6.498   1.944  12.915 -0.2084 -0.0145 -0.4744
 2522TIP3    H128981   6.437   2.007  12.879  1.4125  1.1425 -1.2800
 2522TIP3    H228982   6.455   1.859  12.902 -1.4502  0.7316 -1.3966
 2523TIP3   OH228983   0.668   1.513   6.338 -0.0426  0.0408 -0.2232
 2523TIP3    H128984   0.670   1.417   6.339  1.2106  0.0638  0.4770
 2523TIP3    H228985   0.576   1.535   6.357 -0.3635 -1.0105 -0.5021
 2524TIP3   OH228986   1.483   1.439  13.690 -0.4256 -0.4698  0.4200
 2524TIP3    H128987   1.396   1.452  13.727 -0.7985 -1.5251 -0.0676
 2524TIP3    H228988   1.527   1.379  13.751  0.0871  0.3436  0.8546
 2525TIP3   OH228989   5.909   5.845  14.563 -0.0678  0.9574 -0.2244
 2525TIP3    H128990   5.838   5.780  14.558 -0.6481  1.5557  0.2309
 2525TIP3    H228991   5.864   5.929  14.570  0.6818  1.1772  2.1869
 2526TIP3   OH228992   1.269   2.483   4.612 -0.1563 -0.2520  0.3067
 2526TIP3    H128993   1.321   2.536   4.673  0.0170  1.6679 -1.4573
 2526TIP3    H228994   1.191   2.458   4.663  0.9976 -0.5503  1.9888
 2527TIP3   OH228995   5.386   2.280   2.496 -0.0761 -0.5563  0.2119
 2527TIP3    H128996   5.444   2.299   2.569  0.6049  1.4121 -0.8082
 2527TIP3    H228997   5.441   2.290   2.418 -1.5428  0.4133 -0.7212
 2528TIP3   OH228998   3.159   6.422   3.226 -0.6980  0.1499  0.5330
 2528TIP3    H128999   3.201   6.381   3.150 -2.2426  0.8445 -0.7081
 2528TIP3    H229000   3.143   6.512   3.199 -1.0085  0.4886  1.8002
 2529TIP3   OH229001   1.952   4.784  13.452  0.0737 -0.3888 -0.7956
 2529TIP3    H129002   1.939   4.731  13.374 -0.1890  0.8020 -1.5672
 2529TIP3    H229003   2.024   4.844  13.429 -0.7663  0.7304 -0.5365
 2530TIP3   OH229004   3.386   1.832  14.341 -0.2665  0.0217 -0.1668
 2530TIP3    H129005   3.318   1.799  14.400 -0.4531 -1.2942 -1.1054
 2530TIP3    H229006   3.466   1.788  14.369  0.1747  1.3933  0.7850
 2531TIP3   OH229007   5.716   5.213  14.989  0.3892  0.3265  0.1114
 2531TIP3    H129008   5.651   5.166  14.937  0.5878  0.9464 -0.6860
 2531TIP3    H229009   5.798   5.169  14.969  0.3268 -0.0316  0.6178
 2532TIP3   OH229010   1.041   0.660   3.587  0.5186  0.5326 -0.6359
 2532TIP3    H129011   1.080   0.718   3.522 -1.5367  1.2319 -1.3068
 2532TIP3    H229012   0.992   0.718   3.645 -0.4453 -0.3937 -0.5097
 2533TIP3   OH229013   4.139   6.260   4.550  0.2146  0.5733 -0.3511
 2533TIP3    H129014   4.150   6.280   4.643  3.7674  0.6818 -0.7328
 2533TIP3    H229015   4.044   6.260   4.537 -0.3817  0.0470  3.3655
 2534TIP3   OH229016   3.719   2.764   4.813 -0.2940 -0.0831 -0.1275
 2534TIP3    H129017   3.724   2.729   4.902 -3.9727  1.3420  0.7280
 2534TIP3    H229018   3.638   2.727   4.777 -1.4332  3.1906 -1.0994
 2535TIP3   OH229019   1.103   6.615  14.021  0.7540 -0.0728  0.5407
 2535TIP3    H129020   1.053   6.544  14.062  0.7112 -0.7815 -0.7157
 2535TIP3    H229021   1.059   6.695  14.050  0.7066 -0.5593  1.8462
 2536TIP3   OH229022   6.440   1.903  16.061 -0.1100 -0.1439 -0.2775
 2536TIP3    H129023   6.529   1.936  16.075  0.7336 -2.6358  0.6946
 2536TIP3    H229024   6.389   1.942  16.132 -0.0431  2.0429 -1.3844
 2537TIP3   OH229025   6.521   2.161   1.301  0.0729  0.0885 -0.3600
 2537TIP3    H129026   6.569   2.160   1.384  0.5821 -1.8270 -0.6499
 2537TIP3    H229027   6.548   2.243   1.259 -1.7260  2.0526  2.2082
 2538TIP3   OH229028   1.265   3.162   5.165 -0.1981 -0.1142  0.3305
 2538TIP3    H129029   1.247   3.254   5.182  1.3895 -0.0011  1.4544
 2538TIP3    H229030   1.195   3.115   5.210  0.9570  0.4113  2.7435
 2539TIP3   OH229031   4.990   4.388  12.382  0.4452  0.1854  0.0048
 2539TIP3    H129032   4.937   4.457  12.422  1.7194  0.5026  1.1690
 2539TIP3    H229033   4.974   4.311  12.435  1.9212  0.5378  0.9945
 2540TIP3   OH229034   2.965   6.449  13.279 -0.5116  0.0289  0.6697
 2540TIP3    H129035   2.897   6.446  13.347 -0.9580  0.5541  0.2489
 2540TIP3    H229036   2.926   6.500  13.209  0.7404  1.2690  0.8718
 2541TIP3   OH229037   0.303   3.439  16.869  0.4799  0.3908 -0.0285
 2541TIP3    H129038   0.335   3.400  16.787 -0.5621 -1.8720  0.6217
 2541TIP3    H229039   0.284   3.530  16.845  0.2273 -0.2111 -2.3108
 2542TIP3   OH229040   0.596   4.594  10.511  0.0886 -0.0086  0.0134
 2542TIP3    H129041   0.599   4.637  10.596  1.2393 -0.4011  0.1812
 2542TIP3    H229042   0.607   4.501  10.531  2.5682  0.0975 -0.7156
 2543TIP3   OH229043   2.209   6.097  16.655  0.1015  0.0146 -0.1866
 2543TIP3    H129044   2.166   6.028  16.604  0.9043 -0.0113 -0.8465
 2543TIP3    H229045   2.286   6.120  16.603  1.2173 -0.3477  1.2448
 2544TIP3   OH229046   4.073   1.707   4.932  0.1551 -0.1341 -0.2207
 2544TIP3    H129047   4.160   1.739   4.909 -1.2921  2.6265 -2.0699
 2544TIP3    H229048   4.050   1.755   5.011 -0.8216  1.2880 -1.3458
 2545TIP3   OH229049   3.315   5.256   4.293 -0.1336  0.2270 -0.0498
 2545TIP3    H129050   3.321   5.186   4.228 -0.3634  0.5528 -0.4289
 2545TIP3    H229051   3.381   5.234   4.359  0.7752  0.3926 -0.8802
 2546TIP3   OH229052   2.598   4.500   2.565  0.3154  0.7158 -0.3651
 2546TIP3    H129053   2.676   4.469   2.610  0.0765  1.6057  0.6926
 2546TIP3    H229054   2.551   4.420   2.541  0.8410  0.2136  0.2609
 2547TIP3   OH229055   0.955   0.061   1.249 -0.0641 -0.0584 -0.0064
 2547TIP3    H129056   0.975   0.057   1.156  1.4387  0.0951  0.3032
 2547TIP3    H229057   0.977  -0.026   1.283 -1.6234 -0.4600  0.0172
 2548TIP3   OH229058   3.097   0.982   4.776 -0.1042  0.6327 -0.2148
 2548TIP3    H129059   3.086   1.033   4.696 -1.4233  1.1190  0.2604
 2548TIP3    H229060   3.008   0.954   4.799  0.3998 -0.4543  0.4672
 2549TIP3   OH229061   0.613   6.490  16.193  0.6111 -0.1476  0.6394
 2549TIP3    H129062   0.535   6.515  16.242 -0.5036 -1.0559 -0.6283
 2549TIP3    H229063   0.633   6.566  16.139  1.2443  0.4784  1.7414
 2550TIP3   OH229064   1.674   5.526  15.818 -0.5952 -0.5561 -0.6212
 2550TIP3    H129065   1.623   5.583  15.875 -0.2531 -0.9991  0.1458
 2550TIP3    H229066   1.730   5.585  15.768  0.7612 -0.2848  1.1711
 2551TIP3   OH229067   4.726   4.619   1.304  0.2033  0.4452  0.1966
 2551TIP3    H129068   4.679   4.616   1.387  0.5291 -0.5383  0.3465
 2551TIP3    H229069   4.788   4.547   1.309  1.5027  1.5157 -0.1361
 2552TIP3   OH229070   1.048   2.204   2.308 -0.2882  0.4667  0.2550
 2552TIP3    H129071   1.040   2.212   2.403  0.2810  1.8420  0.2013
 2552TIP3    H229072   1.125   2.149   2.295  0.8658  1.9694  0.5859
 2553TIP3   OH229073   3.752   0.352   5.701 -0.2285 -0.6521 -0.5014
 2553TIP3    H129074   3.825   0.308   5.657 -0.2998 -1.7780  0.4698
 2553TIP3    H229075   3.740   0.433   5.653  0.9497 -0.9733 -1.3566
 2554TIP3   OH229076   0.743   2.888   4.291 -0.6141 -0.2940 -0.3107
 2554TIP3    H129077   0.698   2.945   4.229 -0.4608  0.3744  0.1788
 2554TIP3    H229078   0.672   2.844   4.338 -0.7376 -0.4013 -0.6000
 2555TIP3   OH229079   3.686   1.056  16.378 -0.4708 -0.2983  0.5816
 2555TIP3    H129080   3.708   0.968  16.409  1.4607 -0.4795 -1.1131
 2555TIP3    H229081   3.649   1.042  16.291 -0.9154  0.5198  0.6318
 2556TIP3   OH229082   2.794   4.727  14.388  0.1219 -0.6049 -0.2927
 2556TIP3    H129083   2.790   4.632  14.379 -1.7189 -0.6779  1.0113
 2556TIP3    H229084   2.721   4.759  14.334  1.2375  0.1272 -1.3896
 2557TIP3   OH229085   2.972   4.925   2.882  0.2761 -0.2338  0.2757
 2557TIP3    H129086   3.038   4.963   2.824  2.2987 -0.7450  2.1663
 2557TIP3    H229087   2.962   4.988   2.953 -1.8618  0.1846 -0.3540
 2558TIP3   OH229088   0.007   4.188   1.098 -0.0812  0.2436 -0.6046
 2558TIP3    H129089  -0.014   4.125   1.166 -0.6864  0.9283 -0.1444
 2558TIP3    H229090   0.018   4.271   1.145  0.6253  0.4928 -1.2055
 2559TIP3   OH229091   6.118   6.585   1.090 -0.6080 -0.5942  0.0268
 2559TIP3    H129092   6.056   6.566   1.020 -0.6182 -0.4527 -0.0044
 2559TIP3    H229093   6.155   6.670   1.066  0.1746 -1.0423 -0.3691
 2560TIP3   OH229094   0.270   4.871  10.979  0.2654 -0.6223 -0.0043
 2560TIP3    H129095   0.251   4.825  11.061  0.2793 -0.7654 -0.0806
 2560TIP3    H229096   0.184   4.878  10.936 -0.0846  1.2448  0.9449
 2561TIP3   OH229097   6.660   2.204   3.959  0.0051 -0.5323  0.1503
 2561TIP3    H129098   6.646   2.268   4.029  0.3409 -0.2056 -0.0755
 2561TIP3    H229099   6.694   2.127   4.003 -0.5929 -0.6275  0.4505
 2562TIP3   OH229100   1.370   6.260   4.856 -0.1525 -0.6578  0.3068
 2562TIP3    H129101   1.310   6.187   4.869  0.1645 -0.8219  0.8499
 2562TIP3    H229102   1.454   6.229   4.890  0.2036 -0.3743 -0.3057
 2563TIP3   OH229103   4.596   3.088  15.600  0.8167 -0.7234 -0.3370
 2563TIP3    H129104   4.641   3.023  15.547  1.0178 -0.8248 -0.0440
 2563TIP3    H229105   4.663   3.122  15.659 -0.0199 -2.6163  1.7805
 2564TIP3   OH229106   1.718   5.189   3.652 -0.0045 -0.1832 -0.2334
 2564TIP3    H129107   1.694   5.207   3.561  0.1883  1.3018 -0.0071
 2564TIP3    H229108   1.683   5.102   3.669 -1.5305  0.2128 -1.2153
 2565TIP3   OH229109   6.063   2.424   4.826 -0.3355 -0.7709  0.5993
 2565TIP3    H129110   6.100   2.509   4.848 -0.6642 -0.5886  0.4420
 2565TIP3    H229111   5.979   2.444   4.784 -0.7076 -1.1883  1.1370
 2566TIP3   OH229112   3.348   6.705   3.634  0.2443 -0.3685 -0.1875
 2566TIP3    H129113   3.384   6.634   3.580  0.4796 -1.9141  1.9198
 2566TIP3    H229114   3.346   6.668   3.723 -2.5423  1.1949  0.4470
 2567TIP3   OH229115   4.192   6.110  15.903  0.0303 -0.5225  0.6714
 2567TIP3    H129116   4.173   6.019  15.881 -1.4346  0.5965 -3.0225
 2567TIP3    H229117   4.111   6.158  15.883  0.4663  1.5070  3.3775
 2568TIP3   OH229118   1.290   2.628  16.783 -0.3763  0.7528 -0.4632
 2568TIP3    H129119   1.216   2.568  16.795  0.0891  0.6060  1.9195
 2568TIP3    H229120   1.322   2.608  16.695 -1.0839 -1.5640 -0.2489
 2569TIP3   OH229121   4.530   0.479   2.132  0.0603  0.5804  0.2894
 2569TIP3    H129122   4.624   0.465   2.117 -0.0636 -0.4443  0.4070
 2569TIP3    H229123   4.522   0.488   2.227 -0.0895 -0.4273  0.3796
 2570TIP3   OH229124   3.088   6.605  11.810  0.0712 -0.1214  0.2011
 2570TIP3    H129125   3.171   6.574  11.845  0.9223  1.3970 -0.4321
 2570TIP3    H229126   3.037   6.628  11.888  0.6450 -0.0371  0.5543
 2571TIP3   OH229127   3.060   3.201   4.192 -0.2794 -0.1355 -0.9273
 2571TIP3    H129128   2.982   3.168   4.148  0.7589 -0.3997 -2.6280
 2571TIP3    H229129   3.119   3.126   4.196  1.4049  1.0060 -3.2435
 2572TIP3   OH229130   0.120   6.733  14.744  0.5142 -0.2880  0.0988
 2572TIP3    H129131   0.039   6.759  14.789 -0.0644  0.5370 -1.3878
 2572TIP3    H229132   0.132   6.800  14.676  1.2195 -1.6579 -1.1396
 2573TIP3   OH229133   5.116   1.096  15.982  0.1259 -0.4041 -0.3262
 2573TIP3    H129134   5.127   1.191  15.972  0.8491 -0.4315  0.1400
 2573TIP3    H229135   5.035   1.086  16.032 -0.5229 -0.0734 -1.3012
 2574TIP3   OH229136   5.494   5.140  12.478  0.1519  0.0947  0.4091
 2574TIP3    H129137   5.404   5.170  12.492 -0.1950  0.6258 -2.6074
 2574TIP3    H229138   5.503   5.063  12.534 -2.8087 -1.0765 -0.6515
 2575TIP3   OH229139   3.104   4.718   4.928  0.8910 -0.5053  0.0569
 2575TIP3    H129140   3.174   4.783   4.920  1.1807 -0.6607  1.2734
 2575TIP3    H229141   3.037   4.762   4.981  0.6309 -0.8187 -0.0139
 2576TIP3   OH229142   3.354   0.894  16.672 -0.3309  0.1353  0.1169
 2576TIP3    H129143   3.353   0.929  16.583 -0.7080 -0.7544 -0.2309
 2576TIP3    H229144   3.328   0.968  16.727 -1.2714  0.3825 -0.6324
 2577TIP3   OH229145   2.747   1.645   3.199 -0.3076 -0.1443  1.0255
 2577TIP3    H129146   2.759   1.581   3.128  0.6072  0.0832  0.9738
 2577TIP3    H229147   2.766   1.730   3.159 -3.1377  0.3537  0.6667
 2578TIP3   OH229148   5.264   5.537   0.448  0.1070  0.1242  0.2323
 2578TIP3    H129149   5.356   5.531   0.476  0.2216 -1.5896 -0.4837
 2578TIP3    H229150   5.265   5.601   0.377  0.6409  0.6193  0.6814
 2579TIP3   OH229151   5.941   2.376  14.677 -0.1099  0.1731 -0.4240
 2579TIP3    H129152   5.923   2.401  14.768  0.4873 -1.3399  0.1246
 2579TIP3    H229153   5.859   2.393  14.631 -1.1640 -1.2467  0.8748
 2580TIP3   OH229154   4.483   4.977   0.249  0.1133  0.4034  0.2061
 2580TIP3    H129155   4.474   5.050   0.188 -1.2580 -1.4666 -1.9336
 2580TIP3    H229156   4.514   5.017   0.330  1.6994  3.0131 -1.6079
 2581TIP3   OH229157   3.100   3.537  13.356  0.2965 -0.0738  0.2622
 2581TIP3    H129158   3.098   3.595  13.432 -0.9371 -0.2053  0.3327
 2581TIP3    H229159   3.187   3.551  13.318  0.1217  1.5780  0.4616
 2582TIP3   OH229160   2.087   0.661  12.985  0.3621 -0.8776 -1.0519
 2582TIP3    H129161   2.086   0.678  13.080 -0.6708  0.0961 -1.2313
 2582TIP3    H229162   2.063   0.744  12.946 -0.5649 -1.6403 -2.1271
 2583TIP3   OH229163   4.522   5.149  12.940  0.0775  0.2398 -0.1760
 2583TIP3    H129164   4.562   5.236  12.947  0.7773 -0.1714  1.0142
 2583TIP3    H229165   4.499   5.126  13.030 -2.4252  0.2569 -0.7568
 2584TIP3   OH229166   0.444   2.184  11.405  0.6895 -0.0938  0.4542
 2584TIP3    H129167   0.358   2.189  11.362  0.2485 -1.1370  1.1654
 2584TIP3    H229168   0.495   2.254  11.366 -1.4523  2.5657  2.1424
 2585TIP3   OH229169   6.759   4.334   2.633 -0.3113 -0.1900  0.0683
 2585TIP3    H129170   6.818   4.409   2.633 -1.1813  0.4990 -1.2124
 2585TIP3    H229171   6.817   4.258   2.637  0.7116  0.4379 -2.4375
 2586TIP3   OH229172   5.260   5.161  13.480  0.8162  0.3712  0.0236
 2586TIP3    H129173   5.292   5.181  13.568  0.8192  1.3475 -0.1841
 2586TIP3    H229174   5.205   5.236  13.458 -0.7736 -0.7917 -0.0386
 2587TIP3   OH229175   5.556   2.607  11.542 -0.1386  0.4225  0.6438
 2587TIP3    H129176   5.503   2.686  11.541  0.8477  1.0788 -0.8123
 2587TIP3    H229177   5.510   2.545  11.485  0.8630  1.1424 -0.9719
 2588TIP3   OH229178   4.341   0.977  16.086  0.2049 -0.3879  0.6114
 2588TIP3    H129179   4.262   0.963  16.035 -0.4122  0.9892  1.1564
 2588TIP3    H229180   4.395   1.035  16.033  0.1293 -0.0003  0.9540
 2589TIP3   OH229181   5.705   2.754  12.974  0.3358  0.8121 -0.5091
 2589TIP3    H129182   5.650   2.719  13.045  1.5183 -1.0043 -0.4512
 2589TIP3    H229183   5.794   2.753  13.010  0.9075  0.1486 -1.9240
 2590TIP3   OH229184   0.993   0.983  12.163 -0.2913  0.4720 -0.4685
 2590TIP3    H129185   1.033   0.908  12.207  0.1988  0.4429 -0.9550
 2590TIP3    H229186   1.065   1.045  12.151 -0.4070  0.4633 -1.2573
 2591TIP3   OH229187   0.923   2.670  13.596 -0.0945 -0.6984 -0.4758
 2591TIP3    H129188   0.855   2.638  13.655  0.2962 -0.3559  0.1663
 2591TIP3    H229189   0.899   2.634  13.511 -0.9777 -0.7377 -0.2213
 2592TIP3   OH229190   3.801   0.268   4.838  0.4258  0.4117 -0.9171
 2592TIP3    H129191   3.821   0.244   4.928  2.5117 -0.8450 -1.6723
 2592TIP3    H229192   3.747   0.195   4.805  0.2905  0.5053 -0.9024
 2593TIP3   OH229193   5.056   2.840  13.427 -0.2240 -0.6055 -0.2310
 2593TIP3    H129194   5.110   2.905  13.381 -1.4090 -0.1627 -1.0172
 2593TIP3    H229195   4.970   2.881  13.434 -0.3833 -1.1691  1.3260
 2594TIP3   OH229196   1.766   1.970   4.405  0.1757  0.6302 -0.4645
 2594TIP3    H129197   1.691   2.025   4.429  0.0572  0.7824 -1.1811
 2594TIP3    H229198   1.838   2.003   4.458 -0.5429 -0.2883  1.1280
 2595TIP3   OH229199   1.957   6.544  13.613 -0.7221 -0.3093  0.1679
 2595TIP3    H129200   2.021   6.538  13.542 -0.3217 -1.2188  0.5989
 2595TIP3    H229201   1.890   6.478  13.590 -1.3148  0.3668 -0.0814
 2596TIP3   OH229202   4.878   2.978  12.690 -0.4743 -0.4576  0.3404
 2596TIP3    H129203   4.859   2.886  12.669  0.1970 -0.5327  0.0576
 2596TIP3    H229204   4.972   2.981  12.704 -0.4266  0.2731 -0.0767
 2597TIP3   OH229205   0.842   5.406  14.494  0.2366 -0.8091 -0.1067
 2597TIP3    H129206   0.899   5.330  14.487  0.0677 -1.0085  0.5995
 2597TIP3    H229207   0.757   5.376  14.461  0.5882 -0.4523 -1.3466
 2598TIP3   OH229208   0.928   1.273   4.599  0.2653  0.0091 -0.0662
 2598TIP3    H129209   0.832   1.269   4.594  0.3655 -3.7491 -0.1305
 2598TIP3    H229210   0.958   1.195   4.552  3.3605  0.7130  0.6398
 2599TIP3   OH229211   2.902   5.857   3.822  0.0644  0.1016 -0.2087
 2599TIP3    H129212   2.941   5.771   3.807  0.3446 -0.1350  1.7137
 2599TIP3    H229213   2.832   5.841   3.885 -0.1217  1.2254 -0.1177
 2600TIP3   OH229214   6.561   4.296  15.044 -0.4574 -0.1367  0.7228
 2600TIP3    H129215   6.550   4.265  14.954 -0.3418 -0.2497  0.7496
 2600TIP3    H229216   6.628   4.364  15.038 -0.7192  0.1205  0.6638
 2601TIP3   OH229217   4.689   5.525  11.650 -0.1590 -0.4268 -1.0576
 2601TIP3    H129218   4.741   5.465  11.597  0.6073  0.7741 -1.6750
 2601TIP3    H229219   4.683   5.605  11.598  0.4773  0.7290  0.5716
 2602TIP3   OH229220   0.227   1.634   0.392 -0.1330 -0.0689 -0.0400
 2602TIP3    H129221   0.247   1.544   0.367  0.5437 -0.0039  0.2382
 2602TIP3    H229222   0.142   1.652   0.352 -0.3671 -0.8978  0.0704
 2603TIP3   OH229223   6.344   1.096  15.340  0.3103  0.0104 -0.2069
 2603TIP3    H129224   6.301   1.180  15.323  0.0499  0.0520  0.6107
 2603TIP3    H229225   6.286   1.052  15.403  0.4010 -0.8166 -0.7012
 2604TIP3   OH229226   6.126   1.021  11.341 -0.6257 -0.0314  0.3427
 2604TIP3    H129227   6.174   1.010  11.423  0.8807  0.3142 -0.4689
 2604TIP3    H229228   6.189   0.998  11.273 -1.5711  0.5841 -0.7683
 2605TIP3   OH229229   5.165   1.907   5.686 -0.2245  0.2318  0.6217
 2605TIP3    H129230   5.156   1.992   5.644 -2.5213 -0.9702 -1.4377
 2605TIP3    H229231   5.218   1.856   5.624 -1.5921 -0.8117  0.2941
 2606TIP3   OH229232   5.951   5.279   3.513  0.2450  0.0408 -0.1449
 2606TIP3    H129233   5.908   5.210   3.563  0.4396  0.4057  0.5399
 2606TIP3    H229234   5.899   5.287   3.433 -2.5837  2.2188  1.7590
 2607TIP3   OH229235   6.003   3.834  11.163 -0.7098 -0.1415  0.3465
 2607TIP3    H129236   5.909   3.848  11.174 -1.1056 -2.6280  0.4840
 2607TIP3    H229237   6.039   3.921  11.150 -2.7507  1.0686  2.4219
 2608TIP3   OH229238   3.957   2.093  14.280  0.5637  0.2632  0.1821
 2608TIP3    H129239   3.906   2.173  14.287  0.6385  0.2382  1.0127
 2608TIP3    H229240   3.920   2.033  14.345 -0.6552 -1.0373 -1.6476
 2609TIP3   OH229241   4.087   5.450  13.159 -0.5264 -0.1478  0.8644
 2609TIP3    H129242   4.029   5.401  13.100 -1.1805 -0.1919  1.5422
 2609TIP3    H229243   4.028   5.494  13.219  0.0723  1.2439  0.4478
 2610TIP3   OH229244   1.920   5.404  13.545  0.0440  0.1495  0.0486
 2610TIP3    H129245   1.958   5.430  13.461 -0.7469  1.4589  0.0822
 2610TIP3    H229246   1.933   5.309  13.549  2.2773  0.4187 -0.4355
 2611TIP3   OH229247   0.539   6.656  13.690  0.6201 -0.3756  0.1927
 2611TIP3    H129248   0.561   6.563  13.689 -2.9614 -1.3162  1.0604
 2611TIP3    H229249   0.522   6.675  13.783  0.4857  0.8962 -0.0917
 2612TIP3   OH229250   2.948   2.670   4.241  0.2353  0.6330 -0.4965
 2612TIP3    H129251   2.875   2.712   4.286  0.7719  0.4913  0.5174
 2612TIP3    H229252   3.010   2.648   4.311  0.3191 -1.1228 -1.0922
 2613TIP3   OH229253   6.726   5.142   1.916 -0.0685 -0.0104  0.0550
 2613TIP3    H129254   6.677   5.132   1.998  1.1916  0.3733  0.8719
 2613TIP3    H229255   6.778   5.222   1.929  0.7719 -0.4143 -0.7864
 2614TIP3   OH229256   6.493   5.590   9.959  0.2828 -0.2089  0.4291
 2614TIP3    H129257   6.411   5.624   9.996  0.8390 -1.1767  2.6434
 2614TIP3    H229258   6.555   5.592  10.032  2.1096  0.0628 -1.0978
 2615TIP3   OH229259   6.530   6.780  11.833  0.3519 -0.6539  0.2733
 2615TIP3    H129260   6.470   6.728  11.780  0.5807 -0.4919 -0.1586
 2615TIP3    H229261   6.490   6.868  11.834  1.4312 -0.1046 -1.4692
 2616TIP3   OH229262   5.270   2.682   0.075  0.0092  0.1349  0.4461
 2616TIP3    H129263   5.264   2.586   0.072  0.0901  0.1441 -0.0450
 2616TIP3    H229264   5.179   2.711   0.073 -0.0192  0.0682  0.7104
 2617TIP3   OH229265   1.001   3.012   5.238 -0.1563 -0.7048  0.1153
 2617TIP3    H129266   1.050   2.935   5.267  0.4278 -0.9154 -1.3563
 2617TIP3    H229267   1.002   3.071   5.313  0.9306 -1.4007  0.6624
 2618TIP3   OH229268   2.347   0.324  16.625  0.1590 -0.0189 -0.6999
 2618TIP3    H129269   2.351   0.347  16.718  0.9910 -0.5824 -0.5966
 2618TIP3    H229270   2.359   0.408  16.580 -2.7090  0.6580 -0.3081
 2619TIP3   OH229271   4.519   5.400  16.948  0.1231 -0.9975 -0.0644
 2619TIP3    H129272   4.478   5.452  16.879 -1.5042 -0.5719  1.1945
 2619TIP3    H229273   4.531   5.313  16.909 -1.1227 -0.8611 -0.7674
 2620TIP3   OH229274   1.590   5.383   4.921 -0.2937  0.2921 -0.4006
 2620TIP3    H129275   1.500   5.399   4.891 -0.6511 -0.2541  0.3529
 2620TIP3    H229276   1.579   5.337   5.004  0.6870 -1.0103 -0.9724
 2621TIP3   OH229277   3.196   5.518   0.256 -0.0378 -0.1162  0.1013
 2621TIP3    H129278   3.131   5.584   0.230  1.5524  0.2914 -3.0636
 2621TIP3    H229279   3.147   5.457   0.311 -2.1737  2.2203  0.9375
 2622TIP3   OH229280   5.440   6.485  16.357 -0.2542  0.2206  0.7574
 2622TIP3    H129281   5.528   6.469  16.391 -0.1359 -1.1915 -0.1673
 2622TIP3    H229282   5.440   6.444  16.270 -2.1128 -0.5922  1.1351
 2623TIP3   OH229283   4.654   1.543   0.470 -0.0904 -0.1473  0.8834
 2623TIP3    H129284   4.679   1.504   0.554 -1.6984  0.1622  1.5162
 2623TIP3    H229285   4.668   1.473   0.406 -0.0239 -0.7690  1.5719
 2624TIP3   OH229286   2.441   4.907  13.254 -0.0311 -0.4052  0.4693
 2624TIP3    H129287   2.489   4.905  13.172  0.0099  0.1326  0.4785
 2624TIP3    H229288   2.503   4.873  13.319  0.5376  0.8198  0.5807
 2625TIP3   OH229289   6.595   1.364  13.063 -0.2139 -0.0395  0.2033
 2625TIP3    H129290   6.569   1.442  13.014 -1.9376  1.1439  2.8495
 2625TIP3    H229291   6.513   1.318  13.080  0.7047 -2.0384 -0.6277
 2626TIP3   OH229292   4.960   3.560   5.907  0.4795 -0.5810 -0.1291
 2626TIP3    H129293   4.929   3.585   5.994 -1.6162 -0.0154 -1.0003
 2626TIP3    H229294   4.961   3.464   5.908  1.1736 -0.5702  0.7387
 2627TIP3   OH229295   6.080   0.146   5.109  0.4160 -0.5149 -0.1077
 2627TIP3    H129296   5.986   0.148   5.129  0.7274 -1.2310  1.4883
 2627TIP3    H229297   6.086   0.180   5.020 -1.3143 -0.0104 -0.0519
 2628TIP3   OH229298   4.358   1.144  12.155 -0.3693  0.0318 -0.1635
 2628TIP3    H129299   4.360   1.055  12.122 -1.1116 -0.7333  1.7824
 2628TIP3    H229300   4.267   1.171  12.148  0.0291  1.0668 -1.7661
 2629TIP3   OH229301   3.081   4.279   2.509 -0.4759 -0.2843 -0.2454
 2629TIP3    H129302   3.013   4.328   2.556  1.3085  2.0498 -0.0048
 2629TIP3    H229303   3.104   4.335   2.435 -1.6181 -2.8932 -2.6705
 2630TIP3   OH229304   4.802   4.549  15.483  0.5866  0.0993 -0.2863
 2630TIP3    H129305   4.714   4.521  15.510 -0.1179  2.1161 -0.4409
 2630TIP3    H229306   4.850   4.467  15.471 -0.8476 -1.0008  1.1827
 2631TIP3   OH229307   4.393   2.516  15.766 -0.3156  0.1685  0.1709
 2631TIP3    H129308   4.318   2.569  15.741 -0.5071 -0.3082 -0.2925
 2631TIP3    H229309   4.384   2.436  15.714  0.6286  0.1960 -0.0432
 2632TIP3   OH229310   6.302   4.308  12.480 -0.0999 -0.1899  0.2004
 2632TIP3    H129311   6.272   4.390  12.441  2.0723  1.9388  2.8306
 2632TIP3    H229312   6.222   4.266  12.511 -1.1003  1.6577  0.1851
 2633TIP3   OH229313   4.432   0.003   1.827  0.2124  0.1469  0.4481
 2633TIP3    H129314   4.435   0.084   1.878 -1.5316  0.3584  0.2468
 2633TIP3    H229315   4.342  -0.029   1.837  0.4761 -1.0043 -0.6411
 2634TIP3   OH229316   5.306   4.142  11.192  0.2554 -0.4363 -0.1857
 2634TIP3    H129317   5.244   4.213  11.213 -0.5154 -1.3744  0.7588
 2634TIP3    H229318   5.380   4.187  11.152  0.7750  1.1905  2.4320
 2635TIP3   OH229319   0.220   6.109   5.314  0.7896 -0.2160  0.1293
 2635TIP3    H129320   0.263   6.054   5.249  1.0937  0.0477  0.1041
 2635TIP3    H229321   0.150   6.154   5.266 -0.0535 -1.2710  0.3532
 2636TIP3   OH229322   4.721   2.893  15.441  0.1791 -0.4301  0.3848
 2636TIP3    H129323   4.688   2.806  15.464 -1.4240 -0.1782 -0.8784
 2636TIP3    H229324   4.742   2.887  15.348  0.9037  0.2998  0.4951
 2637TIP3   OH229325   4.842   4.126  12.433 -0.4162 -0.0620  0.0943
 2637TIP3    H129326   4.752   4.143  12.460 -0.4176 -0.3868  0.2924
 2637TIP3    H229327   4.834   4.084  12.347 -0.4333  0.3654 -0.1170
 2638TIP3   OH229328   2.974   0.127  15.788  0.4220  0.2707 -0.4510
 2638TIP3    H129329   2.958   0.193  15.855  1.5098 -1.6892  1.8310
 2638TIP3    H229330   2.893   0.077  15.783  1.2045 -1.2265  1.3529
 2639TIP3   OH229331   0.765   6.462  11.407  0.4279 -0.4457 -0.0750
 2639TIP3    H129332   0.724   6.377  11.422 -0.3119 -0.2171 -0.7559
 2639TIP3    H229333   0.723   6.521  11.469 -1.3937  0.1194 -1.7732
 2640TIP3   OH229334   6.161   0.474   0.428  0.4662  0.6775  0.0899
 2640TIP3    H129335   6.124   0.396   0.387  0.2644  0.9024 -0.1604
 2640TIP3    H229336   6.092   0.540   0.421  0.0199  0.4253  1.7463
 2641TIP3   OH229337   5.276   3.086   6.089 -0.0901  0.3288  0.8906
 2641TIP3    H129338   5.230   3.163   6.055 -0.3159 -0.6005 -0.9881
 2641TIP3    H229339   5.226   3.061   6.167 -3.7271 -1.5001 -1.8882
 2642TIP3   OH229340   6.000   6.124   1.083  0.4815  0.2382 -0.2305
 2642TIP3    H129341   5.996   6.193   1.149  1.3900  0.8761 -0.8217
 2642TIP3    H229342   6.029   6.168   1.004 -0.0018 -0.6330 -0.9031
 2643TIP3   OH229343   2.877   0.875   0.145  0.0899  0.6882  0.1802
 2643TIP3    H129344   2.943   0.836   0.202 -1.1205 -0.1564  1.0366
 2643TIP3    H229345   2.858   0.959   0.186 -0.0638  0.5084  0.4860
 2644TIP3   OH229346   3.514   4.389  15.666 -0.0447  0.3669  0.0733
 2644TIP3    H129347   3.437   4.419  15.617  0.0883  2.9731  1.3639
 2644TIP3    H229348   3.587   4.405  15.607 -0.1825  0.7795  0.0123
 2645TIP3   OH229349   2.749   3.938   6.649 -0.4022 -0.3843 -0.0261
 2645TIP3    H129350   2.789   3.873   6.592  0.9353 -0.3665  0.8755
 2645TIP3    H229351   2.668   3.897   6.679 -1.2200 -0.3225 -2.0594
 2646TIP3   OH229352   0.529   0.158  11.898  0.2513  0.2816  0.1104
 2646TIP3    H129353   0.507   0.066  11.910  0.6923  0.3177  1.2319
 2646TIP3    H229354   0.623   0.158  11.878 -0.1151  0.3561 -1.7531
 2647TIP3   OH229355   5.201   3.866   2.942 -0.3156  0.3774 -0.7530
 2647TIP3    H129356   5.238   3.953   2.953  1.1905 -0.2534 -0.6674
 2647TIP3    H229357   5.106   3.879   2.944 -0.0979  1.9583 -0.4147
 2648TIP3   OH229358   4.004   5.069   4.588 -0.0298  0.6462  0.1813
 2648TIP3    H129359   4.055   4.999   4.628 -1.2394 -0.5060 -0.2523
 2648TIP3    H229360   4.055   5.096   4.512  0.8341  0.8067  0.8074
 2649TIP3   OH229361   5.610   5.924   6.562 -0.3619  0.3973 -0.6260
 2649TIP3    H129362   5.573   5.842   6.594  0.7143  0.4215  0.7243
 2649TIP3    H229363   5.536   5.969   6.521 -1.3429 -0.4956  0.1310
 2650TIP3   OH229364   6.414   3.980  16.991  0.3148 -0.4327  0.0364
 2650TIP3    H129365   6.478   4.042  16.956 -1.1852  1.3384  0.3706
 2650TIP3    H229366   6.396   3.920  16.918  0.2172  0.7968 -0.9714
 2651TIP3   OH229367   0.551   5.489   1.125  0.7920 -0.2540  0.7350
 2651TIP3    H129368   0.568   5.578   1.092 -0.6282  1.1638  3.5681
 2651TIP3    H229369   0.638   5.454   1.145  1.3058  1.0950  0.9668
 2652TIP3   OH229370   2.090   6.212  15.668  0.3148  0.1801 -0.5824
 2652TIP3    H129371   2.154   6.278  15.639 -0.5416  1.0377 -0.5558
 2652TIP3    H229372   2.061   6.244  15.754 -1.8306  1.0396 -1.5837
 2653TIP3   OH229373   2.924   3.586   3.431  0.3785 -0.3204  0.1174
 2653TIP3    H129374   2.978   3.610   3.507  0.7050  3.1899 -1.1282
 2653TIP3    H229375   2.984   3.538   3.374  1.3454  0.7691  0.1786
 2654TIP3   OH229376   2.641   6.098   4.475 -0.0692  0.0758 -0.0763
 2654TIP3    H129377   2.732   6.128   4.484  1.2322 -3.6141 -0.2019
 2654TIP3    H229378   2.632   6.075   4.383 -0.9860 -0.0083  0.0332
 2655TIP3   OH229379   3.000   5.113   6.078  0.1966  0.4220  0.5792
 2655TIP3    H129380   3.003   5.186   6.140  2.0297 -0.3498  1.4556
 2655TIP3    H229381   3.076   5.060   6.101 -1.0188 -1.6812 -0.1625
 2656TIP3   OH229382   2.561   2.982   6.726 -0.4693  0.0312  0.0947
 2656TIP3    H129383   2.576   2.894   6.760 -0.9759  0.2140  0.8232
 2656TIP3    H229384   2.648   3.015   6.705 -0.2478 -0.5216  0.1363
 2657TIP3   OH229385   5.942   4.836   4.406 -0.1746 -0.5440  0.0763
 2657TIP3    H129386   5.877   4.799   4.348 -0.1071  0.3185 -0.5511
 2657TIP3    H229387   5.973   4.762   4.458 -2.6484 -0.7319  1.3675
 2658TIP3   OH229388   2.447   4.379   0.791  0.0590 -0.3746  0.0003
 2658TIP3    H129389   2.515   4.368   0.857 -0.8946  0.3383  1.1230
 2658TIP3    H229390   2.365   4.363   0.838 -0.5668 -1.1117 -1.3110
 2659TIP3   OH229391   5.362   4.359  10.977 -0.2829  0.4646  0.6877
 2659TIP3    H129392   5.268   4.363  10.956 -0.2277  2.2862  0.6643
 2659TIP3    H229393   5.401   4.429  10.924  1.5163 -2.0449 -1.3739
 2660TIP3   OH229394   5.006   2.628   5.982  0.1570 -0.1712  0.5629
 2660TIP3    H129395   4.919   2.623   6.023 -0.0927  1.0272  0.2137
 2660TIP3    H229396   5.032   2.719   5.994  0.6940 -0.1584 -0.6831
 2661TIP3   OH229397   5.187   0.368  15.882 -0.0645 -0.2865 -0.0733
 2661TIP3    H129398   5.263   0.326  15.921  0.1614 -0.0975 -0.3110
 2661TIP3    H229399   5.149   0.301  15.824  0.5273 -0.0285 -0.7623
 2662TIP3   OH229400   2.438   4.736   6.761 -0.6979  0.5416  0.3393
 2662TIP3    H129401   2.499   4.764   6.693 -0.2167  2.1555  1.3884
 2662TIP3    H229402   2.400   4.655   6.728  0.7528  0.4171 -1.0995
 2663TIP3   OH229403   1.838   2.212  11.876  0.4689 -0.3894 -0.1288
 2663TIP3    H129404   1.910   2.160  11.840  0.8424 -0.8145  1.2209
 2663TIP3    H229405   1.799   2.254  11.799  0.7375 -1.9170 -1.1231
 2664TIP3   OH229406   2.515   4.762   1.439 -0.1742  0.1102  0.5485
 2664TIP3    H129407   2.559   4.818   1.375  0.5215 -0.6884  0.3198
 2664TIP3    H229408   2.502   4.819   1.515 -1.2820  1.1514 -0.3888
 2665TIP3   OH229409   3.942   3.944  13.360 -0.0506  0.2590  0.6655
 2665TIP3    H129410   3.910   3.903  13.279  0.4390 -2.0861  1.6007
 2665TIP3    H229411   3.923   4.037  13.349 -0.6258 -0.1046 -1.8476
 2666TIP3   OH229412   4.588   4.054   4.081 -0.3234  0.5652  0.1116
 2666TIP3    H129413   4.591   3.976   4.137  2.5125  0.2884 -0.3288
 2666TIP3    H229414   4.557   4.021   3.997  0.0093  0.0552  0.1798
 2667TIP3   OH229415   2.866   1.645   3.522 -0.2902  0.5911 -0.3941
 2667TIP3    H129416   2.787   1.673   3.568 -1.0448 -1.6922 -0.2799
 2667TIP3    H229417   2.923   1.611   3.590  0.8760  2.3470 -0.4590
 2668TIP3   OH229418   0.664   5.979  15.938  0.3174  0.1138  0.3735
 2668TIP3    H129419   0.659   6.061  15.888  2.6189  0.2588  0.3571
 2668TIP3    H229420   0.648   5.910  15.873 -1.8883  0.5325  0.4332
 2669TIP3   OH229421   1.076   6.388   2.459 -0.1036 -0.0217 -0.6767
 2669TIP3    H129422   1.134   6.462   2.471 -0.6012  0.2114  0.3840
 2669TIP3    H229423   1.121   6.315   2.501  0.9750 -0.6253 -2.8455
 2670TIP3   OH229424   2.579   5.093  12.630 -0.1773  0.1501 -0.3775
 2670TIP3    H129425   2.585   5.095  12.726  0.9174 -1.8565 -0.3702
 2670TIP3    H229426   2.592   5.184  12.603 -0.5734  0.7531  1.3725
 2671TIP3   OH229427   6.482   4.846   1.296  0.3912 -0.0343  0.1598
 2671TIP3    H129428   6.556   4.859   1.356  0.8945 -0.9074 -0.2643
 2671TIP3    H229429   6.406   4.878   1.345  0.8825 -0.1677  1.0313
 2672TIP3   OH229430   5.046   5.803  17.090 -0.1502 -0.5621  0.2338
 2672TIP3    H129431   5.038   5.863  17.016  1.3341 -1.8503 -1.0182
 2672TIP3    H229432   5.027   5.857  17.167  0.8501  1.4462 -0.8680
 2673TIP3   OH229433   3.347   5.078   3.689  0.0307 -0.0040  0.4265
 2673TIP3    H129434   3.283   5.016   3.654  0.6284 -0.1674 -0.4115
 2673TIP3    H229435   3.319   5.094   3.779 -0.7074 -0.7134  0.3298
 2674TIP3   OH229436   2.227   2.908  15.329  0.2315  0.0507  0.4510
 2674TIP3    H129437   2.264   2.984  15.284  0.0883  0.1426  0.4869
 2674TIP3    H229438   2.287   2.836  15.310 -1.4798 -0.6939 -2.5458
 2675TIP3   OH229439   3.769   4.596   6.179  0.1470 -0.2877  0.7415
 2675TIP3    H129440   3.790   4.689   6.179  0.1765 -0.2942  0.7708
 2675TIP3    H229441   3.726   4.581   6.263  1.2219 -0.5398  1.2493
 2676TIP3   OH229442   6.055   0.035  12.989 -0.2292 -0.0055  0.1529
 2676TIP3    H129443   6.023   0.071  13.072 -1.1846 -0.2312 -0.1078
 2676TIP3    H229444   6.150   0.040  12.996 -0.3010  0.0107  1.2498
 2677TIP3   OH229445   1.848   6.339  11.140 -0.1144  0.1809  0.2200
 2677TIP3    H129446   1.774   6.392  11.110  1.6936  2.1725 -0.8372
 2677TIP3    H229447   1.890   6.393  11.208  2.0610  0.3976 -1.2446
 2678TIP3   OH229448   1.526   4.662   3.816 -0.5357 -0.0588 -0.3313
 2678TIP3    H129449   1.479   4.687   3.736 -1.3084 -0.2274  0.0655
 2678TIP3    H229450   1.547   4.570   3.803  0.1525  0.1498 -0.7344
 2679TIP3   OH229451   6.415   0.564  16.111  0.5904  0.1142 -0.7488
 2679TIP3    H129452   6.484   0.627  16.132  1.3105 -0.4949 -1.2910
 2679TIP3    H229453   6.456   0.501  16.053  0.1411 -1.4224  0.5618
 2680TIP3   OH229454   1.281   4.935   0.265 -0.0594 -0.1915  0.0635
 2680TIP3    H129455   1.308   4.934   0.357 -1.5735  0.8341  0.5339
 2680TIP3    H229456   1.252   5.025   0.250  2.0845  0.2046 -1.9939
 2681TIP3   OH229457   1.077   2.870  14.866 -0.1433 -0.7719 -0.2953
 2681TIP3    H129458   1.096   2.778  14.848  0.5000 -0.5965 -0.5106
 2681TIP3    H229459   1.144   2.919  14.819 -0.3227 -0.1962  0.0314
 2682TIP3   OH229460   1.382   6.781   6.313  0.4092  0.5689  0.2809
 2682TIP3    H129461   1.402   6.842   6.383  1.4588  0.6806 -0.0949
 2682TIP3    H229462   1.384   6.695   6.355 -1.3047  0.8000  0.8566
 2683TIP3   OH229463   1.945   5.825  11.991  0.3138  0.3424  0.0105
 2683TIP3    H129464   1.892   5.778  11.927  1.5342  1.0859 -1.5872
 2683TIP3    H229465   1.882   5.856  12.056 -0.7092 -1.9681  0.1427
 2684TIP3   OH229466   4.938   0.177   6.310  0.7631 -0.3946 -0.0695
 2684TIP3    H129467   4.856   0.145   6.273  1.7719  0.0550 -2.8321
 2684TIP3    H229468   4.926   0.271   6.319  0.9719 -0.3214 -0.5205
 2685TIP3   OH229469   1.835   6.249   3.249 -0.1822 -0.1899 -0.0121
 2685TIP3    H129470   1.864   6.174   3.196 -0.2527 -1.6490  1.9742
 2685TIP3    H229471   1.753   6.277   3.207  0.1725 -0.8156 -1.1447
 2686TIP3   OH229472   1.023   1.923   5.799  0.3845 -0.6414  0.2279
 2686TIP3    H129473   0.971   1.970   5.864  1.3024  2.9876 -1.5356
 2686TIP3    H229474   1.112   1.957   5.810  0.5528  0.0996 -2.9260
 2687TIP3   OH229475   4.249   4.279  14.246 -0.4807  0.1449  0.2894
 2687TIP3    H129476   4.291   4.288  14.331 -1.2579 -0.5773  0.7517
 2687TIP3    H229477   4.224   4.187  14.241  1.4056 -0.3027 -1.5953
 2688TIP3   OH229478   2.102   5.049  14.230 -0.6226  0.1843  0.0061
 2688TIP3    H129479   2.117   5.143  14.216 -0.0658  0.1394  0.2868
 2688TIP3    H229480   2.122   5.009  14.146  1.6014  0.0415  0.5865
 2689TIP3   OH229481   6.509   3.840  15.478  0.1729  0.2557 -0.0097
 2689TIP3    H129482   6.472   3.752  15.490  0.9087 -0.3315 -1.9792
 2689TIP3    H229483   6.599   3.833  15.510  0.6555 -0.0743 -1.4167
 2690TIP3   OH229484   0.901   3.343   4.978 -0.0250 -0.5823 -0.0510
 2690TIP3    H129485   0.895   3.249   4.959 -3.2743 -0.2330 -0.9651
 2690TIP3    H229486   0.830   3.360   5.040  1.2824  1.0806  1.0310
 2691TIP3   OH229487   4.503   1.426   4.246 -0.6098 -0.2953  0.8038
 2691TIP3    H129488   4.580   1.482   4.248 -0.9290  0.2590 -1.1288
 2691TIP3    H229489   4.533   1.343   4.208 -0.8666 -0.2092  0.4013
 2692TIP3   OH229490   3.891   3.695  10.585  0.0920  0.3513 -0.1353
 2692TIP3    H129491   3.925   3.700  10.675 -1.1456 -0.5897  0.4081
 2692TIP3    H229492   3.926   3.613  10.551 -0.6988 -0.0668  0.0415
 2693TIP3   OH229493   6.666   6.307  16.082  0.1643  0.1857 -0.1626
 2693TIP3    H129494   6.668   6.402  16.070  1.0782 -0.1972 -3.6861
 2693TIP3    H229495   6.574   6.288  16.101 -0.8385  1.4246 -3.4412
 2694TIP3   OH229496   3.769   0.193   1.423 -0.1349 -0.0082 -0.0660
 2694TIP3    H129497   3.689   0.142   1.416 -0.4542  0.5638 -0.6111
 2694TIP3    H229498   3.837   0.135   1.388 -0.5093 -0.0321 -0.7644
 2695TIP3   OH229499   6.014   4.144   0.416 -0.2671  0.4723 -0.0651
 2695TIP3    H129500   6.049   4.115   0.500 -0.0195  0.8255 -0.0480
 2695TIP3    H229501   6.089   4.142   0.357 -0.1962  1.3074 -0.0077
 2696TIP3   OH229502   1.259   5.407  10.580 -0.5245  0.0474  0.3679
 2696TIP3    H129503   1.264   5.315  10.606 -0.9507 -0.1413 -0.2154
 2696TIP3    H229504   1.166   5.429  10.585 -0.8015 -0.3423 -2.1433
 2697TIP3   OH229505   3.579   3.639   3.283  0.5807  0.0989 -0.0232
 2697TIP3    H129506   3.494   3.612   3.318  0.0113  1.0529 -0.6483
 2697TIP3    H229507   3.560   3.716   3.230  1.5631 -0.7208 -1.6235
 2698TIP3   OH229508   4.456   4.837   3.505 -0.1877 -0.6430  0.3228
 2698TIP3    H129509   4.508   4.878   3.574 -0.3782 -0.6916  0.4962
 2698TIP3    H229510   4.374   4.813   3.548 -0.6692  0.1557 -0.1384
 2699TIP3   OH229511   4.938   4.848  12.629  0.1340 -0.4939  0.2233
 2699TIP3    H129512   4.997   4.910  12.585 -1.2179  2.7742  2.7902
 2699TIP3    H229513   4.994   4.774  12.652  1.7708 -0.3891 -3.0948
 2700TIP3   OH229514   1.446   3.324  12.799 -0.3850 -0.0507  0.4229
 2700TIP3    H129515   1.490   3.285  12.724  1.5556  1.8166  0.5391
 2700TIP3    H229516   1.398   3.399  12.764 -0.1747  0.3177  0.9109
 2701TIP3   OH229517   1.184   4.589  10.888 -0.0622 -0.4047  0.7071
 2701TIP3    H129518   1.179   4.638  10.806  1.7011 -0.7591  0.3751
 2701TIP3    H229519   1.107   4.532  10.886 -2.2834  2.4975  1.2281
 2702TIP3   OH229520   4.128   3.503  11.986  0.2683  0.2787  0.2179
 2702TIP3    H129521   4.219   3.509  12.015  0.3176  0.3186  0.0555
 2702TIP3    H229522   4.111   3.410  11.977 -0.0446  0.2218  1.3229
 2703TIP3   OH229523   0.651   4.845   2.770  0.0821 -0.2743  0.3062
 2703TIP3    H129524   0.560   4.817   2.767 -0.4404  1.4107 -0.6093
 2703TIP3    H229525   0.672   4.869   2.679  1.6179 -1.2102  0.4012
 2704TIP3   OH229526   2.019   0.487  15.932  0.3804  0.4343  0.0802
 2704TIP3    H129527   2.012   0.434  16.012 -0.9655 -0.3731 -0.5693
 2704TIP3    H229528   1.932   0.527  15.922  0.6065  0.6913 -0.8741
 2705TIP3   OH229529   0.648   0.222   4.095 -0.1009  0.3221 -0.0216
 2705TIP3    H129530   0.601   0.274   4.160 -3.1513 -2.3520  0.0417
 2705TIP3    H229531   0.646   0.133   4.130  4.7964 -0.0212 -0.2219
 2706TIP3   OH229532   1.206   4.677   0.589  0.6366 -0.0524 -0.0587
 2706TIP3    H129533   1.270   4.671   0.519  0.2855 -3.2725 -0.1865
 2706TIP3    H229534   1.138   4.736   0.554  1.0017 -0.7334 -2.0005
 2707TIP3   OH229535   5.434   2.688  15.448 -0.0499 -0.3690 -0.0823
 2707TIP3    H129536   5.363   2.699  15.511  0.5379  0.0426  0.5217
 2707TIP3    H229537   5.464   2.598  15.461  0.8622  0.0922  1.0772
 2708TIP3   OH229538   0.602   4.621  11.167  0.3300  1.0134  0.3641
 2708TIP3    H129539   0.551   4.697  11.194 -0.5176  0.6051 -0.0414
 2708TIP3    H229540   0.538   4.562  11.126  0.9980  0.1540  0.5258
 2709TIP3   OH229541   0.596   2.564  15.569  0.2165 -0.6587 -0.0505
 2709TIP3    H129542   0.690   2.581  15.575 -0.0316  0.1711  1.7974
 2709TIP3    H229543   0.584   2.481  15.615  0.0102 -0.6341 -0.0599
 2710TIP3   OH229544   0.361   1.014   4.841 -0.3749  0.7317 -0.0907
 2710TIP3    H129545   0.360   0.947   4.909 -0.2415  0.4527 -0.3638
 2710TIP3    H229546   0.434   0.990   4.784  0.9616  2.2386  0.9362
 2711TIP3   OH229547   2.102   4.986   3.249  0.1463 -0.3243 -0.3914
 2711TIP3    H129548   2.010   4.974   3.275  0.3635 -0.6141  0.2428
 2711TIP3    H229549   2.114   5.081   3.247  0.1013 -0.3031  0.4698
 2712TIP3   OH229550   6.497   0.162  16.616 -0.2448  0.4694  0.1770
 2712TIP3    H129551   6.546   0.223  16.562  0.0408 -0.3034 -0.4458
 2712TIP3    H229552   6.545   0.079  16.609 -1.7948 -0.3894 -0.7092
 2713TIP3   OH229553   0.052   0.912  15.185 -0.1837  0.1665 -0.2075
 2713TIP3    H129554   0.127   0.966  15.211 -1.2759  1.0355  1.1948
 2713TIP3    H229555   0.020   0.954  15.105  0.6099 -0.0195 -0.6351
 2714TIP3   OH229556   2.890   4.390   0.710 -0.6494  0.3273  0.5579
 2714TIP3    H129557   2.848   4.309   0.738 -0.8078  0.5208  0.8847
 2714TIP3    H229558   2.819   4.454   0.707 -0.6416  0.2952 -0.3339
 2715TIP3   OH229559   3.366   4.054  14.555  0.5579 -0.1085 -0.1378
 2715TIP3    H129560   3.320   4.106  14.621  2.1289  0.5205  0.4917
 2715TIP3    H229561   3.305   4.048  14.482 -0.3513  1.0784  0.5126
 2716TIP3   OH229562   2.356   4.354  15.508 -0.9771  0.3275  0.4169
 2716TIP3    H129563   2.336   4.433  15.459 -1.1549  1.5063  2.3318
 2716TIP3    H229564   2.304   4.361  15.588 -1.1830 -1.8496  0.5151
 2717TIP3   OH229565   5.366   4.928   3.244 -0.4010  0.3122  0.0589
 2717TIP3    H129566   5.340   5.015   3.215 -1.0657 -0.2476 -1.0833
 2717TIP3    H229567   5.283   4.880   3.252 -0.0345 -0.2407  0.5649
 2718TIP3   OH229568   4.733   2.992  13.025  0.4884  0.2286 -0.1362
 2718TIP3    H129569   4.695   3.050  13.092 -0.8052 -1.2260  0.4450
 2718TIP3    H229570   4.673   3.000  12.950  1.5535  1.3290 -0.8896
 2719TIP3   OH229571   6.040   3.953  16.417  0.1003  0.0675 -0.3722
 2719TIP3    H129572   6.033   3.860  16.399 -1.0385  0.0322  0.2583
 2719TIP3    H229573   5.967   3.973  16.475  0.3325  1.3542 -0.4974
 2720TIP3   OH229574   0.345   4.490  11.320  0.0171 -0.3353  0.5258
 2720TIP3    H129575   0.433   4.457  11.334  0.2702  0.4358  0.7565
 2720TIP3    H229576   0.322   4.532  11.403 -0.7415 -0.9369  0.6261
 2721TIP3   OH229577   1.431   3.174   6.097 -0.1573  0.1081 -0.3457
 2721TIP3    H129578   1.464   3.088   6.119  1.8395  1.2240  1.1573
 2721TIP3    H229579   1.395   3.208   6.179 -1.0546  0.6755 -0.9535
 2722TIP3   OH229580   0.773   6.238   0.910  0.2976  0.2585 -0.2948
 2722TIP3    H129581   0.764   6.303   0.980  0.7227  0.4678 -0.4334
 2722TIP3    H229582   0.765   6.154   0.955 -1.2212  0.4165 -0.2543
 2723TIP3   OH229583   4.482   0.265  16.586  0.6176  0.7253  0.1143
 2723TIP3    H129584   4.564   0.217  16.574  0.0958 -0.2186  0.3214
 2723TIP3    H229585   4.427   0.238  16.512  1.0697  2.6077 -0.9522
 2724TIP3   OH229586   3.503   4.821  13.318  0.7404 -0.0915  0.0106
 2724TIP3    H129587   3.411   4.830  13.292  0.3378 -1.4834  0.9402
 2724TIP3    H229588   3.502   4.829  13.413  1.3120 -2.3334  0.2165
 2725TIP3   OH229589   3.118   5.550   4.235 -0.2675  0.4565 -0.0064
 2725TIP3    H129590   3.174   5.609   4.185  0.9932  0.9673  1.9645
 2725TIP3    H229591   3.178   5.485   4.271 -1.5950 -1.8272 -1.8062
 2726TIP3   OH229592   5.864   3.781  15.485  0.0787 -0.2399 -0.6393
 2726TIP3    H129593   5.924   3.714  15.452 -0.6400 -1.3231  0.2140
 2726TIP3    H229594   5.803   3.796  15.413  1.1833  0.6642 -1.4091
 2727TIP3   OH229595   4.911   3.390  11.093 -0.3903  0.0233  0.0080
 2727TIP3    H129596   4.906   3.295  11.085 -0.7668  0.0488 -0.0831
 2727TIP3    H229597   4.997   3.413  11.058 -0.1780 -0.3113  0.3022
 2728TIP3   OH229598   4.623   4.017   5.015 -0.1783 -0.3555  0.1037
 2728TIP3    H129599   4.666   4.027   4.930  1.5131 -0.3578  0.9298
 2728TIP3    H229600   4.585   4.103   5.033 -1.8298 -0.7766 -1.3225
 2729TIP3   OH229601   4.567   3.753  12.779 -0.2400 -0.2294  0.2645
 2729TIP3    H129602   4.528   3.840  12.784  0.1327 -0.0703  0.4149
 2729TIP3    H229603   4.530   3.715  12.699  1.4272  0.9711 -1.1373
 2730TIP3   OH229604   1.730   6.580  11.854 -0.2760 -0.3133 -0.0435
 2730TIP3    H129605   1.640   6.548  11.853 -0.4984  0.2095  1.4996
 2730TIP3    H229606   1.771   6.536  11.927  0.1394  0.9694  0.5178
 2731TIP3   OH229607   5.978   4.468  11.688  0.6056  0.1608  0.2066
 2731TIP3    H129608   5.883   4.474  11.681  0.9462  2.4053 -4.0517
 2731TIP3    H229609   6.000   4.385  11.646  0.5846 -0.1462  0.7946
 2732TIP3   OH229610   3.362   3.865   0.655 -1.0348 -0.2842  0.0701
 2732TIP3    H129611   3.334   3.841   0.566  1.1561 -1.8837 -0.2230
 2732TIP3    H229612   3.440   3.918   0.641  1.6149 -3.7091  1.0537
 2733TIP3   OH229613   4.639   4.339   1.179 -0.2606  0.2598  0.2332
 2733TIP3    H129614   4.544   4.341   1.189 -0.3762  1.9996 -0.9098
 2733TIP3    H229615   4.653   4.322   1.086  0.6044 -2.8928  0.8981
 2734TIP3   OH229616   1.267   0.163   3.020  0.0222  0.2518  0.2849
 2734TIP3    H129617   1.333   0.110   3.065 -0.9355 -1.0749  0.1636
 2734TIP3    H229618   1.311   0.195   2.941  0.5062 -0.6362  0.1912
 2735TIP3   OH229619   4.059   3.574  16.098 -0.6265 -0.1129 -0.2026
 2735TIP3    H129620   3.979   3.558  16.148 -1.5421  0.3896 -1.4916
 2735TIP3    H229621   4.064   3.670  16.092  1.2233 -0.0317  1.6840
 2736TIP3   OH229622   0.062   5.696  13.449  1.1071  0.0549 -0.2043
 2736TIP3    H129623  -0.003   5.766  13.454  1.4578  0.3408  0.3563
 2736TIP3    H229624   0.131   5.723  13.510  1.7047 -0.2987 -0.7290
 2737TIP3   OH229625   5.667   5.332  14.035  0.7469 -0.4266 -0.0039
 2737TIP3    H129626   5.625   5.384  14.104  2.0970  1.0391 -0.2689
 2737TIP3    H229627   5.648   5.380  13.954  2.2651 -0.1629 -0.2109
 2738TIP3   OH229628   6.501   2.529  12.007  0.4748  0.3852  0.1894
 2738TIP3    H129629   6.497   2.602  12.068 -0.8996 -2.0655  3.1680
 2738TIP3    H229630   6.570   2.472  12.042 -0.3358 -1.0603 -0.5091
 2739TIP3   OH229631   4.253   2.706  14.535  0.5616 -0.3103 -0.5588
 2739TIP3    H129632   4.300   2.645  14.591  1.1501  0.9382  0.3164
 2739TIP3    H229633   4.320   2.767  14.505 -0.5558  1.7414  1.0313
 2740TIP3   OH229634   5.794   4.442   5.497  0.4309  0.4307 -0.1817
 2740TIP3    H129635   5.763   4.356   5.470  0.9121 -1.0811  3.6708
 2740TIP3    H229636   5.857   4.467   5.430  1.2095 -2.8295 -0.7574
 2741TIP3   OH229637   3.677   3.698   1.272  0.0394  0.1381 -0.3246
 2741TIP3    H129638   3.616   3.715   1.200  1.1148  0.0333 -1.2546
 2741TIP3    H229639   3.634   3.738   1.348  0.2925  2.8829 -1.5769
 2742TIP3   OH229640   3.846   3.498   1.151 -0.2515 -0.0857 -0.7067
 2742TIP3    H129641   3.804   3.416   1.174 -0.5386  0.1317 -0.4532
 2742TIP3    H229642   3.793   3.566   1.193 -0.1066  0.2399 -1.0345
 2743TIP3   OH229643   0.658   5.746  13.267  0.1677  0.6361  0.0790
 2743TIP3    H129644   0.685   5.692  13.193  0.6745 -0.0386  0.7305
 2743TIP3    H229645   0.569   5.717  13.287 -0.5168  1.8706 -1.1980
 2744TIP3   OH229646   0.118   4.628   4.294  0.2746  0.0499 -0.4173
 2744TIP3    H129647   0.026   4.604   4.291 -0.4154  2.1747  2.2275
 2744TIP3    H229648   0.158   4.564   4.352  0.1257  0.1777 -0.1752
 2745TIP3   OH229649   1.884   3.898  14.456 -0.4768  0.5094  0.3422
 2745TIP3    H129650   1.965   3.848  14.445 -1.4492 -0.5682 -2.2539
 2745TIP3    H229651   1.904   3.984  14.418 -0.5561  0.2087 -0.3983
 2746TIP3   OH229652   2.841   0.252  13.114  0.0655  0.0183 -0.2398
 2746TIP3    H129653   2.905   0.299  13.060  0.9689  0.7190  1.4072
 2746TIP3    H229654   2.828   0.169  13.068  1.3440  0.3131 -1.1803
 2747TIP3   OH229655   0.461   4.260  14.826  0.2990  0.1083  0.3661
 2747TIP3    H129656   0.430   4.336  14.873 -0.8659 -0.0678 -0.0986
 2747TIP3    H229657   0.521   4.217  14.886  0.8711  1.3252  0.6693
 2748TIP3   OH229658   2.561   6.234  14.282  0.6040  0.3001 -0.5307
 2748TIP3    H129659   2.556   6.272  14.195 -0.2877 -0.9044 -1.0278
 2748TIP3    H229660   2.515   6.297  14.338  1.9635  1.5177 -0.7532
 2749TIP3   OH229661   2.055   5.278  15.725 -0.0100 -0.1926 -0.3881
 2749TIP3    H129662   1.980   5.323  15.765 -0.4579 -0.5415 -0.8263
 2749TIP3    H229663   2.023   5.249  15.640  0.8983  0.4258 -0.9568
 2750TIP3   OH229664   0.514   2.647  13.991  0.3810  0.1994  0.3598
 2750TIP3    H129665   0.552   2.667  14.076  0.2203  1.2049  0.2043
 2750TIP3    H229666   0.421   2.636  14.008  0.0459  2.3097  0.0297
 2751TIP3   OH229667   0.487   1.738   3.401  0.7366 -0.4062 -0.7612
 2751TIP3    H129668   0.564   1.768   3.451  0.1363  0.6322 -0.4446
 2751TIP3    H229669   0.502   1.645   3.388  2.7993  0.0562 -1.9919
 2752TIP3   OH229670   3.697   2.591  15.065  0.0615 -0.0208  0.2776
 2752TIP3    H129671   3.674   2.607  15.157 -0.0319  0.5742  0.1531
 2752TIP3    H229672   3.691   2.677  15.024  0.6369 -0.1914 -0.1717
 2753TIP3   OH229673   5.116   0.127   2.818 -0.0930 -0.2801 -0.7900
 2753TIP3    H129674   5.094   0.084   2.736  1.6020 -1.3874 -0.6742
 2753TIP3    H229675   5.132   0.056   2.880 -0.9981  0.5363  0.4184
 2754TIP3   OH229676   6.038   0.965   6.050  0.2881 -0.2069 -0.4407
 2754TIP3    H129677   6.041   1.060   6.060  1.4439 -0.4934  2.5660
 2754TIP3    H229678   5.994   0.950   5.967 -0.1536  2.9515 -0.8057
 2755TIP3   OH229679   2.150   1.700  10.818  0.3103  0.2284  0.5219
 2755TIP3    H129680   2.217   1.748  10.867 -1.7267  0.2325  3.4255
 2755TIP3    H229681   2.135   1.621  10.869  0.3249 -1.3248 -1.8075
 2756TIP3   OH229682   5.056   3.935   0.903 -0.1115  0.0116  0.1983
 2756TIP3    H129683   5.009   4.018   0.898  0.8234  0.5750  0.7669
 2756TIP3    H229684   5.000   3.873   0.856 -0.3690  1.1568 -1.0262
 2757TIP3   OH229685   4.731   0.296  13.110  0.1317 -0.0591 -0.5002
 2757TIP3    H129686   4.761   0.262  13.026  0.0136 -0.2692 -0.4553
 2757TIP3    H229687   4.637   0.312  13.097  0.3431  1.0490 -0.7932
 2758TIP3   OH229688   1.317   0.483   2.358  0.0938 -0.4432 -0.6262
 2758TIP3    H129689   1.256   0.457   2.426  1.7982  2.6815  2.2639
 2758TIP3    H229690   1.389   0.421   2.365 -1.0454 -1.8876 -1.5598
 2759TIP3   OH229691   4.372   0.425  13.889 -0.1756 -0.3594 -0.0827
 2759TIP3    H129692   4.357   0.351  13.831  1.1914 -1.5860  1.1133
 2759TIP3    H229693   4.316   0.409  13.964  0.9225 -0.7514  0.6682
 2760TIP3   OH229694   3.927   3.386   4.104  0.4105  0.5528  0.1201
 2760TIP3    H129695   4.002   3.376   4.164  0.0669  0.2727  0.5097
 2760TIP3    H229696   3.918   3.300   4.063 -0.4542  0.2117  0.9827
 2761TIP3   OH229697   3.548   4.248   4.530 -0.5407 -0.2025  0.3795
 2761TIP3    H129698   3.613   4.226   4.596  0.0411  1.8761  0.5341
 2761TIP3    H229699   3.525   4.164   4.490 -0.6418 -1.4396  2.9466
 2762TIP3   OH229700   4.014   4.007   1.155  0.0255  0.3468 -0.0359
 2762TIP3    H129701   3.955   4.027   1.082 -0.7194 -0.3307  0.3734
 2762TIP3    H229702   4.096   4.051   1.132 -0.8336  1.8569 -0.2938
 2763TIP3   OH229703   1.159   3.650   3.626 -0.0737 -0.6211 -0.3742
 2763TIP3    H129704   1.157   3.611   3.713 -0.0933  1.5069  0.6118
 2763TIP3    H229705   1.183   3.578   3.568 -3.0966 -2.8162  0.9427
 2764TIP3   OH229706   1.480   5.714   1.873 -0.1474 -0.0424  0.0049
 2764TIP3    H129707   1.548   5.663   1.917 -0.3018 -0.4994 -0.2784
 2764TIP3    H229708   1.400   5.694   1.922 -0.0374  0.6860  0.4898
 2765TIP3   OH229709   4.958   1.036  14.399  0.0271  0.0092  0.3919
 2765TIP3    H129710   4.886   1.027  14.462 -0.1540  0.0463  0.1896
 2765TIP3    H229711   5.036   1.045  14.454 -0.0508 -0.5870  0.6159
 2766TIP3   OH229712   6.350   5.866  15.230 -0.4842  0.3009  0.1814
 2766TIP3    H129713   6.381   5.928  15.296 -2.1434  0.1374  1.1370
 2766TIP3    H229714   6.395   5.784  15.252 -0.4978  0.4228  0.6668
 2767TIP3   OH229715   4.638   1.006   5.739  0.0305 -0.4039 -0.3021
 2767TIP3    H129716   4.699   1.079   5.730  0.5436 -0.9976 -1.8250
 2767TIP3    H229717   4.584   1.029   5.815 -0.5262  2.0835 -1.4021
 2768TIP3   OH229718   3.110   2.869  16.616  0.0730 -0.5413  0.5175
 2768TIP3    H129719   3.093   2.838  16.705 -4.1061  0.2365  0.0516
 2768TIP3    H229720   3.063   2.807  16.559  0.5935  0.4413 -1.0174
 2769TIP3   OH229721   0.356   3.085   5.419  0.4815  0.6261  0.1902
 2769TIP3    H129722   0.276   3.036   5.401  0.7140 -0.3848  1.7214
 2769TIP3    H229723   0.358   3.091   5.515  2.0587  0.9200  0.1426
 2770TIP3   OH229724   3.106   4.782   0.223 -0.3413  0.1550 -0.4529
 2770TIP3    H129725   3.151   4.728   0.158 -0.9437  0.7294 -1.3659
 2770TIP3    H229726   3.140   4.871   0.208  1.1512 -0.0698  1.4837
 2771TIP3   OH229727   5.735   4.253   2.746  0.6114 -0.0648  0.1625
 2771TIP3    H129728   5.748   4.197   2.669  1.5609  0.5543 -0.1397
 2771TIP3    H229729   5.714   4.339   2.710  0.2411  0.0356  0.6110
 2772TIP3   OH229730   5.860   5.649  10.608 -0.1265  0.5446 -0.0788
 2772TIP3    H129731   5.816   5.621  10.528 -1.2261 -0.1602  0.7558
 2772TIP3    H229732   5.859   5.572  10.664  0.8280  0.9703  0.5402
 2773TIP3   OH229733   4.181   2.709   3.946  0.2112  0.0294  0.1998
 2773TIP3    H129734   4.147   2.639   3.891  0.5253  0.0665 -0.0441
 2773TIP3    H229735   4.179   2.673   4.035  1.6499 -0.7963 -0.0797
 2774TIP3   OH229736   2.302   5.150  13.859  0.1142 -0.2873  0.3520
 2774TIP3    H129737   2.390   5.186  13.846 -0.1194  0.4948  0.9349
 2774TIP3    H229738   2.245   5.226  13.863 -0.2600 -0.6550  2.5446
 2775TIP3   OH229739   3.400   1.156   1.842 -0.0951  0.6797 -0.2382
 2775TIP3    H129740   3.354   1.091   1.896  0.6530  0.1037 -0.2698
 2775TIP3    H229741   3.377   1.240   1.881 -2.9590  0.5947 -1.6319
 2776TIP3   OH229742   1.872   2.636  15.626  0.4842  0.0354 -0.3143
 2776TIP3    H129743   1.931   2.648  15.552  0.8117  1.2296  0.1191
 2776TIP3    H229744   1.923   2.661  15.702 -0.2875  0.2060  0.1595
 2777TIP3   OH229745   5.116   4.609  13.303  0.4858  0.0350  0.6084
 2777TIP3    H129746   5.170   4.673  13.257  1.6793 -0.9430  0.6097
 2777TIP3    H229747   5.123   4.633  13.395 -1.8756  1.9708  0.3236
 2778TIP3   OH229748   4.895   5.869  11.563 -0.0501 -0.6029 -0.6405
 2778TIP3    H129749   4.911   5.796  11.503 -0.8456 -1.2687 -0.0612
 2778TIP3    H229750   4.981   5.893  11.596  0.3222 -0.6561 -1.5442
 2779TIP3   OH229751   2.151   4.357   4.138 -0.3445 -0.1311 -0.1803
 2779TIP3    H129752   2.162   4.305   4.059  0.6141  1.4687 -1.1272
 2779TIP3    H229753   2.057   4.370   4.146 -0.5904 -1.9854  0.0702
 2780TIP3   OH229754   1.936   4.669  13.217  0.2580  0.1190  0.0199
 2780TIP3    H129755   1.955   4.681  13.124 -0.3216 -3.0894 -0.5804
 2780TIP3    H229756   1.857   4.615  13.218  0.9185 -0.8625  2.3747
 2781TIP3   OH229757   6.080   0.189  11.260 -0.1862  0.1965  0.7438
 2781TIP3    H129758   6.013   0.235  11.209  1.1351  2.6481  1.1487
 2781TIP3    H229759   6.141   0.257  11.288  1.6870 -1.7623  1.6534
 2782TIP3   OH229760   0.339   1.773  14.642 -0.2331  0.1367 -0.1872
 2782TIP3    H129761   0.340   1.857  14.597 -1.7611  0.4630  0.3525
 2782TIP3    H229762   0.252   1.768  14.682  0.0833 -1.3919  0.3613
 2783TIP3   OH229763   3.129   5.782  14.715  0.4799 -0.6294  0.1598
 2783TIP3    H129764   3.083   5.850  14.665  1.0538 -1.3105 -1.3230
 2783TIP3    H229765   3.065   5.750  14.778 -1.0879 -1.6226 -1.9252
 2784TIP3   OH229766   0.165   4.241  13.131  0.2764 -0.1932 -0.3043
 2784TIP3    H129767   0.094   4.263  13.192 -0.3984 -0.1511 -1.0890
 2784TIP3    H229768   0.163   4.146  13.125 -1.2901 -0.0894 -2.1321
 2785TIP3   OH229769   1.330   6.201  11.366  0.5015 -0.8833 -0.0902
 2785TIP3    H129770   1.284   6.206  11.282 -0.0767  0.4574  0.2835
 2785TIP3    H229771   1.419   6.230  11.346  0.1016  0.4061 -0.0735
 2786TIP3   OH229772   3.526   4.783   3.941 -0.5378  0.3754 -0.1965
 2786TIP3    H129773   3.568   4.717   3.886 -1.5375 -0.1833 -0.3050
 2786TIP3    H229774   3.579   4.862   3.928  0.7133 -0.4258  0.0109
 2787TIP3   OH229775   2.323   0.501  15.367 -0.3960  0.7478  0.2653
 2787TIP3    H129776   2.257   0.569  15.377 -0.9598  0.3059 -0.3620
 2787TIP3    H229777   2.272   0.419  15.363  0.3341  0.1802  2.1666
 2788TIP3   OH229778   6.660   5.512  16.304 -0.3234 -0.0347  0.1879
 2788TIP3    H129779   6.741   5.463  16.292  0.0122  0.6277 -0.2652
 2788TIP3    H229780   6.592   5.445  16.309  0.3876 -0.6821  1.8472
 2789TIP3   OH229781   1.310   2.617  16.488  0.2085 -0.2829 -0.2244
 2789TIP3    H129782   1.334   2.666  16.409 -3.8203  3.1414  0.4450
 2789TIP3    H229783   1.221   2.587  16.471  0.0282 -1.2318  2.2283
 2790TIP3   OH229784   5.794   6.044   6.789  0.7149 -0.0850  0.5929
 2790TIP3    H129785   5.786   5.995   6.707  2.7027 -0.1188  0.3997
 2790TIP3    H229786   5.752   6.128   6.771  0.1835 -0.4976 -0.1106
 2791TIP3   OH229787   2.560   6.471   0.216 -0.4262  0.5831  0.2340
 2791TIP3    H129788   2.609   6.548   0.190  0.7227  0.4904  1.9852
 2791TIP3    H229789   2.605   6.398   0.174  0.6118  0.5578  1.3558
 2792TIP3   OH229790   4.541   3.459   2.929  0.4175 -0.6493  0.3245
 2792TIP3    H129791   4.467   3.518   2.915 -0.0407 -0.9191  1.5511
 2792TIP3    H229792   4.519   3.381   2.876  0.4249 -0.2372 -0.2933
 2793TIP3   OH229793   6.335   6.525   2.755 -0.6939  0.7382 -0.0762
 2793TIP3    H129794   6.346   6.438   2.794 -1.5638  0.3320 -0.7264
 2793TIP3    H229795   6.421   6.567   2.766 -0.1856 -0.3026 -0.0150
 2794TIP3   OH229796   5.081   4.638   5.376 -0.0155  0.1092  0.1627
 2794TIP3    H129797   5.062   4.584   5.299 -1.1824  1.4044 -0.4707
 2794TIP3    H229798   5.023   4.604   5.444  0.6982 -0.7480  0.3445
 2795TIP3   OH229799   3.113   4.795   5.766  0.3639  0.2391  0.3205
 2795TIP3    H129800   3.089   4.711   5.726 -0.5269  0.5666  0.1339
 2795TIP3    H229801   3.029   4.840   5.779  0.9493  1.8851 -1.3495
 2796TIP3   OH229802   4.497   6.649   4.539 -0.0786  0.1361  0.4182
 2796TIP3    H129803   4.423   6.710   4.540 -1.0703 -1.0240 -0.6793
 2796TIP3    H229804   4.525   6.647   4.448 -1.8475 -3.1488 -0.1032
 2797TIP3   OH229805   5.654   2.790   1.902 -0.5491 -0.2885  0.5441
 2797TIP3    H129806   5.672   2.851   1.973  0.2809  0.5806 -0.4026
 2797TIP3    H229807   5.739   2.750   1.883 -0.7031 -0.2752 -0.1826
 2798TIP3   OH229808   4.834   4.120   4.388 -0.3387 -0.6739 -0.0132
 2798TIP3    H129809   4.782   4.148   4.463  1.4819  1.9011  0.3296
 2798TIP3    H229810   4.874   4.037   4.416 -0.3323 -0.1581  1.5490
 2799TIP3   OH229811   6.781   4.024  17.097 -0.2443 -0.4260  0.5213
 2799TIP3    H129812   6.868   4.057  17.077 -0.1591 -0.4536  0.8483
 2799TIP3    H229813   6.745   3.999  17.012 -0.0385 -0.1593  0.3540
 2800TIP3   OH229814   6.577   1.668   4.780  0.7848  0.3882 -0.3823
 2800TIP3    H129815   6.652   1.705   4.732 -1.8592  1.7264 -3.6920
 2800TIP3    H229816   6.545   1.598   4.722 -0.0252 -0.7581  1.4226
 2801TIP3   OH229817   2.966   5.024  13.630  0.1646 -0.2346 -0.7170
 2801TIP3    H129818   3.042   5.064  13.672 -0.3134  0.1188 -0.1906
 2801TIP3    H229819   2.922   4.977  13.700 -2.0802  2.4900 -0.2221
 2802TIP3   OH229820   3.608   5.991  11.700  0.0086  0.0831 -0.2086
 2802TIP3    H129821   3.652   5.908  11.718 -1.9794 -1.2531 -1.2196
 2802TIP3    H229822   3.593   5.989  11.605  1.2994  2.3147 -0.4777
 2803TIP3   OH229823   3.981   1.176   3.722 -0.3078 -0.4164 -0.0069
 2803TIP3    H129824   3.899   1.215   3.753 -1.2113 -1.7470 -0.6901
 2803TIP3    H229825   4.030   1.156   3.802 -0.5708  0.5496  0.3957
 2804TIP3   OH229826   2.623   5.758   5.251 -0.0385 -0.0159 -0.0989
 2804TIP3    H129827   2.572   5.714   5.184 -0.2312 -3.2544  2.0806
 2804TIP3    H229828   2.662   5.834   5.206 -3.9999  0.6495 -2.5875
 2805TIP3   OH229829   0.217   1.325   3.124 -0.6875 -0.1213 -0.1077
 2805TIP3    H129830   0.135   1.276   3.117 -0.3738 -0.9248  1.5907
 2805TIP3    H229831   0.280   1.262   3.157  0.4648  0.6724 -0.7509
 2806TIP3   OH229832   1.567   2.662  14.682  0.3903  0.4452 -0.2176
 2806TIP3    H129833   1.582   2.743  14.730 -0.6718  1.1640 -1.0953
 2806TIP3    H229834   1.546   2.689  14.593 -2.3764 -0.6278  0.0276
 2807TIP3   OH229835   3.215   4.155  15.473  0.3515 -0.3035 -0.5170
 2807TIP3    H129836   3.283   4.089  15.484  0.6171  0.3821  2.5471
 2807TIP3    H229837   3.258   4.238  15.493 -0.5096  0.5625 -2.1768
 2808TIP3   OH229838   3.656   1.722   2.486 -0.9048  0.0900  0.2790
 2808TIP3    H129839   3.673   1.814   2.505  1.1666 -0.3758  0.8032
 2808TIP3    H229840   3.635   1.720   2.393  0.8092  0.8778 -0.1408
 2809TIP3   OH229841   5.392   3.459  12.104  0.0006  0.1362 -0.4358
 2809TIP3    H129842   5.358   3.423  12.186  0.7026 -2.3109 -1.1647
 2809TIP3    H229843   5.452   3.528  12.131  0.7925 -1.1484  1.1933
 2810TIP3   OH229844   6.550   4.643  11.263  0.1096  0.3899  0.1132
 2810TIP3    H129845   6.476   4.662  11.321 -0.6524  0.7067 -0.9482
 2810TIP3    H229846   6.627   4.650  11.319 -0.7354 -0.9789  1.4721
 2811TIP3   OH229847   6.375   5.552  16.684  0.1897 -0.3125 -0.3264
 2811TIP3    H129848   6.451   5.586  16.637  2.5076 -2.3995  1.7557
 2811TIP3    H229849   6.338   5.487  16.626  1.5533 -1.1111 -0.3275
 2812TIP3   OH229850   1.602   5.244   4.476  0.2973 -0.0919 -0.4246
 2812TIP3    H129851   1.538   5.302   4.518  1.8854  0.8906  0.6856
 2812TIP3    H229852   1.577   5.243   4.384 -0.7568  1.0247 -0.1682
 2813TIP3   OH229853   5.570   2.041   5.847 -0.3144  0.2874  0.2687
 2813TIP3    H129854   5.526   2.115   5.806  0.5853 -0.0757 -1.4135
 2813TIP3    H229855   5.500   1.981   5.872 -0.9866  1.3362  0.8903
 2814TIP3   OH229856   5.529   5.371  16.493 -0.1222  0.2900 -0.3266
 2814TIP3    H129857   5.507   5.460  16.465 -1.5499  0.4728  1.2718
 2814TIP3    H229858   5.503   5.368  16.585  0.1150 -1.7136 -0.3029
 2815TIP3   OH229859   5.223   5.554  14.018 -0.3814 -0.0482 -0.2144
 2815TIP3    H129860   5.249   5.610  14.091  1.9226 -1.5601  0.1954
 2815TIP3    H229861   5.277   5.584  13.945 -1.1466  0.0628 -0.7402
 2816TIP3   OH229862   4.965   6.342   3.476  0.8770  0.0926 -0.3313
 2816TIP3    H129863   5.011   6.291   3.409  1.1898 -1.9592  1.3836
 2816TIP3    H229864   4.920   6.276   3.529 -1.3878  1.8419 -0.0026
 2817TIP3   OH229865   4.339   1.947   1.410  0.7061  0.3657  0.1252
 2817TIP3    H129866   4.422   1.995   1.401  1.6835 -1.6176 -2.0124
 2817TIP3    H229867   4.339   1.917   1.501  1.9690  1.0354  0.3612
 2818TIP3   OH229868   0.784   4.296  10.865 -0.1539  0.3205 -0.0569
 2818TIP3    H129869   0.840   4.218  10.869 -0.8447 -0.2059 -0.6074
 2818TIP3    H229870   0.748   4.304  10.954  0.6706  0.5773  0.2598
 2819TIP3   OH229871   1.691   5.559   2.701 -0.1035 -0.0343 -0.2587
 2819TIP3    H129872   1.639   5.639   2.690  0.2026  0.4588  1.7031
 2819TIP3    H229873   1.644   5.493   2.651 -1.0972  1.0562 -0.7941
 2820TIP3   OH229874   3.541   2.757   0.279 -0.4488 -0.4973  0.8483
 2820TIP3    H129875   3.456   2.801   0.283  0.3417  1.0586  0.6022
 2820TIP3    H229876   3.551   2.716   0.364 -1.4959 -0.7816  0.8390
 2821TIP3   OH229877   1.519   3.433   4.711 -0.1456 -0.4741 -0.0609
 2821TIP3    H129878   1.504   3.465   4.622 -1.7898  2.5836  1.2616
 2821TIP3    H229879   1.432   3.412   4.744  0.3252 -0.2265  1.3533
 2822TIP3   OH229880   5.320   2.254   4.829 -0.0778  1.0466  0.5336
 2822TIP3    H129881   5.297   2.173   4.875  0.6453  0.8079  0.4724
 2822TIP3    H229882   5.240   2.306   4.832 -0.4828  0.4204  0.7663
 2823TIP3   OH229883   0.124   5.455  15.206  0.0679  0.2134 -0.2495
 2823TIP3    H129884   0.170   5.526  15.252  0.9329 -0.1100 -0.6103
 2823TIP3    H229885   0.069   5.414  15.273 -0.8777  1.5785 -0.1580
 2824TIP3   OH229886   3.394   1.332  17.093  0.2472 -0.3285  0.3609
 2824TIP3    H129887   3.473   1.369  17.133  0.6391 -1.3235  0.5266
 2824TIP3    H229888   3.353   1.281  17.163 -0.3074 -0.1855  0.1499
 2825TIP3   OH229889   3.887   6.557  13.941 -0.8133 -0.0595  0.3038
 2825TIP3    H129890   3.975   6.530  13.912 -1.2535 -0.8577 -0.3184
 2825TIP3    H229891   3.852   6.479  13.985 -1.5371 -0.0204 -0.2032
 2826TIP3   OH229892   4.473   2.677  13.272 -0.0136 -0.0137 -0.2305
 2826TIP3    H129893   4.522   2.698  13.352 -0.1034 -2.6410  0.5452
 2826TIP3    H229894   4.521   2.723  13.202  1.2813  0.6131  1.0455
 2827TIP3   OH229895   6.154   3.119   1.761  0.1670  0.1487 -0.1675
 2827TIP3    H129896   6.178   3.092   1.850 -2.7788 -0.2636  0.5345
 2827TIP3    H229897   6.118   3.040   1.721  0.9295  0.4895 -1.5576
 2828TIP3   OH229898   5.641   6.527  16.973  0.1020 -0.1586 -0.2357
 2828TIP3    H129899   5.568   6.504  16.916 -0.1468  1.1716 -0.4881
 2828TIP3    H229900   5.701   6.453  16.967 -1.1761 -1.2266 -0.0905
 2829TIP3   OH229901   4.696   2.415  16.223 -0.3551  0.4225  0.2649
 2829TIP3    H129902   4.633   2.433  16.153 -1.4568  0.1486  1.1790
 2829TIP3    H229903   4.643   2.384  16.296  0.7016  1.4054  1.4811
 2830TIP3   OH229904   6.360   5.328  11.355 -0.0717  0.0692 -0.3278
 2830TIP3    H129905   6.291   5.266  11.381  1.6940 -1.6249  0.4327
 2830TIP3    H229906   6.394   5.292  11.273  1.8246 -0.7241  0.7654
 2831TIP3   OH229907   5.569   5.406   2.957 -0.2783 -0.4120  0.1346
 2831TIP3    H129908   5.658   5.432   2.932 -1.1477  0.2026 -2.5601
 2831TIP3    H229909   5.580   5.323   3.003  1.4598 -2.0732 -3.1206
 2832TIP3   OH229910   5.267   0.627  11.562  0.3108  0.2090  0.0466
 2832TIP3    H129911   5.311   0.665  11.638  0.1115 -0.3562  0.4438
 2832TIP3    H229912   5.259   0.700  11.500  0.7311  0.5998  0.4491
 2833TIP3   OH229913   0.098   4.638   0.371 -0.2916  0.1058 -0.7230
 2833TIP3    H129914   0.037   4.623   0.299  0.7548  1.4518 -1.9223
 2833TIP3    H229915   0.180   4.599   0.341  0.2308  0.9434 -0.3790
 2834TIP3   OH229916   1.547   2.097  14.177  0.1784 -0.0412  0.5384
 2834TIP3    H129917   1.477   2.141  14.129 -1.0647 -1.3311  1.1359
 2834TIP3    H229918   1.609   2.068  14.109  0.7259  2.0684  0.0917
 2835TIP3   OH229919   2.714   1.394  17.077 -0.1792  0.2044 -0.2465
 2835TIP3    H129920   2.676   1.314  17.113  0.3337 -0.9208 -2.1388
 2835TIP3    H229921   2.798   1.366  17.039  0.1549  1.7013 -0.6511
 2836TIP3   OH229922   2.571   1.914  13.272  0.3821  0.1664 -0.0806
 2836TIP3    H129923   2.595   2.002  13.300  0.2105  0.1725  0.0454
 2836TIP3    H229924   2.551   1.867  13.353  0.3412  0.0508 -0.1584
 2837TIP3   OH229925   5.251   0.596  15.325 -0.1744  0.0438 -0.1379
 2837TIP3    H129926   5.204   0.534  15.382  0.7697 -0.6949 -0.1473
 2837TIP3    H229927   5.333   0.612  15.371  0.7825 -0.9051 -1.4876
 2838TIP3   OH229928   5.155   5.539   6.203  0.1785  0.3749  0.7206
 2838TIP3    H129929   5.204   5.458   6.187  0.2924  0.7407 -0.8877
 2838TIP3    H229930   5.075   5.510   6.246 -0.6592 -0.8155 -1.5399
 2839TIP3   OH229931   4.600   4.637  15.039  0.3512 -0.4056 -0.4372
 2839TIP3    H129932   4.644   4.621  14.955 -0.0564  1.2468 -0.9869
 2839TIP3    H229933   4.672   4.647  15.102  0.6779 -0.9673 -0.7211
 2840TIP3   OH229934   1.623   2.014   0.397  0.0953  0.0961 -0.4750
 2840TIP3    H129935   1.570   1.965   0.460  0.4035  0.4757  0.0865
 2840TIP3    H229936   1.559   2.054   0.337 -0.2125 -0.0686 -0.2577
 2841TIP3   OH229937   1.075   6.008   5.978  0.5990 -0.0053 -0.4044
 2841TIP3    H129938   0.998   6.065   5.977 -0.5289 -1.5232 -1.3392
 2841TIP3    H229939   1.132   6.046   6.045 -1.6275  0.2377  1.3884
 2842TIP3   OH229940   6.493   6.131  17.205 -0.7675  0.0524 -0.1050
 2842TIP3    H129941   6.530   6.169  17.285 -0.9800  1.0385 -0.4676
 2842TIP3    H229942   6.541   6.048  17.193  1.5899  1.4670 -0.7623
 2843TIP3   OH229943   5.073   4.528   2.884  0.1540 -0.7130 -0.3226
 2843TIP3    H129944   5.104   4.438   2.867 -1.4373 -1.0817 -1.4107
 2843TIP3    H229945   4.996   4.516   2.939  1.8033  0.1969  2.2767
 2844TIP3   OH229946   4.344   6.671  13.249 -0.1811  0.5530  0.3724
 2844TIP3    H129947   4.311   6.693  13.162 -0.2699  1.2301  0.5774
 2844TIP3    H229948   4.364   6.755  13.290  1.8355  0.1815  0.2369
 2845TIP3   OH229949   0.565   1.562  14.481 -0.1149  0.0355 -0.5772
 2845TIP3    H129950   0.482   1.602  14.456 -1.4381 -1.7826  0.8239
 2845TIP3    H229951   0.623   1.637  14.497 -2.4189  1.4409  1.5932
 2846TIP3   OH229952   0.866   0.386  10.299 -0.1301  0.2572  0.0053
 2846TIP3    H129953   0.937   0.322  10.297 -0.6751 -0.3715  0.3088
 2846TIP3    H229954   0.788   0.334  10.319 -0.7924  0.8278 -1.0667
 2847TIP3   OH229955   5.144   6.738  14.775  0.9145  0.3376  0.2870
 2847TIP3    H129956   5.151   6.809  14.838 -0.0413 -0.0775  0.8797
 2847TIP3    H229957   5.165   6.659  14.825 -0.0887 -0.0212  0.1646
 2848TIP3   OH229958   3.898   6.560   0.261 -0.0342  0.2188 -0.7087
 2848TIP3    H129959   3.890   6.473   0.220  0.8643 -0.0885 -0.2469
 2848TIP3    H229960   3.828   6.611   0.221 -1.9950 -1.3442  0.5991
 2849TIP3   OH229961   3.550   5.577  14.665  0.4016  0.2179 -0.2764
 2849TIP3    H129962   3.488   5.515  14.628  0.7252  0.2608 -0.8828
 2849TIP3    H229963   3.504   5.661  14.662  0.6758  0.3379 -1.1855
 2850TIP3   OH229964   2.415   2.965  13.230 -0.0324 -0.4104  0.4899
 2850TIP3    H129965   2.400   3.060  13.234 -1.7627 -0.5769 -1.3678
 2850TIP3    H229966   2.336   2.930  13.189  1.5815 -2.4158 -1.0191
 2851TIP3   OH229967   6.291   2.209  11.759  0.4645 -0.6591 -0.4030
 2851TIP3    H129968   6.244   2.158  11.825 -0.2033  0.4622  0.0016
 2851TIP3    H229969   6.278   2.300  11.786  1.9020 -0.2893 -0.9387
 2852TIP3   OH229970   1.296   1.243   1.176 -0.4223 -0.2996 -0.2057
 2852TIP3    H129971   1.386   1.253   1.146 -0.1694 -0.3434  0.5366
 2852TIP3    H229972   1.291   1.153   1.209 -0.9236 -0.5196 -0.8464
 2853TIP3   OH229973   0.429   6.408   1.154 -0.5071  0.3838  0.4487
 2853TIP3    H129974   0.395   6.459   1.080 -1.4989 -2.3265 -1.0576
 2853TIP3    H229975   0.521   6.395   1.132 -0.7005 -0.0571 -0.1408
 2854TIP3   OH229976   1.792   4.232   1.274 -0.3040  0.1791 -0.3698
 2854TIP3    H129977   1.769   4.313   1.320  1.9223  1.0046 -0.6413
 2854TIP3    H229978   1.805   4.168   1.344 -1.1210  0.3134 -0.0953
 2855TIP3   OH229979   2.208   5.914  11.431  0.1245  0.4579  0.6280
 2855TIP3    H129980   2.237   5.972  11.361 -0.9348  1.4899  1.0346
 2855TIP3    H229981   2.286   5.900  11.485  1.0639 -0.7151 -0.9874
 2856TIP3   OH229982   2.215   0.964  16.060  0.3759 -0.2798  0.1701
 2856TIP3    H129983   2.207   1.027  16.132  2.2900  0.7431 -0.4667
 2856TIP3    H229984   2.140   0.981  16.004 -1.0509 -0.9760  1.8327
 2857TIP3   OH229985   1.810   5.736  16.704 -0.2966 -0.3495 -0.0238
 2857TIP3    H129986   1.723   5.772  16.684  1.0344  1.8691 -2.0500
 2857TIP3    H229987   1.833   5.685  16.627 -0.3102 -2.0125  1.0536
 2858TIP3   OH229988   3.489   0.343  15.449  0.2144  0.5134 -0.7061
 2858TIP3    H129989   3.410   0.367  15.400 -0.2923 -3.0082 -1.7544
 2858TIP3    H229990   3.545   0.421  15.443 -1.6293  1.7404 -3.1899
 2859TIP3   OH229991   1.327   0.466  11.535  0.3841 -0.0848 -0.1992
 2859TIP3    H129992   1.265   0.510  11.477  0.7114 -0.7595 -1.0650
 2859TIP3    H229993   1.393   0.533  11.554  1.0782 -0.2882 -1.8011
 2860TIP3   OH229994   4.010   0.156   4.258 -0.2788 -0.2943  0.0467
 2860TIP3    H129995   4.002   0.136   4.351  0.7487 -2.1449 -0.2328
 2860TIP3    H229996   4.101   0.184   4.246 -0.5393  0.4212 -0.3264
 2861TIP3   OH229997   0.889   6.434  15.045 -0.4301  0.5847  0.3150
 2861TIP3    H129998   0.834   6.364  15.080  0.7542 -1.1080 -1.1066
 2861TIP3    H229999   0.925   6.398  14.964 -0.0399  2.9705 -0.6220
 2862TIP3   OH230000   0.750   1.867  13.652  0.1833  0.3990  0.3978
 2862TIP3    H130001   0.827   1.826  13.692  0.0036 -0.0414  0.2922
 2862TIP3    H230002   0.711   1.798  13.599 -0.9981  0.2445  1.4495
 2863TIP3   OH230003   3.983   2.411  11.625 -0.5014  0.1371  0.1697
 2863TIP3    H130004   3.937   2.481  11.578 -2.0041  0.3738  1.9424
 2863TIP3    H230005   3.916   2.346  11.644  0.5896 -1.1016 -0.1435
 2864TIP3   OH230006   1.852   4.685   0.102  0.1199  0.4053  0.1419
 2864TIP3    H130007   1.823   4.772   0.131  1.5200  1.0840 -0.4726
 2864TIP3    H230008   1.926   4.702   0.045  0.8302 -1.2463  0.5425
 2865TIP3   OH230009   6.628   1.922  13.279  0.1562  0.3678  0.6694
 2865TIP3    H130010   6.549   1.973  13.296  0.1775  0.8241 -0.5916
 2865TIP3    H230011   6.616   1.841  13.329 -0.4957  1.0009  1.5544
 2866TIP3   OH230012   4.981   1.290   5.610 -0.2683  0.6296 -0.1690
 2866TIP3    H130013   5.061   1.330   5.645 -0.0467 -0.5482  0.7389
 2866TIP3    H230014   5.010   1.243   5.531 -0.1438  0.6209 -0.1198
 2867TIP3   OH230015   0.105   0.193   3.287  0.2273  0.4627 -0.5531
 2867TIP3    H130016   0.049   0.124   3.321  1.7637 -1.5102 -1.8905
 2867TIP3    H230017   0.054   0.274   3.299 -1.9148 -0.9734  0.3368
 2868TIP3   OH230018   4.194   2.368  10.947  0.4666 -0.5651  0.6404
 2868TIP3    H130019   4.283   2.399  10.931  0.3683 -1.4748 -1.9715
 2868TIP3    H230020   4.183   2.296  10.885 -1.4224 -1.7597  2.3055
 2869TIP3   OH230021   5.068   6.746   4.895 -0.6514 -0.8553 -0.2614
 2869TIP3    H130022   4.983   6.776   4.928 -0.2703  1.5960 -1.3583
 2869TIP3    H230023   5.058   6.748   4.799  0.4064 -1.2904 -0.3864
 2870TIP3   OH230024   1.936   3.724   2.490  0.7078 -0.1724  0.4983
 2870TIP3    H130025   1.919   3.669   2.567  1.3610 -1.3847 -0.2002
 2870TIP3    H230026   2.019   3.768   2.509  0.4871  0.1111  0.8044
 2871TIP3   OH230027   2.241   4.675  15.863  0.1451  0.4717  0.5576
 2871TIP3    H130028   2.248   4.633  15.949  4.3873  2.1735  1.1761
 2871TIP3    H230029   2.296   4.753  15.871  1.2348  0.2701 -3.9401
 2872TIP3   OH230030   1.075   2.422  13.314  0.7553 -0.2499  0.0792
 2872TIP3    H130031   1.099   2.441  13.224  0.1757  0.8076  0.1430
 2872TIP3    H230032   1.154   2.445  13.365  0.5683  0.5694 -0.0015
 2873TIP3   OH230033   6.295   1.372   6.250  0.3203 -0.1232 -0.3983
 2873TIP3    H130034   6.357   1.403   6.185 -1.5358  1.0169 -1.6798
 2873TIP3    H230035   6.344   1.372   6.332  1.6879  1.8429 -1.1923
 2874TIP3   OH230036   0.728   4.291   3.207  0.6716  0.1874 -0.5915
 2874TIP3    H130037   0.795   4.223   3.204  1.2570  0.7260  0.1484
 2874TIP3    H230038   0.742   4.335   3.291 -0.8854  0.0134 -0.2230
 2875TIP3   OH230039   5.473   3.233   5.799 -0.2635  0.1375 -0.5288
 2875TIP3    H130040   5.382   3.256   5.777 -0.6253  0.4935  1.2350
 2875TIP3    H230041   5.472   3.138   5.807 -0.9234  0.2714  1.2629
 2876TIP3   OH230042   1.595   2.080  15.074 -0.4682  0.0544 -0.4689
 2876TIP3    H130043   1.642   2.126  15.143  0.2543 -1.2584 -0.0739
 2876TIP3    H230044   1.662   2.027  15.030 -1.4221 -1.2508 -0.3853
 2877TIP3   OH230045   3.234   1.591   5.462  0.0659 -0.4351  0.4986
 2877TIP3    H130046   3.213   1.499   5.476  1.3114 -0.7109  0.5941
 2877TIP3    H230047   3.255   1.624   5.549 -0.2453 -0.0913  0.4441
 2878TIP3   OH230048   2.490   3.910  13.136  0.3572 -0.0268  0.0334
 2878TIP3    H130049   2.424   3.918  13.068  1.1528 -0.6254 -0.8261
 2878TIP3    H230050   2.559   3.857  13.096  0.0450 -1.8870  1.8860
 2879TIP3   OH230051   6.633   5.182  14.532 -0.4393  0.3515  0.5572
 2879TIP3    H130052   6.574   5.248  14.496 -0.0853 -0.2953 -1.2263
 2879TIP3    H230053   6.720   5.220  14.523 -0.4122  0.5054  1.4411
 2880TIP3   OH230054   0.087   0.868  15.498  0.3765 -0.8956  0.1312
 2880TIP3    H130055   0.166   0.919  15.479  1.4431 -1.7288  2.2243
 2880TIP3    H230056   0.060   0.896  15.585 -0.2593 -2.3378  0.4219
 2881TIP3   OH230057   6.200   2.180  16.928  0.0499 -0.5441 -0.6497
 2881TIP3    H130058   6.229   2.089  16.935  0.0973 -0.4739  0.0661
 2881TIP3    H230059   6.161   2.186  16.840  0.7843 -1.0350 -1.0140
 2882TIP3   OH230060   2.685   1.082   1.065 -0.0978  1.1432 -0.2767
 2882TIP3    H130061   2.707   0.990   1.058 -0.2814  1.1340 -0.7874
 2882TIP3    H230062   2.648   1.092   1.153  1.9187  1.1657  0.5858
 2883TIP3   OH230063   0.026   5.578  13.950 -0.3894 -0.2683  0.4595
 2883TIP3    H130064   0.096   5.552  13.890 -0.6932 -1.8261  0.7466
 2883TIP3    H230065   0.069   5.588  14.035 -0.5909 -1.9129  0.7869
 2884TIP3   OH230066   2.428   0.643  12.001  0.4894  0.5122 -0.3807
 2884TIP3    H130067   2.464   0.611  11.918  3.7986  0.0400  1.1856
 2884TIP3    H230068   2.339   0.608  12.002  1.5909 -2.5997 -2.0836
 2885TIP3   OH230069   5.090   4.356   5.160 -0.2831  0.0897  0.0542
 2885TIP3    H130070   5.116   4.299   5.088  0.5560 -0.0360  0.4483
 2885TIP3    H230071   5.000   4.330   5.180 -0.7938  0.6468 -1.4434
 2886TIP3   OH230072   3.266   3.795   5.421  0.6316 -0.4735 -0.1756
 2886TIP3    H130073   3.240   3.850   5.495  0.9620  0.8918 -1.0544
 2886TIP3    H230074   3.235   3.708   5.444 -0.9676  0.3073  0.7083
 2887TIP3   OH230075   3.033   6.612  11.238  0.5269  0.0315 -0.4729
 2887TIP3    H130076   3.091   6.554  11.188  0.6188 -1.6985  1.5443
 2887TIP3    H230077   2.945   6.580  11.218  0.3225  1.5934 -2.2298
 2888TIP3   OH230078   3.356   5.962   2.480 -0.2593  0.5136 -0.2521
 2888TIP3    H130079   3.380   5.911   2.402 -0.3718  0.8919 -0.5353
 2888TIP3    H230080   3.393   5.912   2.553  1.5018  1.1526 -0.6966
 2889TIP3   OH230081   5.979   5.730  12.729 -0.0869 -0.0231  1.1819
 2889TIP3    H130082   6.006   5.761  12.815 -2.8532  0.0138  2.0844
 2889TIP3    H230083   5.897   5.684  12.745  0.8531 -2.5961 -1.0270
 2890TIP3   OH230084   5.246   0.035   0.264  0.6115  0.5096  0.0295
 2890TIP3    H130085   5.263   0.121   0.303  1.7082 -0.2219  1.2264
 2890TIP3    H230086   5.281  -0.028   0.327  0.0241 -0.8196 -0.9240
 2891TIP3   OH230087   1.215   4.274   3.263 -0.6116 -0.2588  0.1706
 2891TIP3    H130088   1.223   4.256   3.169 -0.5928 -1.2675  0.3552
 2891TIP3    H230089   1.149   4.342   3.270 -1.6781 -1.2185 -0.4821
 2892TIP3   OH230090   4.743   1.170  14.547 -0.3321  0.4080  0.4001
 2892TIP3    H130091   4.768   1.223  14.622  1.8856  1.8277 -1.3026
 2892TIP3    H230092   4.705   1.090  14.585  2.1697  0.4280  3.0277
 2893TIP3   OH230093   2.949   1.268  10.870  0.8074 -0.0850 -0.0481
 2893TIP3    H130094   2.997   1.306  10.943 -0.7643  1.9259 -0.0314
 2893TIP3    H230095   2.950   1.336  10.803  0.3572 -1.0883 -1.0869
 2894TIP3   OH230096   1.692   3.173  13.819 -0.4714 -0.2684 -0.2739
 2894TIP3    H130097   1.768   3.124  13.786  0.4858  1.0399 -0.0664
 2894TIP3    H230098   1.708   3.181  13.913 -2.1840 -2.2306  0.2167
 2895TIP3   OH230099   3.890   4.805  14.962  0.2674 -0.3241  0.1390
 2895TIP3    H130100   3.981   4.787  14.983  0.3743  0.5088  0.4273
 2895TIP3    H230101   3.882   4.900  14.971 -0.2985 -0.2330 -1.1812
 2896TIP3   OH230102   2.857   6.775   4.479  0.3255 -0.3920  0.3138
 2896TIP3    H130103   2.825   6.720   4.551 -1.0303 -0.4402 -0.2990
 2896TIP3    H230104   2.919   6.719   4.433  1.6360 -0.1687  1.7613
 2897TIP3   OH230105   0.488   1.774  11.727 -0.6582 -0.3642 -0.1511
 2897TIP3    H130106   0.397   1.798  11.743 -0.4534  0.6135 -0.4717
 2897TIP3    H230107   0.512   1.819  11.646  0.9386  1.5594  1.3411
 2898TIP3   OH230108   1.929   4.165  16.749  0.0152 -0.2142  0.1806
 2898TIP3    H130109   1.997   4.190  16.811  0.8853  0.6038 -1.0646
 2898TIP3    H230110   1.978   4.128  16.675 -0.8514  0.8310 -0.9329
 2899TIP3   OH230111   6.348   2.198  14.753  0.4414 -0.4890  0.1343
 2899TIP3    H130112   6.384   2.125  14.803 -0.2808 -1.2361 -0.4302
 2899TIP3    H230113   6.397   2.197  14.671  2.4962  1.5045  1.2852
 2900TIP3   OH230114   2.024   0.355  15.512  0.1437 -0.3802  0.1936
 2900TIP3    H130115   2.001   0.436  15.558 -0.2306 -2.1123  3.1924
 2900TIP3    H230116   1.940   0.316  15.489  0.1798 -2.0227  2.6678
 2901TIP3   OH230117   6.411   6.110  12.284  0.1047 -0.5520  0.2417
 2901TIP3    H130118   6.340   6.049  12.263  0.7559 -1.5801  0.9991
 2901TIP3    H230119   6.368   6.196  12.286 -0.3783 -0.6357 -3.2115
 2902TIP3   OH230120   4.764   2.353  11.324  0.3405 -0.1460 -0.5086
 2902TIP3    H130121   4.685   2.391  11.362  0.7278 -2.9610  3.3786
 2902TIP3    H230122   4.738   2.266  11.294  1.9574 -1.1602  0.9348
 2903TIP3   OH230123   2.520   2.407   5.350 -0.5263 -0.7253 -0.0513
 2903TIP3    H130124   2.550   2.346   5.417 -0.6490 -0.8766 -0.1351
 2903TIP3    H230125   2.531   2.494   5.390  0.8289 -0.7249 -0.3939
 2904TIP3   OH230126   1.472   4.949   2.948  0.1742 -0.0991  0.2256
 2904TIP3    H130127   1.415   5.024   2.962  0.5590  0.1130  0.6719
 2904TIP3    H230128   1.420   4.873   2.976 -1.1635 -0.2991 -2.6209
 2905TIP3   OH230129   5.393   4.665   3.524  0.0150 -0.1956  0.1854
 2905TIP3    H130130   5.369   4.581   3.486 -1.7677  0.5886 -0.4955
 2905TIP3    H230131   5.470   4.647   3.578  0.6885 -1.9116 -1.3239
 2906TIP3   OH230132   6.112   3.318   3.538 -0.5818  0.2492 -0.6785
 2906TIP3    H130133   6.156   3.285   3.616  1.0677  0.2269 -1.5976
 2906TIP3    H230134   6.021   3.331   3.565  0.5896  3.2234  2.1767
 2907TIP3   OH230135   0.263   1.268  12.831 -0.3714 -0.3955 -0.6780
 2907TIP3    H130136   0.228   1.185  12.864 -3.5114  1.0319 -0.2094
 2907TIP3    H230137   0.241   1.268  12.738 -0.8798  0.1208 -0.5631
 2908TIP3   OH230138   1.089   4.175  13.516 -0.0472  0.1602 -0.7818
 2908TIP3    H130139   1.100   4.159  13.610 -1.6439 -0.3013 -0.6569
 2908TIP3    H230140   1.080   4.270  13.509 -0.2318  0.1722 -0.4314
 2909TIP3   OH230141   4.041   0.789   4.012  0.2724 -0.1958  0.1322
 2909TIP3    H130142   4.091   0.708   4.026  1.5468  0.6689  0.6160
 2909TIP3    H230143   4.093   0.857   4.055  0.8141  1.4070 -2.9303
 2910TIP3   OH230144   4.822   3.449   0.205  0.3739  0.3177 -0.7693
 2910TIP3    H130145   4.836   3.354   0.199 -0.3803  0.2102 -0.8424
 2910TIP3    H230146   4.741   3.458   0.254  0.7778  0.9458 -0.2118
 2911TIP3   OH230147   1.262   3.927   4.636 -0.1242  0.2745  0.1109
 2911TIP3    H130148   1.277   3.997   4.699 -0.3833 -1.4529  2.1430
 2911TIP3    H230149   1.338   3.869   4.645 -0.8979 -0.7978 -0.0519
 2912TIP3   OH230150   0.763   0.690   4.620  0.1904 -0.0230  0.1380
 2912TIP3    H130151   0.695   0.622   4.619 -0.6779  0.8295 -1.9421
 2912TIP3    H230152   0.716   0.771   4.600  1.6983  0.7004 -0.5296
 2913TIP3   OH230153   6.356   1.820   3.251  0.0795  0.4074 -0.1009
 2913TIP3    H130154   6.392   1.739   3.216  1.3913  0.5213  0.9422
 2913TIP3    H230155   6.292   1.791   3.317  0.6190  0.2243  0.3424
 2914TIP3   OH230156   2.047   3.114   2.277 -0.0415 -0.1342  0.3837
 2914TIP3    H130157   2.081   3.191   2.232 -1.7534  0.0750 -0.6062
 2914TIP3    H230158   2.125   3.071   2.313  1.1663  0.7709 -1.0776
 2915TIP3   OH230159   6.234   4.329  12.826  0.4400 -0.3206  0.1045
 2915TIP3    H130160   6.220   4.241  12.860 -2.4332  0.7349  1.9080
 2915TIP3    H230161   6.210   4.323  12.733  0.5771 -1.4915  0.1373
 2916TIP3   OH230162   2.780   5.317  13.863  0.0433 -0.5075 -0.0492
 2916TIP3    H130163   2.816   5.352  13.781 -0.3358 -1.7439 -0.7490
 2916TIP3    H230164   2.810   5.226  13.865 -1.8576 -1.1408  0.0614
 2917TIP3   OH230165   0.310   0.792   5.003  0.1392  0.0894 -0.1302
 2917TIP3    H130166   0.265   0.838   5.074  0.5218  0.2323  0.0210
 2917TIP3    H230167   0.302   0.699   5.027  1.7299  0.2166  0.9927
 2918TIP3   OH230168   1.939   1.006   1.875  0.5415  0.0164  0.3267
 2918TIP3    H130169   1.853   1.029   1.838  1.4244  1.2759 -0.9915
 2918TIP3    H230170   1.918   0.957   1.954 -1.4054  0.5308  0.1655
 2919TIP3   OH230171   0.061   6.001   2.701 -0.2874  0.1734 -0.1252
 2919TIP3    H130172   0.154   6.016   2.717 -0.0717  0.4009 -1.4635
 2919TIP3    H230173   0.046   6.036   2.613 -1.5544 -0.2052 -0.0782
 2920TIP3   OH230174   1.925   1.519  17.236 -0.2259  0.2719  0.2513
 2920TIP3    H130175   1.938   1.580  17.308  0.7995 -0.6921  0.8910
 2920TIP3    H230176   1.830   1.502  17.235 -0.4670  1.5758  0.3021
 2921TIP3   OH230177   4.282   0.119  14.081  0.4571  0.1070  0.5091
 2921TIP3    H130178   4.195   0.085  14.102 -0.8373  0.9523 -3.2207
 2921TIP3    H230179   4.275   0.213  14.099  0.5065  0.2134 -0.0233
 2922TIP3   OH230180   6.423   0.398   0.919  0.3323 -0.3649 -0.6224
 2922TIP3    H130181   6.338   0.389   0.876 -0.4039  0.4267  0.6532
 2922TIP3    H230182   6.484   0.356   0.859 -0.8971 -0.5926 -1.7430
 2923TIP3   OH230183   1.660   1.223  13.822 -0.2805 -0.5882 -0.1753
 2923TIP3    H130184   1.604   1.152  13.790  0.9608 -2.1138  0.9430
 2923TIP3    H230185   1.654   1.217  13.917 -0.0007  0.6912 -0.0636
 2924TIP3   OH230186   3.721   3.447  16.776  0.5370  0.0737 -0.0313
 2924TIP3    H130187   3.763   3.500  16.843 -0.2467 -0.9863  1.3308
 2924TIP3    H230188   3.763   3.361  16.784  1.9563  0.5221 -2.3588
 2925TIP3   OH230189   1.434   1.059  13.745  0.1932  0.1653 -0.4595
 2925TIP3    H130190   1.395   0.976  13.719  1.0324  0.2228 -1.9719
 2925TIP3    H230191   1.435   1.111  13.665 -1.6417  2.1914  0.7821
 2926TIP3   OH230192   1.310   1.259   3.973 -0.1888  0.1801 -0.7608
 2926TIP3    H130193   1.377   1.267   3.905  2.4216  0.3184  1.7528
 2926TIP3    H230194   1.302   1.347   4.010 -1.9359  0.2057 -1.1282
 2927TIP3   OH230195   3.095   0.970  13.017  0.2178  0.3621 -0.5654
 2927TIP3    H130196   3.054   0.916  12.950  1.0620  1.1841 -1.7726
 2927TIP3    H230197   3.087   1.059  12.984 -1.2472  0.9982  1.4575
 2928TIP3   OH230198   3.462   3.758   5.035 -0.1512 -0.4066 -0.1382
 2928TIP3    H130199   3.465   3.847   5.071 -0.8063  0.1107 -1.3560
 2928TIP3    H230200   3.550   3.743   5.001 -0.2522  0.0665 -0.6195
 2929TIP3   OH230201   5.710   1.386   2.854 -0.0938  0.0281 -0.4084
 2929TIP3    H130202   5.791   1.336   2.850  0.0129  0.2591 -1.0886
 2929TIP3    H230203   5.654   1.349   2.786  0.1268  1.0715 -1.1789
 2930TIP3   OH230204   5.913   4.844   0.666 -0.4457 -0.3664  0.2465
 2930TIP3    H130205   5.975   4.867   0.736 -2.2033  0.4206  1.5755
 2930TIP3    H230206   5.893   4.752   0.681  1.4512 -1.0267 -1.0445
 2931TIP3   OH230207   3.753   1.726   4.022  0.3121 -0.4848  0.3443
 2931TIP3    H130208   3.688   1.795   4.010 -0.0193 -0.8749 -0.0743
 2931TIP3    H230209   3.834   1.774   4.041 -0.1206 -0.0068  1.0092
 2932TIP3   OH230210   2.940   2.832   6.184  0.3327 -0.0979  0.5092
 2932TIP3    H130211   2.960   2.757   6.240  0.5526 -0.6982 -0.3592
 2932TIP3    H230212   2.999   2.822   6.109 -0.3128  0.4099 -0.0744
 2933TIP3   OH230213   1.420   2.596  16.140  0.2635 -0.1305  0.2408
 2933TIP3    H130214   1.383   2.668  16.192 -1.2212 -1.0288  0.4522
 2933TIP3    H230215   1.347   2.536  16.128  1.2381 -1.1031 -0.8318
 2934TIP3   OH230216   3.016   1.805  10.630  0.8949  0.0458  0.5762
 2934TIP3    H130217   2.981   1.720  10.658 -0.0204  0.8982  2.1299
 2934TIP3    H230218   2.982   1.818  10.542  1.9309 -1.6794 -0.0978
 2935TIP3   OH230219   1.828   0.944   1.482 -0.6857  0.3320  0.5160
 2935TIP3    H130220   1.915   0.948   1.522 -0.7300 -2.1289  0.9818
 2935TIP3    H230221   1.844   0.909   1.394 -1.1264  0.5181  0.3641
 2936TIP3   OH230222   4.467   2.803  14.417  0.0075 -0.3414  0.1828
 2936TIP3    H130223   4.497   2.890  14.443  0.1393 -0.3522  0.0684
 2936TIP3    H230224   4.410   2.819  14.342  0.5064 -0.4060 -0.2101
 2937TIP3   OH230225   3.644   5.877  13.437  0.0006 -0.1438 -0.1353
 2937TIP3    H130226   3.617   5.932  13.364 -2.9854 -0.4141  0.7298
 2937TIP3    H230227   3.671   5.794  13.397  0.7453  0.5513 -1.1031
 2938TIP3   OH230228   6.479   1.013   4.823  1.0797  0.2180  0.6147
 2938TIP3    H130229   6.491   1.010   4.918  2.2474  1.0945  0.5029
 2938TIP3    H230230   6.391   1.048   4.811  1.7134  2.1386  1.3569
 2939TIP3   OH230231   3.220   6.341   2.483 -0.1001  0.2551 -0.3484
 2939TIP3    H130232   3.228   6.429   2.519  1.2612 -0.7543  1.9301
 2939TIP3    H230233   3.310   6.315   2.462 -0.5532 -0.3753 -1.5984
 2940TIP3   OH230234   0.191   3.914  11.445 -0.0760 -0.2255 -0.3092
 2940TIP3    H130235   0.274   3.960  11.432 -0.3359  0.3455  0.0157
 2940TIP3    H230236   0.131   3.982  11.474 -0.1621 -0.9955  1.3544
 2941TIP3   OH230237   0.025   6.160  13.659 -0.3632 -0.5744  0.4009
 2941TIP3    H130238   0.112   6.131  13.632  0.4543  1.3377  0.8779
 2941TIP3    H230239  -0.018   6.081  13.691  0.8707 -1.7112 -0.6998
 2942TIP3   OH230240   1.997   4.024  14.744  0.1821  0.1135  1.3808
 2942TIP3    H130241   1.944   4.027  14.824 -1.9237 -3.8325  0.3019
 2942TIP3    H230242   2.049   3.944  14.754  0.9790  0.3782 -0.5651
 2943TIP3   OH230243   0.578   4.503  12.329  0.4950 -0.1204 -0.5333
 2943TIP3    H130244   0.651   4.556  12.298  0.4438 -0.6599 -1.5817
 2943TIP3    H230245   0.613   4.414  12.333  0.9334  0.1430  2.3506
 2944TIP3   OH230246   3.062   5.210   3.312 -0.0561  0.4006  0.2273
 2944TIP3    H130247   2.996   5.248   3.254 -0.9506  1.0958  1.6578
 2944TIP3    H230248   3.146   5.231   3.270 -0.6234  2.1768 -0.0651
 2945TIP3   OH230249   6.326   4.253   2.257 -0.3104  0.0549 -0.0567
 2945TIP3    H130250   6.363   4.167   2.279  0.3422 -0.2805 -2.3071
 2945TIP3    H230251   6.402   4.306   2.233 -0.7320  1.2246  1.1461
 2946TIP3   OH230252   5.780   5.110   1.901 -0.2076 -0.2695  0.6253
 2946TIP3    H130253   5.718   5.183   1.889  2.0871  1.6588  0.2378
 2946TIP3    H230254   5.762   5.051   1.828 -1.5359  0.2930  0.4760
 2947TIP3   OH230255   0.431   0.305   3.736 -0.2768  0.0930 -0.1908
 2947TIP3    H130256   0.349   0.291   3.688 -1.6098 -4.1414  3.0262
 2947TIP3    H230257   0.498   0.260   3.683 -0.1370  2.5872 -2.2331
 2948TIP3   OH230258   4.257   5.676   5.945 -0.3774  0.0247  0.5278
 2948TIP3    H130259   4.210   5.679   5.862 -1.8167  0.9426  1.3540
 2948TIP3    H230260   4.343   5.714   5.925 -0.7653  0.3599 -0.5103
 2949TIP3   OH230261   2.031   5.298  12.105 -0.5130 -0.1771  0.2291
 2949TIP3    H130262   2.071   5.260  12.027  2.2437  1.3509  0.8493
 2949TIP3    H230263   2.032   5.393  12.089  1.1095  0.2360  2.5507
 2950TIP3   OH230264   0.765   4.390   0.490  0.2991  0.7430 -0.7564
 2950TIP3    H130265   0.759   4.340   0.572  2.8210  0.8755 -0.4688
 2950TIP3    H230266   0.852   4.430   0.492  0.3688  0.8052 -3.5014
 2951TIP3   OH230267   1.444   3.884  12.781 -0.0734  0.2071 -0.2862
 2951TIP3    H130268   1.539   3.893  12.778 -0.1687  1.0491 -0.8911
 2951TIP3    H230269   1.425   3.814  12.718  0.0443  0.8822 -1.0739
 2952TIP3   OH230270   0.103   2.967  14.665  1.1172  0.3671  0.0641
 2952TIP3    H130271   0.167   2.945  14.597  2.3927  1.5145  0.8778
 2952TIP3    H230272   0.155   3.004  14.736 -0.2376 -0.5346  1.5572
 2953TIP3   OH230273   1.746   1.982  16.493  0.4374  0.1650 -0.1210
 2953TIP3    H130274   1.819   1.996  16.433 -0.7405  0.3084 -1.5315
 2953TIP3    H230275   1.706   2.069  16.503 -1.6078 -0.4962 -2.0689
 2954TIP3   OH230276   4.720   6.610   5.649  0.1539  0.2052 -0.1923
 2954TIP3    H130277   4.751   6.700   5.646 -0.3597  0.3726 -0.4910
 2954TIP3    H230278   4.653   6.610   5.718  0.0331  0.0908 -0.3078
 2955TIP3   OH230279   2.272   2.358  15.193  0.1651  0.2849  0.5111
 2955TIP3    H130280   2.208   2.337  15.261 -1.6270  0.0804 -1.1958
 2955TIP3    H230281   2.275   2.279  15.138  1.4093  0.5296  0.2077
 2956TIP3   OH230282   4.331   5.092   1.842  0.0392  0.3751  0.2661
 2956TIP3    H130283   4.257   5.151   1.834  0.5681  0.6977 -3.3553
 2956TIP3    H230284   4.407   5.149   1.854  0.3157  0.3956 -1.3819
 2957TIP3   OH230285   0.599   0.869   5.212  0.2355  0.4364  0.0824
 2957TIP3    H130286   0.606   0.839   5.121 -1.4380  0.3952 -0.0588
 2957TIP3    H230287   0.528   0.933   5.210  0.8012  1.1098  1.2049
 2958TIP3   OH230288   2.215   4.341   4.850  0.5599 -0.1797 -0.3844
 2958TIP3    H130289   2.157   4.384   4.787  0.9210 -0.5579 -0.9731
 2958TIP3    H230290   2.172   4.258   4.868 -0.2249  0.4727  0.8797
 2959TIP3   OH230291   2.006   2.735   1.468  0.2440 -0.1859  0.1422
 2959TIP3    H130292   2.062   2.660   1.447 -0.4820 -0.3594 -1.2028
 2959TIP3    H230293   1.951   2.704   1.540  1.4403 -0.2071  1.0832
 2960TIP3   OH230294   3.555   0.651  13.578 -0.4101  0.0763 -0.0755
 2960TIP3    H130295   3.528   0.699  13.500 -1.7418 -0.5405 -0.0096
 2960TIP3    H230296   3.642   0.618  13.558 -0.3798  0.6852 -0.9470
 2961TIP3   OH230297   1.827   4.177   2.120 -0.0647  0.1934  0.4574
 2961TIP3    H130298   1.781   4.175   2.037 -0.5514  0.4109  0.7225
 2961TIP3    H230299   1.907   4.227   2.102 -0.3451  0.5497  0.2172
 2962TIP3   OH230300   0.652   1.295   1.025 -0.3331  0.0761 -0.0148
 2962TIP3    H130301   0.626   1.206   1.000  0.3334  0.1862 -1.1477
 2962TIP3    H230302   0.727   1.314   0.969  0.9144  0.5312  1.7660
 2963TIP3   OH230303   0.221   6.184  13.920 -0.1058  0.3909  0.4661
 2963TIP3    H130304   0.136   6.183  13.965 -0.8973  0.8352 -0.9760
 2963TIP3    H230305   0.285   6.172  13.990 -1.4641 -2.0770  1.3677
 2964TIP3   OH230306   0.080   1.270  14.940  0.2658  0.1687  0.2661
 2964TIP3    H130307   0.106   1.357  14.971 -3.4850  1.4701 -0.0875
 2964TIP3    H230308   0.096   1.273  14.846 -0.0158  0.5347  0.2289
 2965TIP3   OH230309   0.043   6.095  15.967 -0.0625  0.3998  0.0516
 2965TIP3    H130310   0.032   6.174  16.020  0.8963  0.5985 -0.0285
 2965TIP3    H230311  -0.004   6.113  15.886  0.5553  1.0857 -0.1595
 2966TIP3   OH230312   3.970   5.397   2.032  0.5390 -0.3869 -0.3863
 2966TIP3    H130313   3.968   5.475   2.087  0.7870 -0.8150  0.2325
 2966TIP3    H230314   3.931   5.328   2.086  0.8456 -0.8213 -0.7150
 2967TIP3   OH230315   1.885   5.279   4.501  0.4912  0.3090 -0.1053
 2967TIP3    H130316   1.801   5.310   4.534  0.8190  0.0475  0.9901
 2967TIP3    H230317   1.932   5.359   4.476  0.0548  0.4765 -0.3861
 2968TIP3   OH230318   6.509   4.411   4.970 -0.2127  0.1115  0.0490
 2968TIP3    H130319   6.414   4.424   4.969 -0.3366 -0.7968 -0.5818
 2968TIP3    H230320   6.531   4.398   5.063 -0.7438  0.0738  0.1693
 2969TIP3   OH230321   3.549   6.430  17.001 -0.4669 -0.2799 -0.0059
 2969TIP3    H130322   3.516   6.479  17.076 -0.9916  0.3076 -0.6190
 2969TIP3    H230323   3.565   6.496  16.934  0.2344 -0.7755 -0.3310
 2970TIP3   OH230324   5.084   1.131   4.575 -0.1010 -0.3550  0.3497
 2970TIP3    H130325   5.154   1.187   4.544 -0.1909  0.1323  1.0204
 2970TIP3    H230326   5.044   1.179   4.648 -2.7271  0.5215 -1.5687
 2971TIP3   OH230327   2.093   2.754  11.489  0.3966  0.1437  0.0724
 2971TIP3    H130328   2.120   2.710  11.409  0.2093  0.6124 -0.2490
 2971TIP3    H230329   2.017   2.807  11.463  0.6625  0.7103  0.4421
 2972TIP3   OH230330   2.506   2.537   4.799  0.3698 -0.2374 -0.1840
 2972TIP3    H130331   2.523   2.579   4.883 -1.1645 -1.4877  0.8011
 2972TIP3    H230332   2.586   2.549   4.749  0.7359  1.9314  0.8545
 2973TIP3   OH230333   4.571   0.796  13.953 -0.5161  0.1925 -0.1179
 2973TIP3    H130334   4.501   0.858  13.936 -0.4661  0.2713 -0.0373
 2973TIP3    H230335   4.643   0.822  13.895 -0.5403  0.1353 -0.1738
 2974TIP3   OH230336   2.367   2.229   1.131 -0.5738  0.0308  0.3889
 2974TIP3    H130337   2.425   2.221   1.056  1.4721  0.3853  1.8975
 2974TIP3    H230338   2.347   2.322   1.137 -1.5689 -0.1194 -0.2790
 2975TIP3   OH230339   1.637   4.331   0.855  0.3042  0.4172 -0.4220
 2975TIP3    H130340   1.725   4.292   0.851  0.5343  0.7297  1.3169
 2975TIP3    H230341   1.581   4.268   0.810  1.3242 -0.0168 -1.1170
 2976TIP3   OH230342   4.608   6.300  13.054  0.8045 -0.3021  0.2358
 2976TIP3    H130343   4.609   6.394  13.072  1.4758 -0.2828  0.1164
 2976TIP3    H230344   4.595   6.259  13.139 -1.3663 -0.0447  0.0414
 2977TIP3   OH230345   2.699   2.346   4.976  0.1773 -0.0494 -0.1518
 2977TIP3    H130346   2.770   2.347   4.912  1.2710 -0.0142  1.0366
 2977TIP3    H230347   2.743   2.354   5.061 -1.3281  1.0162  0.5465
 2978TIP3   OH230348   3.579   1.667  12.219  0.0849 -0.1329  0.1443
 2978TIP3    H130349   3.487   1.643  12.213  0.1831 -0.5557  0.2253
 2978TIP3    H230350   3.590   1.700  12.308 -0.0659  0.2634  0.0124
 2979TIP3   OH230351   6.364   2.808  11.972  0.2638 -0.0349 -0.2530
 2979TIP3    H130352   6.269   2.823  11.971 -0.0975 -2.2308 -0.8861
 2979TIP3    H230353   6.398   2.866  11.903 -0.8287 -0.5965 -1.2725
 2980TIP3   OH230354   2.569   5.231   0.217 -0.5149  0.1591  0.2275
 2980TIP3    H130355   2.634   5.222   0.147 -1.1730 -0.6383 -0.2918
 2980TIP3    H230356   2.485   5.228   0.171 -0.9008  2.3910  0.7598
 2981TIP3   OH230357   0.753   5.085   2.942  0.0546  0.1381  0.0955
 2981TIP3    H130358   0.834   5.058   2.986 -1.5467 -1.7179  1.9635
 2981TIP3    H230359   0.776   5.088   2.849  2.8144  1.6441  0.7740
 2982TIP3   OH230360   1.683   1.503   0.352 -0.2172  0.1045  0.4333
 2982TIP3    H130361   1.587   1.497   0.348 -0.1292 -1.0151 -0.2239
 2982TIP3    H230362   1.708   1.537   0.266  0.1200 -1.7522 -0.2156
 2983TIP3   OH230363   0.065   5.837   1.337  0.0406  0.0295 -0.0800
 2983TIP3    H130364   0.028   5.893   1.270  0.8431 -0.2599 -0.7756
 2983TIP3    H230365   0.063   5.749   1.299  1.2927 -0.0122 -0.0858
 2984TIP3   OH230366   1.319   1.064   5.136  0.2884  0.2490  0.2857
 2984TIP3    H130367   1.334   1.131   5.202  1.3831  0.9936 -0.7130
 2984TIP3    H230368   1.244   1.096   5.086 -1.2233 -0.8277  1.8121
 2985TIP3   OH230369   2.833   3.949   1.508  0.0218  0.2984 -0.2877
 2985TIP3    H130370   2.762   3.974   1.566  0.1912 -0.5337  0.2833
 2985TIP3    H230371   2.887   3.889   1.560 -0.0055 -0.7065 -1.4032
 2986TIP3   OH230372   5.487   2.045   2.980  0.0365  0.0384  0.3200
 2986TIP3    H130373   5.419   1.980   2.963 -1.0123  1.1642  0.1171
 2986TIP3    H230374   5.481   2.061   3.074  0.6316 -0.5238  0.4546
 2987TIP3   OH230375   4.859   2.256  10.503 -0.3286  0.0111 -0.3209
 2987TIP3    H130376   4.793   2.226  10.441 -0.3103 -0.4850 -0.1009
 2987TIP3    H230377   4.937   2.206  10.482 -0.9116 -1.7364  1.4733
 2988TIP3   OH230378   6.548   0.422  14.765  0.7714 -0.1242  0.0578
 2988TIP3    H130379   6.536   0.378  14.849 -3.5692 -1.1982 -0.9980
 2988TIP3    H230380   6.526   0.513  14.782  0.8431 -0.1510  0.2941
 2989TIP3   OH230381   6.067   5.920  13.363 -0.0070  0.1528  0.1028
 2989TIP3    H130382   6.115   6.001  13.383  0.3782 -0.2646  0.8692
 2989TIP3    H230383   6.079   5.865  13.440 -0.9367 -0.3292 -0.0885
 2990TIP3   OH230384   5.056   5.609  16.007 -0.2528 -0.1415  0.9333
 2990TIP3    H130385   5.148   5.637  16.006 -0.2284 -0.2282  0.2737
 2990TIP3    H230386   5.017   5.654  15.932 -0.4347 -1.1572  0.4066
 2991TIP3   OH230387   2.357   0.012  13.924  0.1486  0.5119 -0.0685
 2991TIP3    H130388   2.406  -0.007  13.844 -0.8259 -1.0443 -0.3061
 2991TIP3    H230389   2.421  -0.003  13.995 -0.0404 -1.8385 -0.3598
 2992TIP3   OH230390   5.192   3.700   4.742  0.1765  0.5541  0.2764
 2992TIP3    H130391   5.135   3.772   4.772 -0.2769 -0.1969  1.2622
 2992TIP3    H230392   5.149   3.666   4.664 -0.2178  0.6108  0.4693
 2993TIP3   OH230393   0.185   1.965  11.564 -0.1133 -0.0798  0.0640
 2993TIP3    H130394   0.189   2.028  11.493 -1.2540 -0.1679 -0.0779
 2993TIP3    H230395   0.113   1.906  11.540 -0.5309 -0.0834  1.3115
 2994TIP3   OH230396   4.351   6.578  12.414  0.1227  0.0083 -0.0154
 2994TIP3    H130397   4.389   6.658  12.378 -2.6791  0.3814 -2.3443
 2994TIP3    H230398   4.423   6.515  12.413  1.6560  1.7122 -0.6872
 2995TIP3   OH230399   2.404   2.458   3.452 -0.5660 -0.5949  0.0316
 2995TIP3    H130400   2.482   2.403   3.440 -1.0648 -1.0384 -1.2228
 2995TIP3    H230401   2.434   2.547   3.433  0.4319 -0.2729  2.8037
 2996TIP3   OH230402   5.420   4.318  12.997 -0.9053  0.2845  0.0168
 2996TIP3    H130403   5.383   4.373  13.066  0.7122 -2.0614  2.8828
 2996TIP3    H230404   5.375   4.234  13.006 -1.0251  0.0878 -2.1549
 2997TIP3   OH230405   4.367   0.989   5.264  0.1605  0.0776 -0.1433
 2997TIP3    H130406   4.405   1.076   5.249  1.2771 -0.6396 -1.6896
 2997TIP3    H230407   4.274   1.001   5.248  0.3234  0.9726 -0.4682
 2998TIP3   OH230408   5.549   3.175  12.624 -0.2956  0.1355 -0.4538
 2998TIP3    H130409   5.546   3.249  12.563 -2.4015  1.0804  0.7116
 2998TIP3    H230410   5.634   3.182  12.667 -0.1238  1.3651 -0.9725
 2999TIP3   OH230411   2.125   2.094   5.560  0.3678 -0.2198 -0.3237
 2999TIP3    H130412   2.067   2.044   5.619 -0.1022  0.0839 -0.5296
 2999TIP3    H230413   2.109   2.057   5.473  0.8168 -0.4388 -0.3184
 3000TIP3   OH230414   5.415   0.112  11.795  0.0360 -0.1231 -0.0385
 3000TIP3    H130415   5.341   0.086  11.850  0.9302 -3.5976 -0.3686
 3000TIP3    H230416   5.477   0.151  11.856 -0.7976  0.0024  0.7369
 3001TIP3   OH230417   0.151   0.098   3.641  0.2770 -0.0720  0.1846
 3001TIP3    H130418   0.169   0.084   3.734 -1.0430 -2.0561  0.1783
 3001TIP3    H230419   0.104   0.182   3.638  0.5016  0.0988  1.2839
 3002TIP3   OH230420   1.398   6.305   5.485 -0.1754  0.3187 -0.0203
 3002TIP3    H130421   1.398   6.388   5.438  0.4493 -0.0098 -0.6077
 3002TIP3    H230422   1.408   6.238   5.417 -0.0639 -0.2065  0.4980
 3003TIP3   OH230423   4.596   2.700  16.938  0.3227  0.4593  0.3144
 3003TIP3    H130424   4.648   2.636  16.987  0.7317  1.5813  1.3840
 3003TIP3    H230425   4.655   2.730  16.869 -0.0091 -0.6123 -0.4319
 3004TIP3   OH230426   0.680   2.940   5.343 -0.3095 -0.6568 -0.0153
 3004TIP3    H130427   0.722   2.885   5.410 -0.4277 -0.7359 -0.0064
 3004TIP3    H230428   0.654   2.879   5.274  2.3114 -0.2484 -1.4339
 3005TIP3   OH230429   1.206   6.443  17.182 -0.0923 -0.8954  0.2356
 3005TIP3    H130430   1.135   6.424  17.121  1.2469 -1.4592 -1.1728
 3005TIP3    H230431   1.204   6.372  17.245 -1.0239 -0.6968  0.4343
 3006TIP3   OH230432   0.116   0.651   0.826  0.1843 -0.0456 -0.1273
 3006TIP3    H130433   0.064   0.572   0.835 -1.7321  1.2784  0.7844
 3006TIP3    H230434   0.092   0.705   0.901  1.1439  1.5734 -0.9371
 3007TIP3   OH230435   6.228   6.065   1.346  0.5587 -0.4348 -0.4718
 3007TIP3    H130436   6.281   6.097   1.273  1.0214 -0.8747 -0.3353
 3007TIP3    H230437   6.225   5.970   1.333 -1.3818 -0.2854 -1.2647
 3008TIP3   OH230438   0.841   2.840   3.972  0.0676 -0.4480  0.2010
 3008TIP3    H130439   0.917   2.887   3.936 -0.4408 -0.1497 -0.4859
 3008TIP3    H230440   0.879   2.764   4.016  0.7725 -0.2771 -0.1028
 3009TIP3   OH230441   5.902   0.457  12.180  0.2273  0.9186  0.0238
 3009TIP3    H130442   5.989   0.482  12.210  0.7289 -0.8871  0.1530
 3009TIP3    H230443   5.902   0.361  12.183 -1.3088  0.8487 -1.2688
 3010TIP3   OH230444   1.250   0.134  12.544  0.6755 -0.5414  0.0953
 3010TIP3    H130445   1.265   0.201  12.478 -0.3347 -2.0515 -1.6913
 3010TIP3    H230446   1.327   0.078  12.539  0.1081 -1.2630 -0.5287
 3011TIP3   OH230447   0.893   5.727  15.423  0.3781 -0.6235  0.1252
 3011TIP3    H130448   0.942   5.659  15.469  0.2790  0.5413  2.0363
 3011TIP3    H230449   0.867   5.788  15.492 -0.5659  0.7215 -1.3809
 3012TIP3   OH230450   4.008   1.998  16.831 -0.3340  0.3399 -0.4535
 3012TIP3    H130451   4.069   1.978  16.760  0.4964  0.9157  0.0788
 3012TIP3    H230452   3.928   1.950  16.809 -0.0154  0.3466 -1.6660
 3013TIP3   OH230453   3.464   5.550  10.947 -0.5410  0.6353  0.0697
 3013TIP3    H130454   3.400   5.481  10.966  0.2524 -0.2307 -0.3429
 3013TIP3    H230455   3.435   5.625  10.999  0.4221 -1.0141  3.1175
 3014TIP3   OH230456   1.341   2.119  16.544 -0.2093 -0.4844  0.1002
 3014TIP3    H130457   1.304   2.154  16.464 -1.2721  0.6730  1.0765
 3014TIP3    H230458   1.266   2.107  16.602  0.5915 -0.9252  1.0684
 3015TIP3   OH230459   3.038   0.174   5.207 -0.0734  0.3614 -0.2461
 3015TIP3    H130460   2.951   0.134   5.213 -0.2408  0.6640 -0.6389
 3015TIP3    H230461   3.078   0.132   5.131  0.0622  0.3404 -0.1628
 3016TIP3   OH230462   5.236   6.649   2.030  0.0157  0.3196  0.5749
 3016TIP3    H130463   5.181   6.591   1.977 -1.2846  1.4018  0.7179
 3016TIP3    H230464   5.219   6.622   2.121  2.6629 -1.9074  0.4842
 3017TIP3   OH230465   2.005   4.217   1.680 -0.5783  0.4814 -0.3106
 3017TIP3    H130466   2.052   4.288   1.636 -3.0431  2.7035  0.4679
 3017TIP3    H230467   1.925   4.205   1.628 -0.3026 -1.6073 -0.2950
 3018TIP3   OH230468   5.178   6.174  12.565  0.0990  0.1859  0.1936
 3018TIP3    H130469   5.204   6.232  12.638  1.6573  2.9059 -2.3986
 3018TIP3    H230470   5.114   6.226  12.516  0.7582 -0.6919 -1.6204
 3019TIP3   OH230471   5.170   4.227   1.682 -0.2715  0.3323  0.3416
 3019TIP3    H130472   5.101   4.292   1.693  0.7782  1.3150  1.3086
 3019TIP3    H230473   5.148   4.158   1.744  1.1992  2.0561  2.9158
 3020TIP3   OH230474   4.078   1.066   6.085 -0.2933 -0.3016  0.2023
 3020TIP3    H130475   4.136   1.052   6.010  0.5646 -1.4224  1.0579
 3020TIP3    H230476   4.112   1.145   6.127  0.3711 -0.7316  0.4744
 3021TIP3   OH230477   5.834   2.104  17.090 -0.5903  0.3165  0.7249
 3021TIP3    H130478   5.880   2.020  17.097 -1.3765 -0.0234  1.9973
 3021TIP3    H230479   5.902   2.170  17.105  0.5233  0.0250 -2.6897
 3022TIP3   OH230480   1.564   4.277  15.962  1.4090  0.5875  0.0057
 3022TIP3    H130481   1.638   4.337  15.957  0.5937  1.6012 -0.1635
 3022TIP3    H230482   1.571   4.223  15.884  1.4131  1.3447 -0.5226
 3023TIP3   OH230483   3.490   6.541  15.506  0.5547  0.0427 -0.9846
 3023TIP3    H130484   3.483   6.637  15.506  0.3599  0.0275 -0.6059
 3023TIP3    H230485   3.446   6.513  15.586  0.4991 -0.3746 -1.1552
 3024TIP3   OH230486   3.713   3.871  13.138 -0.5957  0.1821  0.7138
 3024TIP3    H130487   3.672   3.907  13.216 -1.2915  0.6226  0.1594
 3024TIP3    H230488   3.718   3.945  13.077 -0.8309 -0.3356  0.0478
 3025TIP3   OH230489   2.866   3.360  16.705  0.1210 -0.2827  0.4291
 3025TIP3    H130490   2.934   3.309  16.662 -1.2349 -1.7329 -0.0579
 3025TIP3    H230491   2.797   3.296  16.724 -1.4794  1.3077  0.0831
 3026TIP3   OH230492   2.791   6.466   2.218  0.6821 -0.5479  0.2628
 3026TIP3    H130493   2.857   6.409   2.258 -1.3379 -2.3129  1.1433
 3026TIP3    H230494   2.818   6.473   2.126  2.0616 -1.2579  0.5922
 3027TIP3   OH230495   0.706   3.294  16.024  0.2554  0.0637 -0.2172
 3027TIP3    H130496   0.700   3.289  16.119 -1.3022 -1.6254 -0.3752
 3027TIP3    H230497   0.665   3.214  15.993  1.4527  0.2170 -2.3046
 3028TIP3   OH230498   2.057   5.749  17.137 -0.1443 -0.0068 -0.0145
 3028TIP3    H130499   1.998   5.717  17.205 -0.9205 -0.8274 -1.0593
 3028TIP3    H230500   2.003   5.806  17.082  0.9258  2.1448  1.1026
 3029TIP3   OH230501   1.183   5.085   3.489 -0.6118  0.9358  0.0388
 3029TIP3    H130502   1.152   5.003   3.529  0.5693  1.1179  1.3629
 3029TIP3    H230503   1.104   5.138   3.480 -0.9618  0.8008  1.9724
 3030TIP3   OH230504   1.964   2.450   4.857  0.2118 -0.0610  0.0343
 3030TIP3    H130505   1.882   2.418   4.895 -0.2669  1.7266  0.5572
 3030TIP3    H230506   2.022   2.463   4.933  0.9500 -1.1972 -0.3205
 3031TIP3   OH230507   1.629   2.189  15.449 -0.2766 -0.2055  0.1447
 3031TIP3    H130508   1.687   2.196  15.374  0.9976  4.0694  1.4536
 3031TIP3    H230509   1.560   2.253  15.432 -1.4021 -1.0544  1.4185
 3032TIP3   OH230510   6.526   1.861  12.615 -0.2739  0.4323  0.0408
 3032TIP3    H130511   6.549   1.793  12.552 -1.0327  0.4285 -0.2337
 3032TIP3    H230512   6.610   1.892  12.649  0.1617  0.8207 -1.3817
 3033TIP3   OH230513   2.001   0.413   4.878 -0.4621  0.2557  0.2775
 3033TIP3    H130514   2.071   0.443   4.936 -1.3876 -1.1945  2.2140
 3033TIP3    H230515   2.046   0.384   4.799  0.9267  1.3247  0.6608
 3034TIP3   OH230516   6.684   1.039   5.625 -0.0323 -0.2551  0.1212
 3034TIP3    H130517   6.636   1.120   5.608  0.5047  0.0737  0.1844
 3034TIP3    H230518   6.615   0.973   5.637 -0.4545 -0.1867 -1.7407
 3035TIP3   OH230519   1.139   0.434  12.428 -0.5503  0.0664 -0.5716
 3035TIP3    H130520   1.227   0.425  12.393 -0.2843  2.3374 -0.5133
 3035TIP3    H230521   1.151   0.469  12.516 -1.4384 -1.3071  0.1109
 3036TIP3   OH230522   4.775   5.298   3.989  0.2958  0.3487 -0.7696
 3036TIP3    H130523   4.769   5.381   4.036  0.7518 -0.4463  0.7324
 3036TIP3    H230524   4.869   5.287   3.973  0.2268  0.1600 -1.0554
 3037TIP3   OH230525   1.183   6.359  10.741  0.0226  0.8987  0.1237
 3037TIP3    H130526   1.158   6.268  10.720 -1.4005  1.1079  0.8709
 3037TIP3    H230527   1.155   6.371  10.832 -3.6027  3.3635 -1.1935
 3038TIP3   OH230528   4.318   4.589  14.353 -0.5321  0.5374  0.5966
 3038TIP3    H130529   4.345   4.506  14.392 -1.8070  0.3624  1.1502
 3038TIP3    H230530   4.224   4.580  14.340 -0.6951  1.9061  0.6900
 3039TIP3   OH230531   2.444   1.428  14.749 -0.3895  0.2632  0.2721
 3039TIP3    H130532   2.390   1.494  14.705 -0.5992 -0.0055  0.1238
 3039TIP3    H230533   2.480   1.376  14.678  0.7065  0.9308  0.3325
 3040TIP3   OH230534   0.214   4.402   2.200  0.0545 -0.1045  0.5092
 3040TIP3    H130535   0.291   4.346   2.189  0.2463 -0.1308  1.9804
 3040TIP3    H230536   0.220   4.435   2.289 -0.1412  2.1493 -0.2784
 3041TIP3   OH230537   1.466   3.203  15.020 -0.1420 -0.3158 -0.3871
 3041TIP3    H130538   1.414   3.236  15.094 -0.8152 -1.5753 -0.2965
 3041TIP3    H230539   1.542   3.162  15.062 -0.4850 -0.9607 -0.3917
 3042TIP3   OH230540   4.491   5.611   0.049 -0.6713 -0.0279  0.6957
 3042TIP3    H130541   4.409   5.651   0.021 -0.3002  0.0161 -0.3546
 3042TIP3    H230542   4.478   5.592   0.142 -2.0014 -0.3471  0.4532
 3043TIP3   OH230543   6.231   5.264  15.581  0.6990  0.3001 -0.4171
 3043TIP3    H130544   6.239   5.336  15.519  0.5780 -0.0175 -0.8014
 3043TIP3    H230545   6.270   5.298  15.662  2.4556  0.0973 -1.1601
 3044TIP3   OH230546   0.690   1.818   1.400 -0.2361  0.0865  0.0801
 3044TIP3    H130547   0.651   1.754   1.341  0.3257 -0.9688  0.8501
 3044TIP3    H230548   0.775   1.781   1.424 -0.8040  0.0897  2.2298
 3045TIP3   OH230549   5.757   5.031  15.360 -0.4300  0.0338 -0.4788
 3045TIP3    H130550   5.679   4.980  15.340 -0.9625  0.7552 -0.2852
 3045TIP3    H230551   5.724   5.119  15.379  0.2878 -0.0083  1.0523
 3046TIP3   OH230552   1.075   5.098  14.242 -0.4183 -0.9304  0.2188
 3046TIP3    H130553   1.100   5.006  14.232 -1.8613 -1.4707  1.5055
 3046TIP3    H230554   1.087   5.135  14.154 -1.0650 -2.6603 -0.6323
 3047TIP3   OH230555   0.647   3.392   5.638 -0.1632  0.6474 -0.0587
 3047TIP3    H130556   0.680   3.441   5.562 -0.0697  0.9220  0.1575
 3047TIP3    H230557   0.646   3.301   5.609  0.0680  0.7275 -0.3204
 3048TIP3   OH230558   4.194   4.657  13.608  0.3179 -0.2132 -0.3725
 3048TIP3    H130559   4.150   4.587  13.560 -0.9168  1.0765 -1.1608
 3048TIP3    H230560   4.128   4.725  13.618  1.5566  0.9476  0.1829
 3049TIP3   OH230561   1.393   4.062  14.037 -0.3062  0.0653 -0.0036
 3049TIP3    H130562   1.421   4.153  14.032 -2.9989  0.9523  0.2250
 3049TIP3    H230563   1.364   4.051  14.128 -0.3201 -0.9367 -0.1193
 3050TIP3   OH230564   1.337   1.477   2.617  0.1094  0.0971  0.1735
 3050TIP3    H130565   1.418   1.444   2.656 -0.6902 -0.4447  1.4320
 3050TIP3    H230566   1.282   1.400   2.606 -0.5557  0.5729  0.1271
 3051TIP3   OH230567   2.865   3.258  10.776  0.0033  0.0261  0.3542
 3051TIP3    H130568   2.947   3.243  10.730  0.8180 -0.4796  1.9411
 3051TIP3    H230569   2.856   3.353  10.780  0.5815  0.0808  0.3076
 3052TIP3   OH230570   1.256   4.071  11.619 -0.1286  0.2108  0.2422
 3052TIP3    H130571   1.332   4.075  11.561 -0.4350 -0.4805 -0.2121
 3052TIP3    H230572   1.274   4.136  11.687  0.9173 -0.0220  0.1941
 3053TIP3   OH230573   4.662   1.512  14.296 -0.4047  0.2387  0.7746
 3053TIP3    H130574   4.730   1.456  14.332  1.3869  0.3025 -2.2789
 3053TIP3    H230575   4.581   1.463  14.309  0.8250 -1.9824  0.3715
 3054TIP3   OH230576   2.610   2.177  15.505 -0.1459  0.4457  0.0275
 3054TIP3    H130577   2.618   2.082  15.502  0.5907  0.5119 -0.2206
 3054TIP3    H230578   2.518   2.193  15.528 -0.5936 -0.3105 -1.1869
 3055TIP3   OH230579   1.279   0.939  12.180 -0.3979 -0.3322 -0.1762
 3055TIP3    H130580   1.258   1.021  12.136 -3.0626 -1.9714 -2.1275
 3055TIP3    H230581   1.253   0.953  12.271 -0.9519  0.9134 -0.5154
 3056TIP3   OH230582   0.213   5.722   5.093  0.1019  0.2199  0.4102
 3056TIP3    H130583   0.124   5.694   5.075  0.0845  0.0576  0.7445
 3056TIP3    H230584   0.245   5.661   5.160  1.0094 -0.7130 -0.8446
 3057TIP3   OH230585   1.669   0.460  14.919  0.7943 -0.4828 -0.2968
 3057TIP3    H130586   1.594   0.492  14.969  1.1385  1.8435 -1.2005
 3057TIP3    H230587   1.632   0.435  14.834  0.9384 -0.0483 -0.4836
 3058TIP3   OH230588   6.438   6.490  11.426 -0.2868 -0.0305 -0.0186
 3058TIP3    H130589   6.346   6.492  11.402 -0.2452 -1.8120 -0.3372
 3058TIP3    H230590   6.463   6.398  11.423  1.7929  0.5211 -1.0541
 3059TIP3   OH230591   6.704   6.252  14.310  0.3024 -0.3358 -0.2495
 3059TIP3    H130592   6.748   6.333  14.335  0.4312 -0.6208  0.4581
 3059TIP3    H230593   6.613   6.265  14.334  0.0830  0.0961 -1.3329
 3060TIP3   OH230594   5.220   1.399  11.265  0.1412  0.2434 -0.2703
 3060TIP3    H130595   5.206   1.492  11.284  0.1179  0.7057 -2.3619
 3060TIP3    H230596   5.313   1.385  11.283 -0.0642  0.4277  0.9828
 3061TIP3   OH230597   6.725   0.213   1.190  0.3509  0.1996 -0.2083
 3061TIP3    H130598   6.632   0.233   1.180 -0.0786 -0.0438  2.9412
 3061TIP3    H230599   6.758   0.280   1.250  2.2351  0.2996 -1.3162
 3062TIP3   OH230600   1.277   6.579  11.571 -0.5074  0.0047  0.0198
 3062TIP3    H130601   1.226   6.635  11.512  0.3803  1.7607  0.8888
 3062TIP3    H230602   1.355   6.556  11.521  0.3851  1.7349  0.6012
 3063TIP3   OH230603   4.203   5.197   5.589  0.0406  0.2706  0.6038
 3063TIP3    H130604   4.290   5.196   5.629  1.8291 -2.5315 -3.0120
 3063TIP3    H230605   4.199   5.280   5.541  0.6668  0.4851  0.9136
 3064TIP3   OH230606   2.751   4.509  17.144 -0.3011  0.3907 -0.3195
 3064TIP3    H130607   2.778   4.548  17.228 -0.4019 -0.8005  0.2819
 3064TIP3    H230608   2.656   4.515  17.145 -0.3442 -0.2621 -0.0196
 3065TIP3   OH230609   5.283   1.533   2.245  0.2778 -0.3400  0.2448
 3065TIP3    H130610   5.307   1.486   2.326  0.0800 -1.3273 -0.2601
 3065TIP3    H230611   5.357   1.590   2.228  0.4785 -0.3834  0.9365
 3066TIP3   OH230612   5.388   3.766   1.628 -0.0200 -0.5593 -0.0686
 3066TIP3    H130613   5.309   3.783   1.679 -0.1253  0.1118 -0.4475
 3066TIP3    H230614   5.359   3.770   1.537 -0.0993 -3.0521 -0.1813
 3067TIP3   OH230615   6.057   2.875   1.633  0.0728 -0.6959 -0.2661
 3067TIP3    H130616   6.073   2.828   1.551  0.2810  0.8747 -1.1408
 3067TIP3    H230617   5.981   2.830   1.672  0.0882 -1.5696 -1.2160
 3068TIP3   OH230618   6.463   5.076   0.910  0.6135 -0.0946 -0.6430
 3068TIP3    H130619   6.485   5.113   0.825  0.8298  2.2967  0.4088
 3068TIP3    H230620   6.379   5.116   0.932  0.9836  0.0083  0.6423
 3069TIP3   OH230621   3.924   5.905  12.828  0.4096  0.0645  0.0560
 3069TIP3    H130622   3.966   5.922  12.912 -0.2828  0.2313  0.3685
 3069TIP3    H230623   3.905   5.992  12.793 -3.0114 -0.0041  1.5907
 3070TIP3   OH230624   6.023   5.550  15.775 -0.0089  0.0801 -0.2806
 3070TIP3    H130625   6.017   5.585  15.864  0.1068  0.2518 -0.3398
 3070TIP3    H230626   5.950   5.489  15.768 -1.0246  1.3092 -0.6303
 3071TIP3   OH230627   1.502   4.261  13.133  0.0172  0.1356 -0.9077
 3071TIP3    H130628   1.438   4.245  13.203 -1.4805  3.1111 -1.5502
 3071TIP3    H230629   1.561   4.186  13.138 -0.3009  0.0433  3.2726
 3072TIP3   OH230630   5.399   2.043  14.014 -0.5654  0.0424  0.1986
 3072TIP3    H130631   5.451   2.030  13.934  0.7430 -0.1927  1.0731
 3072TIP3    H230632   5.341   2.116  13.992 -0.6042 -0.3688 -1.1544
 3073TIP3   OH230633   5.146   2.444   4.913 -0.2057 -0.1614 -0.2083
 3073TIP3    H130634   5.213   2.454   4.980  1.6065  1.5267 -2.2132
 3073TIP3    H230635   5.069   2.413   4.961  1.0768  0.8283  2.6163
 3074TIP3   OH230636   5.751   1.704  17.150  0.4797  0.6590 -0.1444
 3074TIP3    H130637   5.826   1.702  17.209  0.1092 -0.9740  0.3044
 3074TIP3    H230638   5.789   1.704  17.062  1.0132  1.3759  0.0846
 3075TIP3   OH230639   5.374   1.188   0.382 -0.3374 -0.2571 -0.3527
 3075TIP3    H130640   5.334   1.270   0.352 -1.5233 -0.9930 -0.7948
 3075TIP3    H230641   5.339   1.175   0.470  1.0555  0.5038  0.3282
 3076TIP3   OH230642   5.562   5.070  11.484 -0.3622 -0.1770  0.0228
 3076TIP3    H130643   5.636   5.010  11.479 -0.5131 -0.3160 -0.6391
 3076TIP3    H230644   5.597   5.154  11.456 -0.7613 -0.5369 -1.5993
 3077TIP3   OH230645   5.009   5.175   3.958  0.1374  0.1746  0.0884
 3077TIP3    H130646   4.988   5.084   3.977 -0.1981  0.6722  2.1597
 3077TIP3    H230647   5.104   5.175   3.941  0.4022 -0.3386  1.5084
 3078TIP3   OH230648   2.974   2.291   5.401 -0.4153  0.8325  0.3034
 3078TIP3    H130649   3.056   2.312   5.445 -0.8153  0.7632  1.0878
 3078TIP3    H230650   2.937   2.218   5.451 -0.5258  0.2719 -0.5748
 3079TIP3   OH230651   3.197   2.514   0.626 -0.1150  0.2651 -0.3780
 3079TIP3    H130652   3.115   2.465   0.627  0.0820 -0.0573 -0.1259
 3079TIP3    H230653   3.170   2.604   0.644 -0.2391 -0.1078  1.3500
 3080TIP3   OH230654   5.323   0.983   2.935  0.3727  0.0484 -0.1574
 3080TIP3    H130655   5.360   1.055   2.987 -2.0431 -0.1261  1.8923
 3080TIP3    H230656   5.251   1.024   2.886 -2.0265 -1.1898  2.1911
 3081TIP3   OH230657   4.597   4.930   1.514 -0.3264 -0.1340 -0.2479
 3081TIP3    H130658   4.516   4.967   1.479  0.1355  0.3905 -0.7619
 3081TIP3    H230659   4.584   4.836   1.507 -0.4606 -0.0485 -1.3433
 3082TIP3   OH230660   6.376   5.755  15.566 -0.1125  0.9066 -0.0988
 3082TIP3    H130661   6.467   5.738  15.588 -0.6015 -1.7563 -0.0250
 3082TIP3    H230662   6.359   5.700  15.489 -1.6166  1.5030 -0.2132
 3083TIP3   OH230663   2.179   0.910   1.301 -0.1860 -0.8196 -0.2933
 3083TIP3    H130664   2.237   0.943   1.232  1.1292 -0.6533  0.8680
 3083TIP3    H230665   2.202   0.962   1.378 -1.5763 -1.0744  0.3058
 3084TIP3   OH230666   6.253   4.858  12.300  0.1107 -0.0991  0.1215
 3084TIP3    H130667   6.329   4.805  12.278  1.0026  1.6713 -1.1793
 3084TIP3    H230668   6.287   4.928  12.354 -0.8949 -0.2497  0.9695
 3085TIP3   OH230669   2.656   5.192   2.520 -0.0287  0.3488 -0.1891
 3085TIP3    H130670   2.628   5.182   2.611  0.7445 -0.5255 -0.0375
 3085TIP3    H230671   2.626   5.113   2.476  2.2442 -0.6643  0.0070
 3086TIP3   OH230672   6.196   0.365  10.679  0.2805  0.1744 -0.2694
 3086TIP3    H130673   6.185   0.386  10.771  1.6577 -1.4590  0.2869
 3086TIP3    H230674   6.143   0.287  10.665  0.2892  0.2572 -0.7984
 3087TIP3   OH230675   0.798   3.360   1.681 -0.0498  0.7356  0.0821
 3087TIP3    H130676   0.718   3.321   1.646 -0.5259  0.5462  1.3481
 3087TIP3    H230677   0.868   3.298   1.659 -0.3542  0.5786 -0.4426
 3088TIP3   OH230678   4.261   6.605   5.581 -0.0763 -0.3251 -0.4210
 3088TIP3    H130679   4.200   6.668   5.621 -1.3358 -1.9466  0.3003
 3088TIP3    H230680   4.206   6.553   5.522  1.0792 -0.3314 -1.5106
 3089TIP3   OH230681   1.628   4.732  13.127 -0.3253  0.2096 -0.0495
 3089TIP3    H130682   1.545   4.722  13.080 -0.3146  2.1309 -0.5268
 3089TIP3    H230683   1.633   4.825  13.148  0.5182 -0.3250  2.2373
 3090TIP3   OH230684   5.353   3.032  13.649  0.7962  0.7132  0.4118
 3090TIP3    H130685   5.423   2.968  13.665 -1.2996 -1.8881 -0.4298
 3090TIP3    H230686   5.365   3.059  13.558  1.5995  1.4501  0.7262
 3091TIP3   OH230687   1.390   5.808  13.098 -0.7714 -0.1410  0.4975
 3091TIP3    H130688   1.320   5.866  13.129 -0.8687 -0.7201  1.3723
 3091TIP3    H230689   1.379   5.806  13.003 -0.2406  1.9447  0.3691
 3092TIP3   OH230690   2.740   3.433  14.022  0.1948  0.2141 -0.0509
 3092TIP3    H130691   2.744   3.513  14.075 -0.9220  0.9367 -1.0239
 3092TIP3    H230692   2.816   3.440  13.964  1.0771 -0.2877  1.0104
 3093TIP3   OH230693   3.968   5.850  11.446 -0.3065 -0.5425 -0.3415
 3093TIP3    H130694   4.049   5.803  11.425  1.0732  0.9533  1.3628
 3093TIP3    H230695   3.940   5.888  11.363  0.5698 -1.3413 -1.0174
 3094TIP3   OH230696   4.585   5.531  13.034  0.5134  0.2737 -0.2303
 3094TIP3    H130697   4.552   5.481  12.959  0.7788  0.5606 -0.5442
 3094TIP3    H230698   4.553   5.620  13.018 -0.2183  0.1496  0.4803
 3095TIP3   OH230699   0.265   6.262  16.929  0.1892 -0.8536  0.5481
 3095TIP3    H130700   0.255   6.229  16.840 -1.1075 -1.2242  0.8195
 3095TIP3    H230701   0.360   6.268  16.942  0.3916 -1.0892 -0.7385
 3096TIP3   OH230702   4.470   4.886   2.786  0.1521 -0.0859  0.0516
 3096TIP3    H130703   4.474   4.822   2.715  2.4227  0.4594 -0.3882
 3096TIP3    H230704   4.492   4.969   2.743 -1.9085  0.8516  0.7679
 3097TIP3   OH230705   1.658   0.351   0.912 -0.1730 -0.7881 -0.0590
 3097TIP3    H130706   1.663   0.335   0.818 -0.7133  1.4299 -0.4967
 3097TIP3    H230707   1.693   0.440   0.922  1.3498 -1.5809  2.0327
 3098TIP3   OH230708   4.609   5.587   2.295  0.8664 -0.4707 -0.1169
 3098TIP3    H130709   4.696   5.548   2.303  0.2217 -1.5551  2.3383
 3098TIP3    H230710   4.620   5.676   2.330  1.1400 -0.3649 -0.4690
 3099TIP3   OH230711   3.168   3.995   1.003 -0.0993 -0.2736  0.3030
 3099TIP3    H130712   3.251   3.960   0.972 -0.3955 -1.2127  0.5475
 3099TIP3    H230713   3.107   3.920   0.999 -1.0156  0.4794 -0.1979
 3100TIP3   OH230714   0.544   6.580  15.214 -0.4728  0.2075 -0.3217
 3100TIP3    H130715   0.500   6.523  15.151  0.3228 -1.5306  0.6685
 3100TIP3    H230716   0.485   6.655  15.224 -2.3788 -1.2663 -0.2968
 3101TIP3   OH230717   2.578   1.984  13.016 -0.0056 -0.2990 -0.1267
 3101TIP3    H130718   2.592   1.906  12.962 -2.0564 -0.0407 -1.0518
 3101TIP3    H230719   2.570   1.951  13.105  0.8358 -0.9744 -0.2980
 3102TIP3   OH230720   1.465   6.133  14.068  0.0044  0.7236  0.2112
 3102TIP3    H130721   1.442   6.042  14.048  0.5865  0.5496  0.3197
 3102TIP3    H230722   1.463   6.177  13.983  1.4356  0.2192 -0.0936
 3103TIP3   OH230723   5.544   3.952   4.305  0.0203  0.3089 -0.0996
 3103TIP3    H130724   5.528   3.943   4.211 -0.3189 -0.8954  0.0650
 3103TIP3    H230725   5.598   4.031   4.313 -0.3401  0.6775 -1.2604
 3104TIP3   OH230726   1.674   0.631  12.362  0.1094  0.0051  0.2030
 3104TIP3    H130727   1.609   0.692  12.396  0.2664 -0.7394  1.9068
 3104TIP3    H230728   1.627   0.578  12.298 -0.2841  1.2127 -0.5102
 3105TIP3   OH230729   0.299   3.897   4.850 -0.2234 -0.0358 -0.2639
 3105TIP3    H130730   0.392   3.880   4.832  0.1439  1.2833  0.3749
 3105TIP3    H230731   0.268   3.945   4.773 -0.3723 -0.4550 -0.4668
 3106TIP3   OH230732   5.008   4.072  11.426 -0.6602 -0.2681  0.7098
 3106TIP3    H130733   5.053   4.009  11.370 -0.5893 -0.5511  1.0865
 3106TIP3    H230734   4.976   4.021  11.500 -2.3037 -0.2119  0.0536
 3107TIP3   OH230735   4.371   6.716  17.024 -0.5050  0.4006  0.4017
 3107TIP3    H130736   4.446   6.776  17.029 -0.3111  0.3915 -1.8709
 3107TIP3    H230737   4.408   6.630  17.045 -0.4265  0.7798  1.8786
 3108TIP3   OH230738   1.680   5.803  16.153 -0.2949 -0.1654  0.3442
 3108TIP3    H130739   1.618   5.803  16.080 -0.6875 -2.7710  0.6312
 3108TIP3    H230740   1.755   5.753  16.120  0.4304  0.5028  0.9844
 3109TIP3   OH230741   3.238   3.805  11.777  0.1983  0.2528 -0.0812
 3109TIP3    H130742   3.158   3.856  11.786 -0.5665 -0.7932 -0.7938
 3109TIP3    H230743   3.255   3.771  11.865  0.5868  1.5428  0.3457
 3110TIP3   OH230744   4.609   4.407  12.335 -0.8061 -0.1692 -0.0530
 3110TIP3    H130745   4.652   4.460  12.402  0.9607  0.8406 -1.9104
 3110TIP3    H230746   4.591   4.324  12.377  1.1468  0.1088  1.3949
 3111TIP3   OH230747   3.315   2.446  12.002 -0.5254 -0.4616  0.0188
 3111TIP3    H130748   3.360   2.526  11.977 -2.1616  0.7303  0.7764
 3111TIP3    H230749   3.257   2.427  11.928  1.4904 -2.2444 -1.1552
 3112TIP3   OH230750   5.132   0.411   3.150 -0.3939  0.3970 -0.5186
 3112TIP3    H130751   5.214   0.387   3.108 -0.0410  0.9726 -0.1684
 3112TIP3    H230752   5.073   0.432   3.078 -1.0576 -2.5740 -0.8788
 3113TIP3   OH230753   0.819   3.030  15.933 -0.4199 -0.3040 -0.0968
 3113TIP3    H130754   0.831   3.125  15.945 -0.6962  0.1054 -2.7586
 3113TIP3    H230755   0.735   3.022  15.888  1.4841 -1.4437 -3.7042
 3114TIP3   OH230756   1.681   2.590   4.497 -0.2293 -0.8841  0.2136
 3114TIP3    H130757   1.758   2.566   4.445 -0.1194 -1.1123  0.4821
 3114TIP3    H230758   1.698   2.679   4.525 -0.1122 -0.8977  0.1854
 3115TIP3   OH230759   3.395   6.693  11.237  0.5068  0.5658 -0.0463
 3115TIP3    H130760   3.378   6.668  11.328  0.6890  2.3072  0.4948
 3115TIP3    H230761   3.471   6.640  11.211 -0.5689 -1.1650  0.2457
 3116TIP3   OH230762   5.506   1.973  16.648 -0.3180  0.0956 -0.0473
 3116TIP3    H130763   5.494   1.910  16.719  0.0121 -1.5662 -1.4289
 3116TIP3    H230764   5.433   2.035  16.659 -0.8197 -0.6788  1.1663
 3117TIP3   OH230765   5.488   1.538  14.849 -0.2266 -0.1683  0.2693
 3117TIP3    H130766   5.454   1.449  14.841  2.2968 -1.0050 -2.0054
 3117TIP3    H230767   5.578   1.527  14.878 -0.6597  1.7951  2.4511
 3118TIP3   OH230768   5.819   0.383   0.604 -0.0648  0.2064  0.1255
 3118TIP3    H130769   5.909   0.358   0.627 -0.1749 -1.2350 -0.9362
 3118TIP3    H230770   5.773   0.299   0.595 -1.6644  0.9410  1.2100
 3119TIP3   OH230771   5.543   2.186  10.792 -0.6263 -0.3573 -0.3089
 3119TIP3    H130772   5.486   2.135  10.735 -0.7340 -0.1101 -0.4235
 3119TIP3    H230773   5.498   2.271  10.800  0.6028  0.4628 -1.8385
 3120TIP3   OH230774   0.205   3.177  13.921 -0.0842  0.5136 -0.3599
 3120TIP3    H130775   0.231   3.128  13.999 -0.4857 -1.3290 -1.3505
 3120TIP3    H230776   0.229   3.120  13.848  2.3000  3.1270 -1.7201
 3121TIP3   OH230777   3.363   0.271  13.591 -0.2162 -0.0729 -0.2294
 3121TIP3    H130778   3.310   0.227  13.525 -1.0899 -0.5758  0.7692
 3121TIP3    H230779   3.417   0.333  13.543 -4.2480  3.0151 -1.0385
 3122TIP3   OH230780   6.269   1.152  13.819 -0.1990  0.0064 -0.0533
 3122TIP3    H130781   6.305   1.068  13.789  0.3392 -0.0257  0.6593
 3122TIP3    H230782   6.346   1.206  13.836 -0.4939  0.1426  0.9005
 3123TIP3   OH230783   6.213   3.936   3.394 -0.5375  0.6517  0.0468
 3123TIP3    H130784   6.135   3.983   3.423 -0.3463  0.7761  0.3655
 3123TIP3    H230785   6.228   3.870   3.462 -1.8276 -1.0439 -1.2809
 3124TIP3   OH230786   3.778   2.367  13.215 -0.6700 -0.0241 -0.0869
 3124TIP3    H130787   3.858   2.369  13.268 -0.4944  1.1170 -0.3923
 3124TIP3    H230788   3.738   2.282  13.236 -0.7553  0.5314  2.1180
 3125TIP3   OH230789   3.611   1.177  11.396 -0.0159 -0.0413  0.2018
 3125TIP3    H130790   3.589   1.264  11.363 -1.4202  0.2779  1.9050
 3125TIP3    H230791   3.579   1.117  11.329  0.4790  0.7144 -0.7295
 3126TIP3   OH230792   0.767   4.860  15.562 -0.8172 -0.2338 -0.0385
 3126TIP3    H130793   0.822   4.781  15.563  3.2415  2.4211  0.3680
 3126TIP3    H230794   0.785   4.902  15.646 -3.2264  0.9377 -0.0842
 3127TIP3   OH230795   0.174   3.929   3.696 -0.1386 -0.5906 -0.1639
 3127TIP3    H130796   0.168   3.992   3.767  1.1905 -0.2308 -0.3641
 3127TIP3    H230797   0.083   3.906   3.677 -0.5312 -0.2943  1.2837
 3128TIP3   OH230798   3.216   3.034  16.972 -0.1750  0.2403 -0.4126
 3128TIP3    H130799   3.249   2.944  16.966 -0.6030  0.0303  0.3016
 3128TIP3    H230800   3.262   3.081  16.902  0.8283 -0.2943 -0.1333
 3129TIP3   OH230801   2.670   4.057  14.368  0.2536 -0.2183  0.2573
 3129TIP3    H130802   2.718   3.975  14.382  0.9891  0.3662  1.2647
 3129TIP3    H230803   2.668   4.098  14.455 -1.2813  0.1967  0.0273
 3130TIP3   OH230804   6.199   5.680   0.702  0.3941 -0.0771 -0.2532
 3130TIP3    H130805   6.254   5.756   0.719  1.0241 -0.5377 -0.2335
 3130TIP3    H230806   6.168   5.653   0.789  0.3482  0.0228 -0.2386
 3131TIP3   OH230807   4.968   0.075   5.487  0.4111  0.4489  0.3091
 3131TIP3    H130808   4.932   0.087   5.575  0.0313  0.8282  0.1052
 3131TIP3    H230809   4.926   0.143   5.434  0.5254  0.1281 -0.2015
 3132TIP3   OH230810   5.630   5.275  15.410 -0.4698  0.2640 -0.3932
 3132TIP3    H130811   5.546   5.234  15.390 -0.8777  0.1925  1.3482
 3132TIP3    H230812   5.643   5.339  15.341 -2.3727  0.8437 -0.2427
 3133TIP3   OH230813   4.121   2.571   4.190 -0.1870 -0.1090 -0.5110
 3133TIP3    H130814   4.079   2.576   4.276  0.4980 -0.4359 -0.1569
 3133TIP3    H230815   4.065   2.511   4.140  0.1756 -0.9942  0.1398
 3134TIP3   OH230816   2.589   4.442   0.135  0.1878 -0.0066 -0.6686
 3134TIP3    H130817   2.565   4.353   0.159 -2.1079  1.2893  2.0786
 3134TIP3    H230818   2.644   4.473   0.207 -1.2234  1.6899 -0.2951
 3135TIP3   OH230819   4.746   2.122   4.120  0.1179  0.5671 -0.2616
 3135TIP3    H130820   4.780   2.088   4.037  0.8481  1.1226 -0.1959
 3135TIP3    H230821   4.680   2.058   4.147 -0.1011  0.3648 -1.2512
 3136TIP3   OH230822   0.669   4.955  14.032  0.5006 -0.1217  0.3021
 3136TIP3    H130823   0.749   4.923  14.073  0.6664  0.9359  0.7951
 3136TIP3    H230824   0.599   4.914  14.082  0.7082  0.7174  1.2875
 3137TIP3   OH230825   3.036   2.142   1.446 -0.6413 -0.3419  0.1767
 3137TIP3    H130826   2.969   2.077   1.467 -1.6256 -0.2118 -2.3679
 3137TIP3    H230827   3.109   2.090   1.412 -0.6901 -0.2559 -0.0585
 3138TIP3   OH230828   6.447   6.606  14.281  0.2663  0.0938  0.5765
 3138TIP3    H130829   6.474   6.669  14.348 -1.5278  2.2287 -0.6006
 3138TIP3    H230830   6.520   6.603  14.220  0.2855  1.2565  0.5302
 3139TIP3   OH230831   3.215   0.829   6.172 -0.4477 -0.2414 -0.0033
 3139TIP3    H130832   3.300   0.828   6.128 -0.2771  2.1666  0.2145
 3139TIP3    H230833   3.236   0.832   6.265 -0.7716 -0.5047  0.0789
 3140TIP3   OH230834   4.042   6.243  11.586 -0.4101 -1.0990 -0.4090
 3140TIP3    H130835   3.984   6.168  11.603  0.5686 -1.8683 -0.3944
 3140TIP3    H230836   4.082   6.223  11.502  2.1219 -2.0728  0.9802
 3141TIP3   OH230837   4.906   2.404   2.354  0.1027  0.2540 -0.0992
 3141TIP3    H130838   4.927   2.412   2.261  2.0392  1.6575  0.4409
 3141TIP3    H230839   4.988   2.377   2.395 -0.6198  0.1084  1.2728
 3142TIP3   OH230840   6.347   0.728  11.698  0.1301 -0.2592 -0.0082
 3142TIP3    H130841   6.351   0.755  11.789  2.2258  0.6736 -0.3666
 3142TIP3    H230842   6.401   0.649  11.693 -2.2009 -1.9162  0.0843
 3143TIP3   OH230843   4.739   4.169  14.605  0.5768 -0.2921 -0.2360
 3143TIP3    H130844   4.680   4.182  14.679 -1.1116  0.3863 -1.6915
 3143TIP3    H230845   4.685   4.131  14.537  1.6114  1.1204 -1.8873
 3144TIP3   OH230846   5.536   6.059   5.864 -0.3957  0.2725 -0.3220
 3144TIP3    H130847   5.493   6.076   5.948 -1.2338  2.1124 -1.1116
 3144TIP3    H230848   5.575   6.142   5.839  0.2117 -0.3694 -1.5694
 3145TIP3   OH230849   4.243   3.267   0.121 -0.4412 -0.2186  0.2730
 3145TIP3    H130850   4.267   3.226   0.039  1.6253 -0.3550  0.9156
 3145TIP3    H230851   4.292   3.350   0.122 -1.1543  0.2088  0.9616
 3146TIP3   OH230852   3.708   4.011   3.967 -0.3992 -0.1137  0.3560
 3146TIP3    H130853   3.773   3.965   3.914 -0.2692 -0.7275  1.0529
 3146TIP3    H230854   3.760   4.062   4.030 -0.5774 -0.0148  0.4243
 3147TIP3   OH230855   1.868   2.741   3.584  0.0457 -0.3802  0.4109
 3147TIP3    H130856   1.777   2.720   3.563  0.3872 -0.5906 -0.9118
 3147TIP3    H230857   1.910   2.656   3.599 -0.0980 -0.2521  1.5461
 3148TIP3   OH230858   2.595   1.105   1.313  0.4152 -0.7617  0.0036
 3148TIP3    H130859   2.575   1.047   1.387 -0.2731  1.1327  1.3256
 3148TIP3    H230860   2.514   1.154   1.298  1.4058  0.8552 -0.1751
 3149TIP3   OH230861   4.279   6.478  14.400 -0.1226  0.0634 -0.3192
 3149TIP3    H130862   4.362   6.432  14.410 -0.1467  0.4480  1.8807
 3149TIP3    H230863   4.225   6.418  14.349  1.6213 -0.0001 -2.1774
 3150TIP3   OH230864   3.854   5.290   0.122 -0.5729 -0.1249  0.3755
 3150TIP3    H130865   3.803   5.282   0.042  2.2560 -0.6651 -1.4781
 3150TIP3    H230866   3.826   5.217   0.177  0.2721 -2.1793 -1.8316
 3151TIP3   OH230867   6.266   4.324  16.819  0.2520  0.3135 -0.2441
 3151TIP3    H130868   6.280   4.247  16.874  0.1947  1.9172  2.0773
 3151TIP3    H230869   6.330   4.315  16.748  0.6802 -1.5248  0.3595
 3152TIP3   OH230870   3.028   2.448   3.635  0.1817 -0.8751 -0.0210
 3152TIP3    H130871   2.987   2.409   3.712  0.5514 -1.8207 -0.3064
 3152TIP3    H230872   2.956   2.456   3.572  0.3597 -2.2204 -0.3996
 3153TIP3   OH230873   0.940   5.838   1.993 -0.6729  0.0026  0.0582
 3153TIP3    H130874   0.917   5.771   1.929 -2.2055  0.8329 -0.2768
 3153TIP3    H230875   0.879   5.824   2.065 -0.4494  0.5134  0.3475
 3154TIP3   OH230876   6.510   2.306  16.092  0.4280 -0.5180 -0.0270
 3154TIP3    H130877   6.440   2.357  16.051  1.3171  1.3963  0.7794
 3154TIP3    H230878   6.521   2.346  16.178  1.5710 -1.6972  0.3719
 3155TIP3   OH230879   6.237   0.855   2.714 -0.6272 -0.5004 -0.5937
 3155TIP3    H130880   6.300   0.874   2.645 -2.4713  0.1958 -2.1331
 3155TIP3    H230881   6.208   0.765   2.696 -1.6417 -0.0656 -1.1802
 3156TIP3   OH230882   5.789   4.162  13.811 -0.3445  0.0893  0.5616
 3156TIP3    H130883   5.784   4.183  13.905  1.5977  0.5937  0.5822
 3156TIP3    H230884   5.722   4.095  13.798  0.7207 -1.4634  2.7243
 3157TIP3   OH230885   1.275   6.657  13.801 -0.5390  0.0565  0.0436
 3157TIP3    H130886   1.245   6.747  13.811 -0.2406 -0.0433  2.1441
 3157TIP3    H230887   1.225   6.608  13.867  0.7910 -0.9472  0.3283
 3158TIP3   OH230888   4.482   6.370   1.589 -0.5717  0.6940  0.6067
 3158TIP3    H130889   4.472   6.335   1.501  1.3220 -0.3838  0.7844
 3158TIP3    H230890   4.574   6.396   1.595 -0.2603 -0.7399  2.7740
 3159TIP3   OH230891   2.512   1.479  13.132 -0.5823 -0.2109 -0.2525
 3159TIP3    H130892   2.530   1.556  13.186  3.4916 -1.1977 -0.0742
 3159TIP3    H230893   2.524   1.405  13.191  0.1708 -1.1537 -1.5644
 3160TIP3   OH230894   5.840   4.990  15.837 -0.3295  0.5913  0.5038
 3160TIP3    H130895   5.772   4.972  15.902  0.0918 -0.8839  0.5383
 3160TIP3    H230896   5.816   4.938  15.761  0.2153  0.8303  0.1596
 3161TIP3   OH230897   3.621   5.812  12.542  0.4029  0.3663  0.0058
 3161TIP3    H130898   3.588   5.728  12.511  0.9718  0.0349  0.2797
 3161TIP3    H230899   3.612   5.871  12.467 -0.2195  0.1225 -0.1093
 3162TIP3   OH230900   2.109   4.432  13.354 -0.3248  0.1771  0.0926
 3162TIP3    H130901   2.078   4.396  13.437 -0.2750  0.7783  0.3703
 3162TIP3    H230902   2.041   4.492  13.325 -1.3061 -1.5481 -1.3377
 3163TIP3   OH230903   4.915   1.511   1.496 -0.1605  0.1737 -0.2634
 3163TIP3    H130904   4.945   1.600   1.474  0.2732  0.5073  1.5701
 3163TIP3    H230905   4.943   1.499   1.587 -1.7351 -1.1971  0.0518
 3164TIP3   OH230906   2.545   3.541   3.285  0.1135  0.4485  0.1606
 3164TIP3    H130907   2.596   3.540   3.204  1.4142  2.9459  0.9047
 3164TIP3    H230908   2.607   3.567   3.352 -1.1859 -0.6387  1.8331
 3165TIP3   OH230909   6.434   0.920  12.926  0.1963  0.0536 -0.3157
 3165TIP3    H130910   6.463   0.945  12.838  0.8560 -0.3479 -0.2100
 3165TIP3    H230911   6.385   0.996  12.957 -2.2927 -0.7822 -2.0474
 3166TIP3   OH230912   2.624   4.808   6.552 -0.0861  0.2525 -0.1388
 3166TIP3    H130913   2.568   4.862   6.496  1.4771  1.1709 -0.8439
 3166TIP3    H230914   2.713   4.833   6.528  0.6316 -1.0096  1.1482
 3167TIP3   OH230915   2.034   6.325   4.418  0.1003 -0.2133  0.1123
 3167TIP3    H130916   1.997   6.247   4.458  0.5823  0.2920  1.5891
 3167TIP3    H230917   1.989   6.398   4.461 -0.4487  0.3303 -1.3441
 3168TIP3   OH230918   6.169   2.553  14.026 -0.2453  1.4382  0.4626
 3168TIP3    H130919   6.111   2.522  14.095  1.3205 -2.3094  0.2523
 3168TIP3    H230920   6.255   2.558  14.068 -0.0042  3.1795 -0.1922
 3169TIP3   OH230921   2.450   2.495  12.810 -0.2712 -0.6754 -0.2137
 3169TIP3    H130922   2.381   2.510  12.746 -0.6804 -2.4754 -0.2138
 3169TIP3    H230923   2.413   2.524  12.893 -0.4967 -0.2794 -0.4526
 3170TIP3   OH230924   0.994   0.637  15.120 -0.3876 -0.0941 -0.8197
 3170TIP3    H130925   1.003   0.566  15.056 -0.3904  0.2072 -1.1541
 3170TIP3    H230926   0.978   0.592  15.203  2.0848 -0.5805 -0.5763
 3171TIP3   OH230927   6.263   2.977   2.392 -0.3518  0.0800 -0.3053
 3171TIP3    H130928   6.258   2.923   2.313  1.2802 -0.4555 -0.0549
 3171TIP3    H230929   6.181   2.960   2.437 -0.4552 -1.1339 -0.9159
 3172TIP3   OH230930   3.426   2.780   2.875 -0.5090  0.4746 -0.4009
 3172TIP3    H130931   3.333   2.767   2.894 -0.0227 -0.6529  1.3566
 3172TIP3    H230932   3.431   2.783   2.780 -2.4469  1.3856 -0.5076
 3173TIP3   OH230933   2.384   2.068  15.278 -0.6695  0.3277  0.0398
 3173TIP3    H130934   2.362   2.092  15.368 -0.2647 -0.2082  0.2839
 3173TIP3    H230935   2.422   1.980  15.285 -0.2451  0.4550 -0.5980
 3174TIP3   OH230936   2.740   6.453  13.437 -0.5650 -0.6083  0.5235
 3174TIP3    H130937   2.685   6.528  13.416 -1.1510 -1.4064 -0.8839
 3174TIP3    H230938   2.702   6.416  13.517 -0.7981  0.0758  0.7278
 3175TIP3   OH230939   3.571   4.053   0.596 -0.4527 -0.1268  0.1680
 3175TIP3    H130940   3.595   4.137   0.636 -0.1829 -0.6974  1.2269
 3175TIP3    H230941   3.653   4.004   0.591 -0.8148 -0.8039  0.7032
 3176TIP3   OH230942   6.210   2.506  16.801 -0.4713 -0.1307 -0.0799
 3176TIP3    H130943   6.235   2.526  16.891  1.5227 -1.3227 -0.3444
 3176TIP3    H230944   6.284   2.537  16.748 -0.9666 -0.7772 -1.1685
 3177TIP3   OH230945   6.531   0.249  11.372 -0.3092  0.1947 -0.1889
 3177TIP3    H130946   6.544   0.170  11.320  0.1787  0.6987 -0.8354
 3177TIP3    H230947   6.437   0.266  11.367 -0.7597 -1.4678  1.6062
 3178TIP3   OH230948   2.589   2.637  17.000 -0.5435 -0.2771 -0.1692
 3178TIP3    H130949   2.524   2.568  17.012 -1.2862  0.1142 -1.7121
 3178TIP3    H230950   2.543   2.705  16.950  0.9849  0.1012 -1.1192
 3179TIP3   OH230951   2.940   3.046   5.374 -0.6938 -0.0291 -0.6340
 3179TIP3    H130952   2.863   3.093   5.344 -0.6053  2.2987  2.5235
 3179TIP3    H230953   2.915   3.009   5.459  0.6535 -2.0490 -1.0528
 3180TIP3   OH230954   3.425   3.632   1.465 -0.3218  0.7049  0.2392
 3180TIP3    H130955   3.415   3.684   1.544 -1.6870 -0.3501  0.7791
 3180TIP3    H230956   3.459   3.548   1.495 -0.8368  0.3016 -0.2959
 3181TIP3   OH230957   1.745   0.606   0.977  0.4338 -0.1151 -0.3586
 3181TIP3    H130958   1.833   0.612   0.942  0.4506  0.9149 -0.1468
 3181TIP3    H230959   1.704   0.690   0.955 -0.7718 -0.9183 -1.2173
 3182TIP3   OH230960   6.327   3.790  17.218 -0.0107 -0.0629  0.0427
 3182TIP3    H130961   6.378   3.730  17.273 -0.3212 -1.8914 -1.6221
 3182TIP3    H230962   6.386   3.863  17.202  0.4846 -0.0287  1.8493
 3183TIP3   OH230963   3.820   6.417  16.781 -0.6589  0.3990  0.0531
 3183TIP3    H130964   3.755   6.474  16.739 -0.3438  0.0798 -0.8742
 3183TIP3    H230965   3.888   6.477  16.811  1.1814  0.2964 -3.6160
 3184TIP3   OH230966   3.918   3.954   0.125 -0.3996  0.1905 -0.4855
 3184TIP3    H130967   3.947   3.868   0.156  0.4344 -0.0103 -1.7945
 3184TIP3    H230968   3.990   4.012   0.147 -0.4735  0.3377 -0.6320
 3185TIP3   OH230969   2.508   0.714  15.352  0.4601  0.1386 -0.7829
 3185TIP3    H130970   2.493   0.767  15.430  1.3245 -2.0107  0.8756
 3185TIP3    H230971   2.428   0.662  15.343  0.4346  0.2549 -1.2363
 3186TIP3   OH230972   3.320   3.507  15.332 -0.3727  0.1966  0.3403
 3186TIP3    H130973   3.368   3.436  15.291  0.7885  1.5973 -0.7657
 3186TIP3    H230974   3.365   3.587  15.303 -0.7716  1.3185  2.6989
 3187TIP3   OH230975   2.040   2.476  11.918  0.7650 -0.0587 -0.3411
 3187TIP3    H130976   2.070   2.566  11.908  3.4478 -0.7415  1.1110
 3187TIP3    H230977   2.029   2.444  11.828 -0.9600  1.9120 -0.8654
 3188TIP3   OH230978   3.069   1.070   2.619  0.1640 -0.9534 -0.5082
 3188TIP3    H130979   3.063   1.000   2.683  1.9602  1.0798  1.9377
 3188TIP3    H230980   2.992   1.125   2.637 -0.5545 -1.5645 -1.6099
 3189TIP3   OH230981   1.109   2.062   2.998 -0.1023  0.0817 -0.6903
 3189TIP3    H130982   1.153   1.989   2.956  1.7153  1.5138 -1.3415
 3189TIP3    H230983   1.047   2.094   2.932  0.7497  0.5655 -1.2680
 3190TIP3   OH230984   3.259   2.986   4.222  0.7564 -0.0069 -0.1367
 3190TIP3    H130985   3.323   3.015   4.157  1.0141 -0.0110  0.1086
 3190TIP3    H230986   3.311   2.977   4.303 -0.0126  2.3057  0.6406
 3191TIP3   OH230987   4.973   5.870  13.351  0.0256  0.1297 -0.9794
 3191TIP3    H130988   5.056   5.917  13.336  0.5953 -0.5349  0.0964
 3191TIP3    H230989   4.937   5.909  13.430 -1.4173  1.3948 -2.2060
 3192TIP3   OH230990   1.826   5.432  16.256  0.2500 -0.1538 -0.2828
 3192TIP3    H130991   1.793   5.347  16.285  1.9942 -0.4900  0.7820
 3192TIP3    H230992   1.873   5.412  16.175  0.1341 -0.0915 -0.3649
 3193TIP3   OH230993   6.780   0.990  12.946  0.3363 -0.0453  0.4198
 3193TIP3    H130994   6.793   1.053  12.876  0.0753  0.9242  1.2370
 3193TIP3    H230995   6.779   0.905  12.902  0.7365  0.5135 -0.6763
 3194TIP3   OH230996   2.027   5.458   4.741 -0.2691 -0.1667 -0.5518
 3194TIP3    H130997   1.960   5.390   4.741  1.2079 -1.6829  1.3525
 3194TIP3    H230998   2.109   5.410   4.727  0.9460  1.0142  2.1781
 3195TIP3   OH230999   6.225   5.599  12.029  0.0415 -0.9607  0.0983
 3195TIP3    H131000   6.155   5.601  11.963 -1.0578  0.5510  1.2655
 3195TIP3    H231001   6.261   5.511  12.023 -0.5943 -1.1115 -1.9402
 3196TIP3   OH231002   3.804   2.443  14.871 -0.2977  0.3878 -0.5145
 3196TIP3    H131003   3.731   2.381  14.871 -0.4694  0.4746  4.0772
 3196TIP3    H231004   3.783   2.506  14.940  2.9603  1.8219 -0.7358
 3197TIP3   OH231005   5.475   1.464  11.565  0.2288 -0.5218 -0.4707
 3197TIP3    H131006   5.391   1.462  11.611  0.0373  1.1326 -0.7077
 3197TIP3    H231007   5.482   1.554  11.532  1.2065 -1.1641 -2.0815
 3198TIP3   OH231008   0.432   5.914  13.633 -0.6118 -0.3720 -0.1490
 3198TIP3    H131009   0.337   5.900  13.635 -0.6396 -0.1951 -0.2735
 3198TIP3    H231010   0.458   5.913  13.725 -0.4686 -2.2986 -0.1871
 3199TIP3   OH231011   2.927   1.506   0.183  0.5120 -0.5602 -0.2612
 3199TIP3    H131012   2.880   1.581   0.219  0.5254 -0.8719  0.4165
 3199TIP3    H231013   2.913   1.436   0.247  3.0827 -0.2633  0.6959
 3200TIP3   OH231014   5.115   3.826   0.346  0.9987 -0.5858  0.3853
 3200TIP3    H131015   5.052   3.757   0.368 -1.1615  1.1939 -0.0294
 3200TIP3    H231016   5.119   3.881   0.424  2.8867 -1.2659  0.7975
 3201TIP3   OH231017   5.640   0.197  15.998 -0.1411 -0.1764 -0.0526
 3201TIP3    H131018   5.621   0.289  16.017 -0.3060 -0.2673  0.2333
 3201TIP3    H231019   5.634   0.191  15.903  1.2871  0.4160 -0.1906
 3202TIP3   OH231020   4.723   4.888  14.340 -0.3171  0.2836 -0.1143
 3202TIP3    H131021   4.817   4.887  14.353 -0.1224  2.0502 -1.3036
 3202TIP3    H231022   4.706   4.968  14.290 -2.1449 -1.2480 -2.0334
 3203TIP3   OH231023   3.874   4.247  13.542  0.1035 -0.5448  0.5009
 3203TIP3    H131024   3.940   4.199  13.592  0.2505  0.2913  1.1067
 3203TIP3    H231025   3.791   4.220  13.581  0.2486  0.5013  1.5335
 3204TIP3   OH231026   4.747   4.004   5.653  0.6851  0.3830  0.1404
 3204TIP3    H131027   4.744   3.962   5.567  1.1412  0.8581 -0.1152
 3204TIP3    H231028   4.716   3.938   5.714 -0.8917  0.4684 -0.5510
 3205TIP3   OH231029   5.685   6.182   5.238  0.2734 -0.1876  0.3692
 3205TIP3    H131030   5.622   6.138   5.295  1.3668 -0.6762  1.2091
 3205TIP3    H231031   5.631   6.221   5.169 -0.8444 -1.5959  0.4224
 3206TIP3   OH231032   0.912   4.602   4.162 -0.4058  0.3583  0.3962
 3206TIP3    H131033   0.848   4.572   4.227 -1.8188 -0.2670 -1.2297
 3206TIP3    H231034   0.952   4.522   4.129 -1.3638  0.4908 -1.1384
 3207TIP3   OH231035   4.367   1.887   2.443  0.8721 -0.2763 -0.4510
 3207TIP3    H131036   4.361   1.977   2.476  2.8093 -1.0038  2.0069
 3207TIP3    H231037   4.458   1.862   2.457  0.4704 -2.4990 -1.5450
 3208TIP3   OH231038   1.009   0.271   5.090  0.0661  0.1736 -0.6560
 3208TIP3    H131039   1.104   0.280   5.101  0.0830 -1.8849  1.0561
 3208TIP3    H231040   0.999   0.193   5.034 -0.6849 -1.9095  2.2750
 3209TIP3   OH231041   4.786   0.330   4.086  0.3788  0.5005 -0.6255
 3209TIP3    H131042   4.747   0.400   4.138 -0.3453  0.6910 -1.4155
 3209TIP3    H231043   4.761   0.250   4.131 -1.5255  0.5857 -1.5061
 3210TIP3   OH231044   2.499   2.682   2.145 -0.1413  0.3366 -0.5220
 3210TIP3    H131045   2.505   2.718   2.056 -0.3231  0.2571 -0.5663
 3210TIP3    H231046   2.590   2.683   2.177 -0.0414  0.1463 -0.7975
 3211TIP3   OH231047   5.188   5.128  14.696 -0.4654  0.5512 -0.0672
 3211TIP3    H131048   5.204   5.155  14.606  0.2958 -0.3662 -0.2140
 3211TIP3    H231049   5.214   5.204  14.749 -0.6362  0.9845 -0.5984
 3212TIP3   OH231050   4.495   6.243  16.210 -0.1517 -0.2136  0.0239
 3212TIP3    H131051   4.582   6.273  16.237 -1.0586  2.0169  0.5935
 3212TIP3    H231052   4.504   6.222  16.117  0.7897  0.9091 -0.1518
 3213TIP3   OH231053   6.085   1.032   3.722 -0.5993  0.2257  0.3368
 3213TIP3    H131054   6.021   0.961   3.730 -2.6362  2.0618  1.1882
 3213TIP3    H231055   6.093   1.067   3.811 -0.5822  1.8139 -0.2625
 3214TIP3   OH231056   6.740   6.712  12.178 -0.1510 -0.2102  0.2291
 3214TIP3    H131057   6.746   6.636  12.121 -0.2559 -1.4402  1.8193
 3214TIP3    H231058   6.820   6.709  12.231 -1.2940 -0.6296  1.9820
 3215TIP3   OH231059   0.012   3.807   1.100  0.2222 -0.0451 -0.2399
 3215TIP3    H131060  -0.013   3.898   1.084  1.3134  0.3769  0.3850
 3215TIP3    H231061  -0.037   3.757   1.035  0.4534  1.1064 -1.3257
 3216TIP3   OH231062   1.828   0.100  13.773  0.2677  0.2644  0.4884
 3216TIP3    H131063   1.826   0.099  13.869  0.8924  0.5129  0.5048
 3216TIP3    H231064   1.921   0.101  13.751  0.1266 -0.3067 -0.1305
 3217TIP3   OH231065   5.735   5.651  12.398 -0.0362 -0.2256  0.4823
 3217TIP3    H131066   5.680   5.696  12.462  0.5306  0.8188  0.2382
 3217TIP3    H231067   5.692   5.668  12.314  0.6690  0.6334  0.2861
 3218TIP3   OH231068   2.208   1.990  11.628 -0.3230  0.1588  0.4822
 3218TIP3    H131069   2.231   1.983  11.536 -0.2969 -0.2120  0.5145
 3218TIP3    H231070   2.280   1.945  11.674  1.6182  3.5893  0.9456
 3219TIP3   OH231071   3.778   0.571   3.099 -0.3698  0.0727 -0.1998
 3219TIP3    H131072   3.847   0.511   3.070 -1.3402 -0.6746 -1.0088
 3219TIP3    H231073   3.804   0.596   3.187 -0.3792 -2.2416  0.5124
 3220TIP3   OH231074   0.373   1.141   5.672  0.1383 -0.1987 -0.4371
 3220TIP3    H131075   0.373   1.071   5.607 -1.1961 -0.4791 -0.1471
 3220TIP3    H231076   0.300   1.197   5.647  1.3175  1.2295 -0.7949
 3221TIP3   OH231077   1.845   6.416  10.593 -0.6517  0.2612  0.1282
 3221TIP3    H131078   1.909   6.387  10.658 -0.9468 -1.0951 -0.1666
 3221TIP3    H231079   1.882   6.388  10.509 -1.6193 -0.5389 -0.0449
 3222TIP3   OH231080   4.273   3.914  13.739 -0.0031  0.3014  0.4475
 3222TIP3    H131081   4.267   3.828  13.697 -0.1632  0.7151 -0.4010
 3222TIP3    H231082   4.358   3.948  13.709  0.5114  0.0309  1.5812
 3223TIP3   OH231083   0.109   5.570  12.187 -0.0108  0.2145 -0.0087
 3223TIP3    H131084   0.045   5.607  12.249 -0.0353 -0.7134  0.5224
 3223TIP3    H231085   0.056   5.515  12.128 -0.0310  1.3104 -1.0474
 3224TIP3   OH231086   0.965   4.012   6.638 -0.6306  0.1147  0.5618
 3224TIP3    H131087   0.954   3.930   6.686 -1.5630  0.4264  0.8892
 3224TIP3    H231088   1.014   4.069   6.698  1.3511 -0.6974 -0.2429
 3225TIP3   OH231089   5.441   5.538   1.514  0.0105 -0.4298 -1.0242
 3225TIP3    H131090   5.519   5.486   1.496  0.4897 -0.4129  0.9999
 3225TIP3    H231091   5.420   5.520   1.605 -2.4012 -0.4953 -1.5631
 3226TIP3   OH231092   2.749   6.010   0.804  0.6896  0.0815 -1.0194
 3226TIP3    H131093   2.706   6.042   0.724  1.7146  2.5185 -0.6385
 3226TIP3    H231094   2.822   5.957   0.772 -0.2162 -0.7830 -1.6784
 3227TIP3   OH231095   0.289   6.418  17.221  0.4857  0.0176  0.4414
 3227TIP3    H131096   0.253   6.330  17.233 -0.8202  0.4459 -0.3033
 3227TIP3    H231097   0.307   6.423  17.127 -1.2963  1.2476  0.1439
 3228TIP3   OH231098   6.618   3.243  15.622 -1.0294 -0.0899 -0.4184
 3228TIP3    H131099   6.609   3.314  15.685  0.1153 -1.1379  0.9410
 3228TIP3    H231100   6.531   3.236  15.582 -0.7303  3.2206 -1.8591
 3229TIP3   OH231101   5.841   6.597  14.591 -0.4190  0.3262  0.6137
 3229TIP3    H131102   5.777   6.662  14.562 -0.5599 -0.2443 -0.3704
 3229TIP3    H231103   5.795   6.544  14.656 -0.6300  0.5482  0.6433
 3230TIP3   OH231104   1.387   1.105   0.517 -0.2239 -0.5541  0.0241
 3230TIP3    H131105   1.410   1.111   0.609 -0.8563 -0.0157  0.1485
 3230TIP3    H231106   1.467   1.076   0.474  0.5537  0.8239  0.5123
 3231TIP3   OH231107   4.678   5.094   5.483 -1.0111 -0.1991 -0.2942
 3231TIP3    H131108   4.623   5.068   5.556 -0.9429 -0.7538 -0.4402
 3231TIP3    H231109   4.620   5.095   5.407 -0.7573 -1.1077 -0.5099
 3232TIP3   OH231110   0.070   0.438  17.224  0.1576 -0.0379  0.4496
 3232TIP3    H131111   0.071   0.463  17.316 -1.9206  0.4187  0.3811
 3232TIP3    H231112   0.003   0.494  17.185  1.7573  0.5138 -1.5751
 3233TIP3   OH231113   5.816   4.889  12.196 -0.6966 -0.1881  0.2186
 3233TIP3    H131114   5.832   4.828  12.268  0.4448  0.4940  0.5748
 3233TIP3    H231115   5.807   4.974  12.239 -3.0338 -0.1890 -0.2033
 3234TIP3   OH231116   1.585   4.249   1.694 -0.5546  0.4428  0.0195
 3234TIP3    H131117   1.530   4.297   1.632  0.1563  1.5294  0.2229
 3234TIP3    H231118   1.619   4.316   1.754  0.9159 -0.2240 -0.0423
 3235TIP3   OH231119   0.396   2.474   4.359 -0.3279 -0.1874 -0.2648
 3235TIP3    H131120   0.451   2.417   4.305  0.1195 -0.7725  0.7763
 3235TIP3    H231121   0.393   2.429   4.444 -0.1326  1.2470  0.5107
 3236TIP3   OH231122   1.098   2.864  14.063  0.4841  0.1180  0.1637
 3236TIP3    H131123   1.012   2.847  14.103  0.3835  1.8433  0.7129
 3236TIP3    H231124   1.077   2.893  13.974  0.6342 -2.0366 -0.6031
 3237TIP3   OH231125   6.132   5.667   2.804  0.6483 -0.1270 -0.0426
 3237TIP3    H131126   6.123   5.623   2.889 -0.0376  1.0608  0.5151
 3237TIP3    H231127   6.057   5.726   2.800  0.4437 -0.4775 -1.6720
 3238TIP3   OH231128   3.569   4.876  11.540 -0.3233 -0.1459 -0.3622
 3238TIP3    H131129   3.540   4.875  11.449 -1.3262 -2.7226 -0.0643
 3238TIP3    H231130   3.490   4.888  11.591  0.0371 -0.1676  0.2092
 3239TIP3   OH231131   4.026   5.723   0.695 -0.3127 -0.4197  0.3658
 3239TIP3    H131132   4.083   5.646   0.687 -0.4357 -0.2286 -3.0922
 3239TIP3    H231133   3.982   5.729   0.610 -0.9239  2.9868  0.8526
 3240TIP3   OH231134   5.624   4.499  11.647  0.0882 -0.4391  0.1792
 3240TIP3    H131135   5.536   4.501  11.684  0.2455  0.8019  0.5131
 3240TIP3    H231136   5.611   4.518  11.554 -0.1550 -2.0070 -0.1205
 3241TIP3   OH231137   5.036   2.753   2.992 -0.0889 -0.3053 -0.0511
 3241TIP3    H131138   4.992   2.679   2.951 -2.0658  0.0143  1.4132
 3241TIP3    H231139   5.015   2.745   3.085 -0.2875  2.0523  0.1465
 3242TIP3   OH231140   1.422   5.883   2.871 -0.2250  0.2905 -0.2841
 3242TIP3    H131141   1.370   5.810   2.837  2.2404 -1.2302 -0.9083
 3242TIP3    H231142   1.433   5.863   2.964 -2.0686  1.4603  0.2182
 3243TIP3   OH231143   4.957   2.024  12.506  0.0492  0.7050 -0.5892
 3243TIP3    H131144   4.888   2.055  12.448 -2.1105 -0.6409  1.1598
 3243TIP3    H231145   4.962   1.930  12.489  0.5638  0.5826  0.1833
 3244TIP3   OH231146   2.564   2.198  13.595  0.1586  0.1164 -0.3519
 3244TIP3    H131147   2.485   2.152  13.624  0.5241 -0.0639  0.3465
 3244TIP3    H231148   2.561   2.191  13.499 -0.5959 -0.0157 -0.3213
 3245TIP3   OH231149   0.273   0.127  16.884 -0.2412  0.1130 -0.4758
 3245TIP3    H131150   0.193   0.180  16.889 -0.5471 -0.3789 -0.0450
 3245TIP3    H231151   0.258   0.067  16.811  0.0671  0.5604 -0.9087
 3246TIP3   OH231152   3.040   2.338   4.278 -0.2598  0.2455  0.2368
 3246TIP3    H131153   3.017   2.393   4.204  0.8196  0.6172  0.1726
 3246TIP3    H231154   3.121   2.376   4.313 -1.9038  1.4200  2.9564
 3247TIP3   OH231155   2.431   2.419   1.998  0.2150 -0.0544  0.6515
 3247TIP3    H131156   2.436   2.512   2.022  1.5604 -0.1313  0.6969
 3247TIP3    H231157   2.509   2.380   2.037  0.2339 -0.9891 -0.2954
 3248TIP3   OH231158   3.446   1.205   3.925 -0.0712  0.2329 -0.5397
 3248TIP3    H131159   3.464   1.152   3.848  1.7868  0.1450 -0.0727
 3248TIP3    H231160   3.485   1.156   3.997 -2.3847 -0.0241  0.5732
 3249TIP3   OH231161   3.511   4.574   2.551 -0.3642  0.4324 -0.2043
 3249TIP3    H131162   3.474   4.541   2.469  1.4431 -1.3433 -0.3387
 3249TIP3    H231163   3.553   4.498   2.591 -0.7950  1.3828  2.1489
 3250TIP3   OH231164   5.210   1.593   5.275 -0.2198 -0.6141  0.0262
 3250TIP3    H131165   5.146   1.653   5.235  1.3956  0.1019 -1.5739
 3250TIP3    H231166   5.282   1.589   5.212  0.7528 -2.4259  1.1950
 3251TIP3   OH231167   5.014   2.926   4.405 -0.7135 -0.1380 -0.6346
 3251TIP3    H131168   5.077   2.868   4.447 -1.4290 -0.9919 -0.7302
 3251TIP3    H231169   5.045   2.935   4.315 -1.4003 -1.5521 -1.0245
 3252TIP3   OH231170   2.697   1.896   4.980  0.7546 -0.2160  0.2977
 3252TIP3    H131171   2.704   1.824   4.917  0.2114 -0.1992  0.2204
 3252TIP3    H231172   2.651   1.858   5.055 -0.5498  0.3477 -0.2002
 3253TIP3   OH231173   3.990   6.280   6.540  0.1727  0.0875 -0.6481
 3253TIP3    H131174   3.923   6.277   6.608  0.2793  0.2934 -0.5330
 3253TIP3    H231175   4.072   6.287   6.588  0.4962 -2.6838 -0.6937
 3254TIP3   OH231176   2.136   5.688   2.204  0.1997 -0.2056  0.7857
 3254TIP3    H131177   2.192   5.732   2.268  0.3002 -1.2886  1.4676
 3254TIP3    H231178   2.123   5.600   2.241  1.2952 -1.2731 -1.3014
 3255TIP3   OH231179   5.590   1.669  11.211  0.4931  0.2953 -0.5679
 3255TIP3    H131180   5.511   1.672  11.157 -0.0209  2.3146  0.2519
 3255TIP3    H231181   5.592   1.580  11.246 -0.3007 -0.3959 -2.2196
 3256TIP3   OH231182   1.035   6.059   5.315 -0.1118 -0.3154  0.8193
 3256TIP3    H131183   1.067   6.021   5.397  0.4740 -0.1193  0.6768
 3256TIP3    H231184   1.113   6.088   5.269 -0.5588  1.0461  0.9048
 3257TIP3   OH231185   2.309   6.341  13.451 -0.1577 -1.1081  0.3498
 3257TIP3    H131186   2.372   6.303  13.389  0.9949  0.8733  0.2680
 3257TIP3    H231187   2.333   6.302  13.535  0.4788 -1.1896  0.1348
 3258TIP3   OH231188   6.769   6.704  16.207  0.0614  0.2220  0.2627
 3258TIP3    H131189   6.734   6.741  16.125 -0.7378 -0.1651  0.4174
 3258TIP3    H231190   6.844   6.759  16.228  0.9798 -0.3907 -1.3494
 3259TIP3   OH231191   3.081   6.335  14.265 -0.9506  0.6255 -0.1512
 3259TIP3    H131192   3.138   6.403  14.230 -1.4571  1.2114  0.1668
 3259TIP3    H231193   3.001   6.341  14.212 -0.3819 -0.8147 -1.2329
 3260TIP3   OH231194   5.761   3.245  11.989  0.0081 -0.1556 -0.5020
 3260TIP3    H131195   5.738   3.312  12.053 -1.0394 -1.1557  0.1949
 3260TIP3    H231196   5.850   3.268  11.960 -0.0053  1.0212  0.3702
 3261TIP3   OH231197   1.780   5.969  12.184  0.1394  0.1745 -0.2175
 3261TIP3    H131198   1.747   5.940  12.269 -0.9351  0.5052 -0.5236
 3261TIP3    H231199   1.713   6.029  12.151  0.5146 -0.0132 -1.3299
 3262TIP3   OH231200   0.916   4.222   1.562  0.1348 -0.0503 -0.5549
 3262TIP3    H131201   0.827   4.254   1.577  0.1785 -0.5731  0.9230
 3262TIP3    H231202   0.951   4.278   1.493 -1.0280  0.7478 -0.5053
 3263TIP3   OH231203   2.961   5.533  12.461 -0.4798  0.4553  0.3815
 3263TIP3    H131204   3.047   5.524  12.421 -0.2572 -0.7638  1.1248
 3263TIP3    H231205   2.901   5.546  12.387  0.2637  0.7922 -0.1692
 3264TIP3   OH231206   0.543   3.713  16.361  0.1381 -0.4846 -0.6946
 3264TIP3    H131207   0.594   3.790  16.385  0.1610 -0.9948  0.9152
 3264TIP3    H231208   0.462   3.748  16.323 -0.4119  0.3621  1.2046
 3265TIP3   OH231209   6.037   0.960  13.566 -0.2324 -0.0618  0.7377
 3265TIP3    H131210   6.111   1.007  13.605 -0.0389  0.7795 -0.5901
 3265TIP3    H231211   6.077   0.909  13.495 -0.9914  0.9351 -0.4334
 3266TIP3   OH231212   4.660   4.265   3.660  0.2577 -0.1847 -0.4006
 3266TIP3    H131213   4.613   4.335   3.705 -0.9594 -0.8737 -0.5905
 3266TIP3    H231214   4.720   4.230   3.726  1.6872  1.7604 -0.6226
 3267TIP3   OH231215   4.903   1.658  16.700 -0.0921  0.9453 -0.1361
 3267TIP3    H131216   4.976   1.605  16.670 -0.0571  1.2282 -0.5545
 3267TIP3    H231217   4.886   1.719  16.628 -1.1330  0.4743 -0.3085
 3268TIP3   OH231218   0.662   3.576   4.155 -0.0984  0.3797 -0.1684
 3268TIP3    H131219   0.614   3.629   4.218 -0.5218 -1.8837  1.4826
 3268TIP3    H231220   0.595   3.518   4.117  1.1870 -2.6063  1.9515
 3269TIP3   OH231221   0.376   3.577  15.703 -0.3238  0.2829  0.4088
 3269TIP3    H131222   0.453   3.601  15.755  0.3026 -0.6875 -0.0477
 3269TIP3    H231223   0.411   3.558  15.616 -1.0229 -0.5726  0.3024
 3270TIP3   OH231224   3.015   4.207  10.466 -0.0359 -0.1954 -0.5605
 3270TIP3    H131225   2.964   4.143  10.516  1.2258  1.3981  2.8692
 3270TIP3    H231226   3.099   4.165  10.451  0.6849  0.4976  1.4272
 3271TIP3   OH231227   2.060   2.673   4.424 -0.1015  0.7301  0.0098
 3271TIP3    H131228   2.045   2.699   4.515 -0.6490  0.5503 -0.0329
 3271TIP3    H231229   1.973   2.659   4.388  0.1902 -2.2155  0.3099
 3272TIP3   OH231230   0.805   0.342  15.649  0.6786  0.1490 -0.8070
 3272TIP3    H131231   0.892   0.303  15.640  0.4047 -0.0868 -2.6060
 3272TIP3    H231232   0.819   0.416  15.708  1.6410 -1.2600  0.7755
 3273TIP3   OH231233   3.374   5.370   2.071 -0.3893 -0.1701 -0.2018
 3273TIP3    H131234   3.469   5.356   2.060 -0.5535 -1.4103 -0.1843
 3273TIP3    H231235   3.359   5.352   2.164 -0.7432 -0.6712 -0.3531
 3274TIP3   OH231236   3.083   0.142  11.984 -0.0782 -0.6432 -0.4224
 3274TIP3    H131237   3.089   0.055  12.024 -1.4740 -0.7101 -0.3317
 3274TIP3    H231238   3.000   0.141  11.937 -0.9268  1.1894  0.9523
 3275TIP3   OH231239   0.496   5.442  12.595 -0.0611  0.0499  0.1340
 3275TIP3    H131240   0.553   5.496  12.650  1.3385 -0.1156 -1.1457
 3275TIP3    H231241   0.539   5.357  12.590 -1.6662 -0.8567  1.1652
 3276TIP3   OH231242   4.059   6.676  13.669 -0.1677 -0.5888  0.0632
 3276TIP3    H131243   4.084   6.661  13.760 -0.6294 -1.0453  0.1201
 3276TIP3    H231244   4.000   6.751  13.672  1.9927  1.1701 -0.1995
 3277TIP3   OH231245   3.622   1.091  12.727  0.5494 -0.1700 -0.3580
 3277TIP3    H131246   3.712   1.116  12.747  0.4754  1.3779 -1.8055
 3277TIP3    H231247   3.607   1.125  12.638 -1.4318 -0.4464 -0.1526
 3278TIP3   OH231248   0.709   2.380   3.256 -0.1442 -0.5868  0.0655
 3278TIP3    H131249   0.652   2.325   3.309  1.4637 -0.5350  1.8785
 3278TIP3    H231250   0.785   2.397   3.311 -0.7893  3.8794 -0.2292
 3279TIP3   OH231251   5.099   2.365  15.302  0.3193 -0.0081  0.5860
 3279TIP3    H131252   5.011   2.329  15.295  0.1066  0.7430 -0.8183
 3279TIP3    H231253   5.142   2.311  15.368 -0.9293 -0.9063  0.6830
 3280TIP3   OH231254   3.556   2.098   0.594 -0.3514  0.4649  0.2148
 3280TIP3    H131255   3.641   2.055   0.583  0.1518  1.3518  0.5690
 3280TIP3    H231256   3.539   2.139   0.509 -0.2591  0.5831  0.2535
 3281TIP3   OH231257   5.236   0.691  15.069 -0.1174  0.0742 -0.2365
 3281TIP3    H131258   5.231   0.677  15.163  2.6340  0.5944  0.0261
 3281TIP3    H231259   5.171   0.758  15.051  0.3579  1.0368  1.5271
 3282TIP3   OH231260   5.469   2.727  12.335 -0.3887 -0.3408 -0.4367
 3282TIP3    H131261   5.499   2.670  12.263  0.9207  0.4930 -0.5641
 3282TIP3    H231262   5.398   2.778  12.297 -1.7212 -2.0340 -0.2630
 3283TIP3   OH231263   0.710   5.960  11.989  0.0681  0.1513 -0.1779
 3283TIP3    H131264   0.748   5.980  12.075 -2.6192 -0.9541  1.3329
 3283TIP3    H231265   0.735   5.869  11.973  1.6232  0.7309 -1.1926
 3284TIP3   OH231266   1.559   6.539  13.950  0.0952  0.4898  0.5793
 3284TIP3    H131267   1.537   6.628  13.924 -0.2926 -0.2715 -1.8639
 3284TIP3    H231268   1.475   6.494  13.956  0.4238 -0.3353 -0.7116
 3285TIP3   OH231269   3.462   0.237  16.188 -0.0795  0.0423  0.0892
 3285TIP3    H131270   3.457   0.328  16.160  0.9299 -0.2003 -0.9560
 3285TIP3    H231271   3.413   0.189  16.120 -0.9764 -0.1574  0.8661
 3286TIP3   OH231272   1.586   2.809  12.135  0.0504 -0.4690 -0.0636
 3286TIP3    H131273   1.616   2.725  12.170 -2.7340 -1.7205 -0.4968
 3286TIP3    H231274   1.508   2.830  12.187  0.0613  1.2540 -0.7260
 3287TIP3   OH231275   4.577   1.329   1.022  0.1732  0.1391  0.9117
 3287TIP3    H131276   4.575   1.420   1.053 -1.0944  0.2546  0.5017
 3287TIP3    H231277   4.506   1.286   1.069  0.0497 -0.3724  0.2598
 3288TIP3   OH231278   5.792   6.691  17.113 -0.1189 -0.2202 -0.2282
 3288TIP3    H131279   5.721   6.634  17.083  0.3946 -0.6779 -0.5927
 3288TIP3    H231280   5.770   6.777  17.078  0.1204 -0.6107 -1.3655
 3289TIP3   OH231281   6.103   5.498  13.844 -0.1261  0.3929 -0.0136
 3289TIP3    H131282   6.185   5.491  13.892  0.6301 -0.0833 -1.3764
 3289TIP3    H231283   6.052   5.422  13.872  0.3035  0.1304  0.0499
 3290TIP3   OH231284   2.652   6.272  16.691  0.1807 -0.2952  0.1268
 3290TIP3    H131285   2.639   6.261  16.597 -1.1235  1.4661  0.0678
 3290TIP3    H231286   2.726   6.331  16.698 -0.5845  0.6865  0.1447
 3291TIP3   OH231287   5.564   5.839  15.123  0.3598 -0.1527 -0.0681
 3291TIP3    H131288   5.569   5.788  15.204  0.1459 -0.4752 -0.2592
 3291TIP3    H231289   5.501   5.909  15.142  0.0707 -0.4151 -0.0601
 3292TIP3   OH231290   3.624   0.402  12.295 -0.1503  0.0451 -0.1774
 3292TIP3    H131291   3.601   0.450  12.215 -1.1391  0.1609  0.1763
 3292TIP3    H231292   3.633   0.311  12.267 -1.3126 -0.0431 -0.2652
 3293TIP3   OH231293   1.755   3.484   0.779  0.0007  0.6359 -0.3583
 3293TIP3    H131294   1.796   3.456   0.697 -0.4108  0.0368 -0.3588
 3293TIP3    H231295   1.663   3.494   0.756 -0.0297  0.9515 -0.0904
 3294TIP3   OH231296   0.269   0.890   4.572  0.2508  0.1185 -0.3915
 3294TIP3    H131297   0.277   0.967   4.627 -1.7940  0.3122 -0.3309
 3294TIP3    H231298   0.229   0.922   4.491 -1.6344 -1.0520  0.0626
 3295TIP3   OH231299   4.307   1.618   3.163  0.4806  0.2902  0.2117
 3295TIP3    H131300   4.221   1.585   3.138  0.6785 -0.1635  0.1340
 3295TIP3    H231301   4.368   1.567   3.110  0.9024 -0.5917  1.5259
 3296TIP3   OH231302   2.543   1.635  13.408  0.0729 -0.2829  0.4879
 3296TIP3    H131303   2.473   1.639  13.473 -1.9015  0.9848 -1.6340
 3296TIP3    H231304   2.599   1.563  13.437 -3.2773 -2.7457  1.1134
 3297TIP3   OH231305   4.755   2.700  13.048 -0.1016 -0.5606 -0.1401
 3297TIP3    H131306   4.765   2.789  13.014 -0.3918 -0.4304  0.1007
 3297TIP3    H231307   4.756   2.644  12.971  1.8853 -0.5151 -0.1589
 3298TIP3   OH231308   2.359   4.811  11.949 -0.3841 -0.7244  0.0565
 3298TIP3    H131309   2.427   4.810  11.882  0.1747  2.2155  0.5249
 3298TIP3    H231310   2.404   4.783  12.029  0.3456  1.3956  0.4041
 3299TIP3   OH231311   1.683   6.004   2.839  0.1260  0.0664  0.7530
 3299TIP3    H131312   1.618   5.936   2.852  0.1925  0.0036  0.7587
 3299TIP3    H231313   1.649   6.079   2.887 -1.5799  1.0919 -1.9405
 3300TIP3   OH231314   5.776   0.839   3.723 -0.1773 -0.2106 -0.4791
 3300TIP3    H131315   5.688   0.841   3.687  1.2134  2.8111 -4.0906
 3300TIP3    H231316   5.778   0.912   3.786  0.6785  2.1324 -3.1055
 3301TIP3   OH231317   6.475   1.784   5.862  0.5775  0.1926  0.1148
 3301TIP3    H131318   6.565   1.806   5.886  0.1871  0.1688  1.6792
 3301TIP3    H231319   6.426   1.788   5.945 -0.6859 -0.6505 -0.5618
 3302TIP3   OH231320   0.885   6.619   1.776  0.3291  0.4470  0.2921
 3302TIP3    H131321   0.826   6.592   1.846 -1.2294 -0.5203 -1.3665
 3302TIP3    H231322   0.860   6.709   1.757  0.5727  0.6195  0.7636
 3303TIP3   OH231323   1.732   5.955  12.494  0.4729  0.7888  0.3752
 3303TIP3    H131324   1.732   5.927  12.586  1.3210 -0.1235  0.1009
 3303TIP3    H231325   1.641   5.945  12.466  0.5789 -0.8270  0.5494
 3304TIP3   OH231326   1.400   5.590  11.645  0.0973  0.2338 -0.1501
 3304TIP3    H131327   1.372   5.558  11.732  1.3575  2.0182  0.9404
 3304TIP3    H231328   1.413   5.684  11.657  2.2631  0.1615 -1.7731
 3305TIP3   OH231329   5.372   2.029  14.636  0.8226  0.5831  0.6284
 3305TIP3    H131330   5.361   2.084  14.559  0.5107  1.4251  1.2570
 3305TIP3    H231331   5.438   1.964  14.611 -0.8110 -0.4878 -1.0488
 3306TIP3   OH231332   0.221   5.836   5.740 -0.4836  0.1145  0.1128
 3306TIP3    H131333   0.268   5.753   5.737  0.5649  0.7398 -1.2722
 3306TIP3    H231334   0.216   5.865   5.649 -0.8987  1.5398  0.5670
 3307TIP3   OH231335   0.568   3.120  11.612  0.3705 -0.3377 -0.1793
 3307TIP3    H131336   0.619   3.124  11.693  0.2618 -1.8178 -0.0180
 3307TIP3    H231337   0.603   3.190  11.558  0.4954  0.6232  1.1239
 3308TIP3   OH231338   6.745   1.593  16.537  0.0584 -0.2182  0.4203
 3308TIP3    H131339   6.778   1.562  16.621  1.0527 -1.3804 -0.3802
 3308TIP3    H231340   6.761   1.520  16.477  0.7755  1.1715 -1.1162
 3309TIP3   OH231341   3.192   0.525   3.291  0.1323  0.2590  0.0464
 3309TIP3    H131342   3.142   0.596   3.251 -0.1365  0.0855  0.0778
 3309TIP3    H231343   3.200   0.549   3.383 -0.4410 -0.0296  0.1712
 3310TIP3   OH231344   0.465   2.515   1.849 -0.0835  0.4157  0.3012
 3310TIP3    H131345   0.395   2.449   1.846  0.1971  0.1573 -0.8441
 3310TIP3    H231346   0.509   2.507   1.764  0.7187  1.2526  0.6300
 3311TIP3   OH231347   3.416   2.980  11.609 -0.3685 -0.6997 -0.4780
 3311TIP3    H131348   3.346   3.036  11.578 -0.6579 -1.3456 -0.9926
 3311TIP3    H231349   3.492   3.004  11.556 -0.1786  0.0469  0.1269
 3312TIP3   OH231350   0.716   3.746   1.670  0.9426  0.3047  1.0978
 3312TIP3    H131351   0.793   3.698   1.638 -0.4189  0.2969 -2.4191
 3312TIP3    H231352   0.735   3.838   1.651  0.3491  0.3611  0.7496
 3313TIP3   OH231353   1.815   2.872  16.907  0.1503  0.2238 -0.0763
 3313TIP3    H131354   1.884   2.813  16.876 -0.8081  0.2845 -2.4312
 3313TIP3    H231355   1.858   2.956  16.918  0.9312 -0.2675  0.6847
 3314TIP3   OH231356   2.757   6.493   5.914 -0.3845 -0.0601 -0.7310
 3314TIP3    H131357   2.679   6.512   5.966  0.1916 -0.5157  0.3132
 3314TIP3    H231358   2.828   6.487   5.979  0.3044 -0.8516 -1.5542
 3315TIP3   OH231359   6.505   6.255   4.341  0.3666  0.1005 -0.1402
 3315TIP3    H131360   6.598   6.246   4.320  0.2702 -3.5892  0.6063
 3315TIP3    H231361   6.498   6.220   4.430 -1.8305 -0.3967 -0.4871
 3316TIP3   OH231362   4.079   4.143  15.609  0.3053  0.4703  0.2468
 3316TIP3    H131363   4.053   4.097  15.689  1.3097  2.6779  1.8835
 3316TIP3    H231364   4.173   4.126  15.601  0.2277  0.3448 -0.4112
 3317TIP3   OH231365   5.402   3.144  11.253  0.0779 -0.1222 -0.4573
 3317TIP3    H131366   5.398   3.231  11.211  0.1790 -0.6007 -1.4837
 3317TIP3    H231367   5.390   3.083  11.181  0.9220 -0.9897  0.1239
 3318TIP3   OH231368   2.128   6.655   3.938  0.1790  0.1397  0.3145
 3318TIP3    H131369   2.070   6.631   4.011  1.6132 -0.6769  1.2097
 3318TIP3    H231370   2.128   6.578   3.881 -0.1768  0.4158 -0.0643
 3319TIP3   OH231371   0.309   2.268   0.926  0.0507 -0.2950  0.4917
 3319TIP3    H131372   0.402   2.249   0.917 -0.3567 -1.9788 -0.4005
 3319TIP3    H231373   0.295   2.278   1.020  0.8834 -1.4422  0.7506
 3320TIP3   OH231374   5.521   6.600  13.616  0.0323 -0.0093 -0.0066
 3320TIP3    H131375   5.444   6.592  13.671  0.1002 -2.5432 -0.2154
 3320TIP3    H231376   5.594   6.608  13.677 -0.1628 -0.1892  0.2492
 3321TIP3   OH231377   0.824   4.159   4.497 -0.0609  0.4546  0.4895
 3321TIP3    H131378   0.776   4.241   4.490  0.9911  1.1102  0.8376
 3321TIP3    H231379   0.912   4.180   4.467  0.7696 -0.0408  2.4946
 3322TIP3   OH231380   3.076   1.366   0.004 -0.0128  0.5178 -0.5822
 3322TIP3    H131381   3.043   1.406   0.085 -0.2443 -0.1145 -0.3584
 3322TIP3    H231382   3.136   1.297   0.034 -0.5735 -0.1319 -0.9226
 3323TIP3   OH231383   4.893   1.518   3.199  0.2208 -0.0064  0.2082
 3323TIP3    H131384   4.970   1.548   3.150 -0.3270  0.2693 -0.4944
 3323TIP3    H231385   4.929   1.469   3.273  1.0378 -2.3618 -1.6832
 3324TIP3   OH231386   2.588   1.437   5.326 -1.3968  0.6710 -0.3475
 3324TIP3    H131387   2.549   1.390   5.400  0.9092 -2.5928 -1.0733
 3324TIP3    H231388   2.625   1.517   5.364 -1.9985  0.0099  1.6647
 3325TIP3   OH231389   0.759   4.024  13.208 -0.0998  0.4064  0.2343
 3325TIP3    H131390   0.833   4.032  13.148 -0.4173  3.3685  0.1614
 3325TIP3    H231391   0.682   4.025  13.151 -0.2883  0.2467  0.4854
 3326TIP3   OH231392   5.645   5.008  16.559  0.5169 -0.8348  0.0387
 3326TIP3    H131393   5.734   4.974  16.570  2.2448  3.0965 -0.9159
 3326TIP3    H231394   5.650   5.065  16.482 -2.3761  0.8670  1.0206
 3327TIP3   OH231395   5.637   1.003  16.081  0.3555  0.1025 -0.7074
 3327TIP3    H131396   5.711   1.061  16.099  1.5221 -0.9400 -2.0901
 3327TIP3    H231397   5.572   1.059  16.039  1.1888  0.5626 -1.3877
 3328TIP3   OH231398   1.678   1.728  16.475  0.5053 -0.0892  0.0447
 3328TIP3    H131399   1.748   1.672  16.441 -0.7213 -1.1692 -0.7361
 3328TIP3    H231400   1.712   1.817  16.463  1.7542 -0.5927 -0.2978
 3329TIP3   OH231401   1.233   5.145  16.920  0.6521 -0.8834  0.5308
 3329TIP3    H131402   1.288   5.221  16.938 -1.8196  1.5125 -1.6305
 3329TIP3    H231403   1.290   5.084  16.874  2.5466 -0.1424  1.8373
 3330TIP3   OH231404   4.935   2.549  11.709 -0.5415 -0.2292  0.3924
 3330TIP3    H131405   5.015   2.507  11.742 -1.1225 -1.6225  0.0921
 3330TIP3    H231406   4.926   2.628  11.761  1.7386  0.6291 -0.4195
 3331TIP3   OH231407   6.532   5.544  15.731 -0.3485  0.2146  0.1872
 3331TIP3    H131408   6.451   5.503  15.759 -1.0389  1.7451  0.4699
 3331TIP3    H231409   6.588   5.471  15.704 -1.5269 -0.8984  0.7247
 3332TIP3   OH231410   5.571   5.322   5.324  0.0700 -0.2935 -0.0552
 3332TIP3    H131411   5.516   5.306   5.400 -1.9040 -1.7597 -1.7426
 3332TIP3    H231412   5.623   5.243   5.313  2.7663  1.1626  1.6565
 3333TIP3   OH231413   3.807   0.630  13.277  0.0746 -0.1083 -0.0228
 3333TIP3    H131414   3.833   0.585  13.357 -0.2802 -0.8220 -0.3083
 3333TIP3    H231415   3.764   0.563  13.224  0.4846  0.3048 -0.9000
 3334TIP3   OH231416   6.025   4.594   4.631 -0.0502 -0.5324 -0.1165
 3334TIP3    H131417   6.054   4.503   4.619 -0.9747 -0.9620  0.8144
 3334TIP3    H231418   5.939   4.586   4.673 -0.3441  0.7680 -0.4578
 3335TIP3   OH231419   4.844   3.828  13.772  0.3133  0.1014 -0.0816
 3335TIP3    H131420   4.902   3.855  13.701 -0.4127  2.5229  0.2132
 3335TIP3    H231421   4.825   3.736  13.754  0.0834  0.6867 -3.0328
 3336TIP3   OH231422   6.704   2.660   0.174 -0.3729 -0.0934 -0.0029
 3336TIP3    H131423   6.638   2.631   0.110  0.1298 -1.3508  0.0299
 3336TIP3    H231424   6.736   2.743   0.139 -1.9975  0.5593  0.0026
 3337TIP3   OH231425   1.726   0.053   3.110  0.0430  0.2105 -0.1227
 3337TIP3    H131426   1.638   0.074   3.078 -0.1442 -0.9575 -0.4086
 3337TIP3    H231427   1.716  -0.033   3.151  1.3133 -0.4531 -1.1999
 3338TIP3   OH231428   4.413   1.796  14.388 -0.3665 -0.8635  0.0903
 3338TIP3    H131429   4.404   1.872  14.331  0.2058 -2.4118 -2.1347
 3338TIP3    H231430   4.363   1.727  14.345 -2.8212 -1.1934  3.2495
 3339TIP3   OH231431   4.106   6.430   5.190  0.2210  0.0885  0.0326
 3339TIP3    H131432   4.098   6.363   5.121  0.7173  1.2282 -1.1529
 3339TIP3    H231433   4.200   6.444   5.198  0.2096 -0.5094  1.4347
 3340TIP3   OH231434   3.145   3.411   4.983  0.0317 -0.7692 -0.3267
 3340TIP3    H131435   3.221   3.432   4.928 -0.9657 -1.3386 -1.9739
 3340TIP3    H231436   3.150   3.472   5.056  1.0767  0.4173 -1.3680
 3341TIP3   OH231437   3.912   5.395  10.890 -0.4014  0.7117  0.0480
 3341TIP3    H131438   3.880   5.325  10.832 -0.4983  0.4746  0.3891
 3341TIP3    H231439   3.869   5.474  10.859 -0.1269  0.6587 -0.4814
 3342TIP3   OH231440   6.632   5.784  13.084 -0.6266  0.3365  0.3638
 3342TIP3    H131441   6.722   5.755  13.096 -0.7075 -0.1244 -0.1359
 3342TIP3    H231442   6.580   5.704  13.087 -0.9719  0.5493  0.1536
 3343TIP3   OH231443   5.527   6.014   4.126  0.3464  0.1112 -0.6871
 3343TIP3    H131444   5.596   5.965   4.081  0.1987 -0.6116 -0.1445
 3343TIP3    H231445   5.532   6.102   4.090  1.0183 -0.1511 -1.2412
 3344TIP3   OH231446   0.375   3.064  17.233  0.7150  0.3876 -0.3405
 3344TIP3    H131447   0.292   3.106  17.210  0.3096  0.3766  1.0166
 3344TIP3    H231448   0.359   2.970  17.225  0.9742  0.4242 -1.2914
 3345TIP3   OH231449   0.280   6.544   1.359 -0.2855 -0.3547  0.1969
 3345TIP3    H131450   0.321   6.630   1.351 -1.2274  0.2006  1.2535
 3345TIP3    H231451   0.323   6.491   1.292  0.6483  0.7996 -0.1353
 3346TIP3   OH231452   2.370   4.759   4.615 -0.0557  0.2119 -0.2920
 3346TIP3    H131453   2.390   4.735   4.706 -0.4353  1.4011  0.1105
 3346TIP3    H231454   2.401   4.684   4.563 -0.3955 -0.7375  0.8589
 3347TIP3   OH231455   2.184   0.654   1.450  0.6575  0.3162  0.1918
 3347TIP3    H131456   2.102   0.610   1.471 -0.5382  2.5185  0.3211
 3347TIP3    H231457   2.168   0.695   1.365  1.4484  1.1727  0.4497
 3348TIP3   OH231458   3.293   4.504   5.450  0.1318  0.0350 -0.5907
 3348TIP3    H131459   3.215   4.526   5.400 -0.5759  0.0750  0.5154
 3348TIP3    H231460   3.293   4.409   5.455 -1.2596  0.1127  1.5818
 3349TIP3   OH231461   4.521   1.557   6.107 -0.0190 -0.6981  0.2354
 3349TIP3    H131462   4.535   1.479   6.053  1.4244 -0.4140  0.1823
 3349TIP3    H231463   4.569   1.540   6.188 -1.2743 -0.6555  1.0053
 3350TIP3   OH231464   6.146   5.107  13.783  0.3432  0.2937  0.5213
 3350TIP3    H131465   6.233   5.142  13.804  1.3328 -1.4313 -0.6601
 3350TIP3    H231466   6.122   5.057  13.861  0.6502  0.3138  0.6318
 3351TIP3   OH231467   3.705   3.650  12.960 -0.9712  0.1116  0.4401
 3351TIP3    H131468   3.711   3.673  12.868  0.1337  0.3386  0.5572
 3351TIP3    H231469   3.736   3.727  13.007 -0.0353 -0.5466  0.9331
 3352TIP3   OH231470   5.285   5.958  15.047 -0.5576 -0.9367 -0.0851
 3352TIP3    H131471   5.191   5.976  15.048 -0.7365 -1.8977  1.1228
 3352TIP3    H231472   5.295   5.885  14.986 -0.4286 -0.0126 -1.1879
 3353TIP3   OH231473   5.551   5.980  15.495 -0.2966  0.1246 -0.0807
 3353TIP3    H131474   5.590   5.918  15.556  0.6483 -1.0730 -1.8713
 3353TIP3    H231475   5.599   6.062  15.509  0.2463 -0.2799  0.4140
 3354TIP3   OH231476   4.601   3.513   0.382 -0.0937  0.2672 -0.4789
 3354TIP3    H131477   4.547   3.472   0.450 -0.0423  0.0087 -0.5933
 3354TIP3    H231478   4.581   3.607   0.388 -1.2657  0.0624 -1.1571
 3355TIP3   OH231479   1.751   1.092   0.628 -0.1279  0.1006 -0.1398
 3355TIP3    H131480   1.821   1.059   0.684  0.5924 -0.0378 -1.1118
 3355TIP3    H231481   1.775   1.183   0.612  1.1011 -0.5995 -2.4130
 3356TIP3   OH231482   0.237   6.565  15.325 -0.2356 -0.7185 -1.3468
 3356TIP3    H131483   0.282   6.629  15.270  0.8136 -2.7546 -2.9436
 3356TIP3    H231484   0.302   6.541  15.392  0.1628 -1.6957 -2.0641
 3357TIP3   OH231485   5.876   3.201  14.459 -0.2438  0.0085 -0.2383
 3357TIP3    H131486   5.786   3.208  14.426 -0.0415 -0.5135 -0.9060
 3357TIP3    H231487   5.887   3.278  14.514 -2.4538 -1.8903  3.1000
 3358TIP3   OH231488   4.415   2.765  15.008  0.8302  0.0178  0.0290
 3358TIP3    H131489   4.388   2.807  15.089  0.4358 -1.8270  0.8909
 3358TIP3    H231490   4.350   2.793  14.943 -0.2240 -0.3468  0.9165
 3359TIP3   OH231491   3.883   6.648   4.201  0.2862 -0.4619  0.0308
 3359TIP3    H131492   3.932   6.695   4.133 -1.2186  1.6300  0.3460
 3359TIP3    H231493   3.924   6.562   4.203  1.0060 -0.2725 -2.8606
 3360TIP3   OH231494   0.199   1.518  12.938 -0.7524  0.1000  0.1821
 3360TIP3    H131495   0.135   1.501  12.869 -1.3557 -0.6534  0.9298
 3360TIP3    H231496   0.230   1.431  12.965  0.9355  0.4601 -0.4902
 3361TIP3   OH231497   2.907   3.119   5.770  0.6954 -1.0177  0.1477
 3361TIP3    H131498   2.812   3.116   5.769  0.6829 -1.2142  1.4248
 3361TIP3    H231499   2.929   3.212   5.780  0.6566 -0.8845 -0.9340
 3362TIP3   OH231500   6.482   5.467  11.754 -0.1044  0.1803 -0.0569
 3362TIP3    H131501   6.402   5.516  11.777 -0.1120  0.2319 -0.1906
 3362TIP3    H231502   6.519   5.440  11.838 -0.7937 -0.6910 -0.0220
 3363TIP3   OH231503   6.174   4.685  14.772  0.2429  0.2978  0.0621
 3363TIP3    H131504   6.190   4.601  14.816 -0.0554 -0.0530 -0.4980
 3363TIP3    H231505   6.253   4.699  14.720 -1.1416 -1.3804 -2.6192
 3364TIP3   OH231506   4.354   4.120  16.618  0.0228 -0.2893 -0.2262
 3364TIP3    H131507   4.273   4.151  16.657  0.3049  0.7692 -0.4805
 3364TIP3    H231508   4.326   4.075  16.538 -0.2158  1.2951 -1.0545
 3365TIP3   OH231509   5.286   3.841  15.868  0.1843  0.2110  0.5073
 3365TIP3    H131510   5.372   3.831  15.827 -1.0567 -0.6842 -1.9564
 3365TIP3    H231511   5.293   3.794  15.950  1.8948 -0.2721  0.1089
 3366TIP3   OH231512   2.135   1.612   1.812 -0.3203  0.1113  0.5494
 3366TIP3    H131513   2.166   1.644   1.896 -0.9804 -0.1392  0.8937
 3366TIP3    H231514   2.209   1.625   1.752 -0.3407  1.5835  0.8405
 3367TIP3   OH231515   1.699   0.472  11.773 -0.0077 -0.3373  0.0339
 3367TIP3    H131516   1.685   0.562  11.803 -0.6403 -0.5880  0.4998
 3367TIP3    H231517   1.767   0.480  11.706  1.9502  0.1245  2.0048
 3368TIP3   OH231518   0.171   1.684  15.882  0.0458 -0.2450 -0.4224
 3368TIP3    H131519   0.214   1.768  15.900 -2.4562  0.9476  0.3347
 3368TIP3    H231520   0.086   1.691  15.926 -1.3412 -2.0807 -2.6687
 3369TIP3   OH231521   1.481   6.561  16.638  0.0970 -0.0546  0.4341
 3369TIP3    H131522   1.501   6.567  16.545  1.5570 -0.4012  0.7104
 3369TIP3    H231523   1.391   6.528  16.642 -0.4768  1.2749 -0.8559
 3370TIP3   OH231524   3.829   1.749  15.352 -0.0339  0.1788 -0.4939
 3370TIP3    H131525   3.771   1.801  15.295  0.5821  1.8463  0.3696
 3370TIP3    H231526   3.894   1.713  15.292 -1.4691 -1.0622 -1.3597
 3371TIP3   OH231527   6.525   2.146   2.889  0.3704 -0.3151 -0.1737
 3371TIP3    H131528   6.450   2.123   2.945  0.2254  0.0701 -0.2063
 3371TIP3    H231529   6.518   2.240   2.878  0.1170 -0.4545 -1.2483
 3372TIP3   OH231530   0.580   2.499  17.041  0.1179  0.2332  0.0342
 3372TIP3    H131531   0.572   2.434  17.110  0.1664 -0.0776 -0.2528
 3372TIP3    H231532   0.610   2.578  17.086  0.4973 -0.0695  0.3186
 3373TIP3   OH231533   6.469   5.511  14.729 -0.3837  0.8893  0.0233
 3373TIP3    H131534   6.430   5.481  14.811 -0.5382 -1.1506 -0.7791
 3373TIP3    H231535   6.539   5.570  14.756 -0.0464 -0.2212  1.6405
 3374TIP3   OH231536   0.339   5.640  13.829  0.0688 -0.5127  0.4074
 3374TIP3    H131537   0.363   5.721  13.873  0.1349 -0.9041  1.1033
 3374TIP3    H231538   0.410   5.579  13.849  0.0507 -0.7228 -0.1619
 3375TIP3   OH231539   3.506   6.095   2.097  0.4817  0.1220 -0.1375
 3375TIP3    H131540   3.501   6.007   2.134 -0.0283  0.1059 -0.2404
 3375TIP3    H231541   3.450   6.148   2.154  0.0206  0.1775 -0.6340
 3376TIP3   OH231542   5.800   6.442   3.058 -0.4640  0.7930 -0.0945
 3376TIP3    H131543   5.811   6.480   2.971 -2.5407  0.9110 -0.3396
 3376TIP3    H231544   5.853   6.362   3.056  0.0541  1.1539 -1.2252
 3377TIP3   OH231545   4.358   3.870   2.196 -0.0195  0.4234  0.2686
 3377TIP3    H131546   4.392   3.788   2.233 -0.6334  0.5615  1.1638
 3377TIP3    H231547   4.263   3.858   2.197 -0.0433  0.4044 -1.3387
 3378TIP3   OH231548   0.405   4.572   3.026 -0.8285  0.1771  0.1869
 3378TIP3    H131549   0.371   4.512   3.092 -2.0180  1.0953  0.4406
 3378TIP3    H231550   0.385   4.530   2.942 -2.6182  0.6826  0.3338
 3379TIP3   OH231551   2.023   0.275  14.715 -0.0826  0.6215 -0.4364
 3379TIP3    H131552   1.942   0.237  14.750  0.5584  0.1904  0.5851
 3379TIP3    H231553   2.007   0.282  14.621 -1.3512  0.6364 -0.2316
 3380TIP3   OH231554   6.618   4.164   2.325  0.5913 -0.2064  0.7841
 3380TIP3    H131555   6.684   4.124   2.381  1.4621  2.0458  1.4216
 3380TIP3    H231556   6.669   4.215   2.261 -0.5081  1.8679  1.5183
 3381TIP3   OH231557   3.005   1.135  12.633  0.4365  0.4907  0.4724
 3381TIP3    H131558   2.925   1.173  12.599  0.0786 -1.1083 -0.5546
 3381TIP3    H231559   3.067   1.142  12.560  1.3413  2.0255  1.3733
 3382TIP3   OH231560   5.286   3.695  12.870 -0.2047 -0.1701 -0.0254
 3382TIP3    H131561   5.336   3.613  12.868  2.8020  1.5794 -3.0797
 3382TIP3    H231562   5.352   3.763  12.887 -1.9826  1.9739 -1.3756
 3383TIP3   OH231563   2.587   4.914  10.609  0.7150  0.4706 -0.1585
 3383TIP3    H131564   2.521   4.845  10.612  0.8784  0.3026 -0.4780
 3383TIP3    H231565   2.662   4.875  10.565  1.0256  0.6669  0.1876
 3384TIP3   OH231566   4.307   3.526   6.571  0.4939  0.4899  0.0800
 3384TIP3    H131567   4.284   3.615   6.598 -1.3747 -0.4334  1.6768
 3384TIP3    H231568   4.281   3.523   6.479 -1.9029  0.8459  0.6858
 3385TIP3   OH231569   1.038   0.381   2.311  0.0436 -0.8509  0.0897
 3385TIP3    H131570   1.130   0.357   2.316  0.6888  1.4348 -0.2495
 3385TIP3    H231571   1.010   0.392   2.402  0.1354 -1.4368  0.1867
 3386TIP3   OH231572   4.136   0.010  16.908  0.4424  0.2290 -0.3395
 3386TIP3    H131573   4.148   0.105  16.901 -1.3212  0.5154  0.3498
 3386TIP3    H231574   4.221  -0.021  16.941  0.3485  1.8451  1.5668
 3387TIP3   OH231575   0.587   2.352   1.415 -0.6532  0.7821 -0.1207
 3387TIP3    H131576   0.614   2.374   1.504 -0.2174  0.7275 -0.2388
 3387TIP3    H231577   0.621   2.264   1.400  0.7604  1.4576 -0.9508
 3388TIP3   OH231578   1.756   6.361   1.499  0.2090 -0.4635  0.4502
 3388TIP3    H131579   1.779   6.407   1.581 -1.0659 -0.5727  0.8758
 3388TIP3    H231580   1.712   6.428   1.446 -1.8331 -1.2277  1.1508
 3389TIP3   OH231581   1.278   4.159   2.386 -0.6210 -0.8102  0.4748
 3389TIP3    H131582   1.269   4.068   2.416  0.7109 -0.8671  0.7100
 3389TIP3    H231583   1.372   4.171   2.371 -0.4415  1.2862  2.8664
 3390TIP3   OH231584   1.347   2.430  13.436 -0.3914 -0.1543  0.1048
 3390TIP3    H131585   1.389   2.380  13.505  0.8093 -0.3232 -0.7401
 3390TIP3    H231586   1.320   2.512  13.479  0.7233 -0.0721  0.6795
 3391TIP3   OH231587   1.703   2.774  12.895  0.0809 -0.3485  0.1490
 3391TIP3    H131588   1.627   2.758  12.951  0.0594 -1.9976 -0.3177
 3391TIP3    H231589   1.668   2.784  12.807  0.4893 -2.5926 -0.3037
 3392TIP3   OH231590   5.844   0.155  12.253 -0.2410  0.1642 -0.2150
 3392TIP3    H131591   5.839   0.207  12.333 -2.1374  2.4867 -1.7514
 3392TIP3    H231592   5.809   0.070  12.276  1.4701  0.0124  1.9859
 3393TIP3   OH231593   6.416   4.833  14.698  0.1529  0.2128 -0.5540
 3393TIP3    H131594   6.507   4.850  14.720  0.3157 -0.9640 -0.3171
 3393TIP3    H231595   6.418   4.756  14.641 -0.4995  1.5671 -2.4616
 3394TIP3   OH231596   6.198   4.443  14.015 -0.0489 -0.3463  0.5243
 3394TIP3    H131597   6.286   4.464  14.047 -0.1726 -1.4062  1.5872
 3394TIP3    H231598   6.192   4.348  14.022 -0.6929 -0.4319 -1.0939
 3395TIP3   OH231599   6.254   3.896   2.023 -0.6782 -0.1255  0.1340
 3395TIP3    H131600   6.237   3.900   2.117 -0.0139  1.1536  0.2151
 3395TIP3    H231601   6.319   3.965   2.007 -1.7006  0.5081 -1.4581
 3396TIP3   OH231602   0.025   0.335  11.074 -0.6291 -0.4698 -0.3249
 3396TIP3    H131603   0.098   0.278  11.097 -1.5163 -1.4363  0.1731
 3396TIP3    H231604  -0.033   0.279  11.021 -1.8785 -0.2735  0.8051
 3397TIP3   OH231605   1.091   1.233   2.774 -0.1510  0.3380  0.4581
 3397TIP3    H131606   1.002   1.267   2.772 -0.3804 -0.3682 -3.7200
 3397TIP3    H231607   1.132   1.280   2.848 -3.4578  1.8378  1.4382
 3398TIP3   OH231608   4.605   4.788   4.162 -0.3699 -0.1425  0.3336
 3398TIP3    H131609   4.543   4.819   4.228  0.4290  0.3453  0.8525
 3398TIP3    H231610   4.653   4.718   4.205 -1.3113 -1.2858 -0.4321
 3399TIP3   OH231611   5.174   4.948   0.807  0.5945  0.3017  0.0223
 3399TIP3    H131612   5.202   4.968   0.718 -0.8495 -0.6876 -0.6798
 3399TIP3    H231613   5.231   5.000   0.863  1.3882  1.0756 -1.4880
 3400TIP3   OH231614   3.051   4.166  13.575 -0.2050  0.3699  0.3504
 3400TIP3    H131615   3.141   4.194  13.556  0.5729 -1.3797  1.2852
 3400TIP3    H231616   3.031   4.101  13.507 -0.2209 -0.2721  0.9509
 3401TIP3   OH231617   0.186   4.746  11.195  0.8348 -0.2645  0.4069
 3401TIP3    H131618   0.167   4.654  11.212  1.2776 -0.4145  0.0815
 3401TIP3    H231619   0.101   4.790  11.203  0.5578 -0.7552  0.1724
 3402TIP3   OH231620   4.110   4.148  12.045 -0.2018  0.0278  0.5633
 3402TIP3    H131621   4.037   4.103  12.003 -0.9861  0.8272  1.0480
 3402TIP3    H231622   4.136   4.090  12.117 -1.0566  0.2478  1.0461
 3403TIP3   OH231623   3.554   3.058  14.450  0.4987 -0.2686  0.2732
 3403TIP3    H131624   3.466   3.081  14.480  0.2406 -0.1921 -0.5266
 3403TIP3    H231625   3.577   3.129  14.390  1.3285 -0.0038  0.8954
 3404TIP3   OH231626   5.676   3.884  15.301  0.2650  0.4096 -0.5376
 3404TIP3    H131627   5.657   3.966  15.255  0.0762  0.4720 -0.3488
 3404TIP3    H231628   5.603   3.874  15.363  1.2437  1.0477  0.7342
 3405TIP3   OH231629   2.490   5.719  14.903 -0.1100  0.1344  0.8779
 3405TIP3    H131630   2.429   5.645  14.906 -1.1028  0.8791 -0.4485
 3405TIP3    H231631   2.433   5.796  14.906  0.7380  0.8407 -0.9006
 3406TIP3   OH231632   2.580   0.292   2.801 -0.5888 -0.0509 -0.0985
 3406TIP3    H131633   2.656   0.241   2.830 -0.7452  0.4235  1.1561
 3406TIP3    H231634   2.601   0.315   2.710  0.0225 -1.3164 -0.2847
 3407TIP3   OH231635   5.588   3.455  13.661  0.3022  0.3623 -0.0996
 3407TIP3    H131636   5.603   3.514  13.736 -0.8133  0.1293  0.3180
 3407TIP3    H231637   5.514   3.400  13.688  0.3908 -0.2450 -1.0738
 3408TIP3   OH231638   3.888   3.106   0.087 -0.0438  0.1256 -0.1065
 3408TIP3    H131639   3.969   3.056   0.074 -0.4826 -0.6587  0.0927
 3408TIP3    H231640   3.819   3.043   0.067 -0.5950  0.8871 -0.5860
 3409TIP3   OH231641   3.237   1.652  13.243  0.0186 -0.4588  0.0760
 3409TIP3    H131642   3.327   1.643  13.211 -0.0869 -2.0336  0.1588
 3409TIP3    H231643   3.190   1.580  13.200 -0.7376 -0.9158  1.6529
 3410TIP3   OH231644   6.538   0.004  14.469  0.0769  0.3728 -0.0896
 3410TIP3    H131645   6.614   0.054  14.497  0.7229 -0.4176 -0.3939
 3410TIP3    H231646   6.517  -0.053  14.543 -0.6017  1.0286  0.2240
 3411TIP3   OH231647   4.987   2.994   1.124 -0.1630 -0.0764 -0.2155
 3411TIP3    H131648   4.909   3.049   1.118 -0.4382 -0.1989  1.9255
 3411TIP3    H231649   5.030   3.022   1.205  1.9531 -0.1098 -1.2950
 3412TIP3   OH231650   5.202   0.199   3.812 -0.1756  0.1902 -0.2512
 3412TIP3    H131651   5.115   0.189   3.850  1.0279  0.2580  2.6675
 3412TIP3    H231652   5.195   0.277   3.756 -1.8334  0.5135  0.3769
 3413TIP3   OH231653   6.437   5.595  11.474 -0.3606  0.0183 -0.2142
 3413TIP3    H131654   6.420   5.625  11.563 -0.7961  0.3386 -0.3997
 3413TIP3    H231655   6.406   5.505  11.473 -1.7517  0.4770 -0.4406
 3414TIP3   OH231656   2.614   3.637   1.757  0.1781  0.8856  0.7300
 3414TIP3    H131657   2.675   3.644   1.831 -0.5699  2.0223  1.2538
 3414TIP3    H231658   2.527   3.647   1.796 -0.5522 -3.0752  0.3160
 3415TIP3   OH231659   2.307   3.535   3.945  0.0257 -0.1789 -0.0171
 3415TIP3    H131660   2.238   3.597   3.918  0.4807  0.5466  0.4681
 3415TIP3    H231661   2.261   3.452   3.957 -0.7801  0.3181  0.3783
 3416TIP3   OH231662   3.959   2.784   1.242 -0.2838 -0.2709  0.4672
 3416TIP3    H131663   4.043   2.820   1.273  0.6481 -1.5133 -0.5307
 3416TIP3    H231664   3.924   2.738   1.318  0.8099 -1.2198  0.4236
 3417TIP3   OH231665   0.340   5.031   3.305  0.4399  0.9785 -0.4003
 3417TIP3    H131666   0.338   4.971   3.231 -1.2965  1.5605 -0.8424
 3417TIP3    H231667   0.254   5.023   3.346  0.6854  2.1080  0.3743
 3418TIP3   OH231668   2.968   2.032  15.052  0.3707 -0.7960 -0.2058
 3418TIP3    H131669   2.981   2.054  14.960 -1.1801 -0.4097 -0.3494
 3418TIP3    H231670   3.056   2.036  15.090  0.7851  0.9885 -1.2548
 3419TIP3   OH231671   2.648   6.689  16.756 -0.2187 -0.2425 -0.1133
 3419TIP3    H131672   2.568   6.637  16.763 -0.9983  0.8362 -0.8960
 3419TIP3    H231673   2.618   6.777  16.732  1.1736  0.2605 -0.0635
 3420TIP3   OH231674   0.479   2.333  11.200  0.5809 -0.5807  0.4841
 3420TIP3    H131675   0.563   2.356  11.160  0.2536  0.6921  0.5367
 3420TIP3    H231676   0.414   2.351  11.132  0.2491 -0.6412  0.7819
 3421TIP3   OH231677   2.685   5.807  11.831  0.0276  0.7088  0.1138
 3421TIP3    H131678   2.646   5.720  11.843  3.1954 -0.9681 -0.9496
 3421TIP3    H231679   2.725   5.827  11.916  1.8530 -0.3005 -0.4601
 3422TIP3   OH231680   4.860   1.183   0.784 -0.2992 -0.0695 -0.6200
 3422TIP3    H131681   4.896   1.096   0.800  0.4820  0.5748  1.1329
 3422TIP3    H231682   4.781   1.187   0.839 -1.1825 -0.2050 -1.8418
 3423TIP3   OH231683   2.427   6.506  16.522 -0.1996  0.0368  0.1814
 3423TIP3    H131684   2.423   6.486  16.615  1.0146  1.2292  0.4958
 3423TIP3    H231685   2.348   6.466  16.486 -0.0822 -1.4451  1.5121
 3424TIP3   OH231686   2.375   6.762  12.725 -0.2109 -0.1166 -0.0917
 3424TIP3    H131687   2.321   6.783  12.649  0.4906  0.0009 -0.5595
 3424TIP3    H231688   2.347   6.825  12.792 -1.4638 -0.8082  0.0455
 3425TIP3   OH231689   1.720   5.299   1.825  0.4469  0.0230  0.2466
 3425TIP3    H131690   1.724   5.393   1.840  0.0616  0.1015 -0.1197
 3425TIP3    H231691   1.643   5.287   1.768  1.2123 -0.3729 -0.7183
 3426TIP3   OH231692   4.617   6.672  14.096 -0.1639 -0.3396  0.1117
 3426TIP3    H131693   4.609   6.737  14.026  1.2144  1.0673  1.2116
 3426TIP3    H231694   4.587   6.591  14.057 -1.9859  0.9654 -1.2971
 3427TIP3   OH231695   1.359   0.171  16.938 -0.2038  0.2250  0.6391
 3427TIP3    H131696   1.268   0.152  16.917 -0.0685  2.6108 -2.5185
 3427TIP3    H231697   1.409   0.100  16.897 -0.4489  0.6337 -0.3664
 3428TIP3   OH231698   0.290   2.255  14.385 -0.1161 -0.3428  0.0265
 3428TIP3    H131699   0.304   2.350  14.389 -1.4851 -0.2042  1.9587
 3428TIP3    H231700   0.198   2.245  14.363 -0.0550 -1.2375  0.1642
 3429TIP3   OH231701   6.512   1.848  11.624 -0.1215  0.4505  0.3285
 3429TIP3    H131702   6.503   1.827  11.531 -1.8710 -0.1300  0.6084
 3429TIP3    H231703   6.591   1.901  11.630  2.1669 -2.6733 -0.9680
 3430TIP3   OH231704   5.703   6.042  12.387 -0.1507 -0.3521  0.0038
 3430TIP3    H131705   5.695   6.045  12.292  1.0732 -1.8318 -0.1665
 3430TIP3    H231706   5.729   6.131  12.411 -0.0987 -0.0604 -1.0887
 3431TIP3   OH231707   5.895   5.321  11.508 -0.0545  0.1544  0.1781
 3431TIP3    H131708   5.861   5.361  11.428  2.1189  0.8728 -0.4136
 3431TIP3    H231709   5.819   5.318  11.567 -1.3188  0.9983 -1.3615
 3432TIP3   OH231710   5.406   4.970   6.532  0.4974 -0.2291  0.6200
 3432TIP3    H131711   5.357   5.031   6.587 -1.2575 -1.2969  0.2615
 3432TIP3    H231712   5.487   5.017   6.510 -0.6411  1.7875  0.6878
 3433TIP3   OH231713   0.095   0.511   0.298  0.3506 -0.1847 -0.9612
 3433TIP3    H131714   0.173   0.553   0.334 -0.0723  0.6940 -1.0498
 3433TIP3    H231715   0.023   0.571   0.319 -0.1702 -0.5493 -1.6551
 3434TIP3   OH231716   3.285   0.067   2.709 -0.3656  0.1429 -0.1504
 3434TIP3    H131717   3.262   0.084   2.801 -0.9250 -0.2033 -0.2218
 3434TIP3    H231718   3.345   0.138   2.686  0.7283 -0.4423  0.8301
 3435TIP3   OH231719   3.159   3.680   1.231  0.0734 -0.2354 -0.4494
 3435TIP3    H131720   3.154   3.641   1.318 -0.6786  0.7599 -0.0345
 3435TIP3    H231721   3.101   3.627   1.177  0.9123 -1.1513 -0.4678
 3436TIP3   OH231722   0.466   1.834  16.850 -0.0178 -0.1103  0.0386
 3436TIP3    H131723   0.460   1.922  16.889 -1.8782 -0.8960  1.6088
 3436TIP3    H231724   0.418   1.841  16.768  2.2366  1.0377 -1.2507
 3437TIP3   OH231725   5.960   2.226   2.372 -0.1723  0.4485  0.1368
 3437TIP3    H131726   5.980   2.145   2.324 -0.7538  0.1973  0.3096
 3437TIP3    H231727   5.927   2.196   2.457  0.8447  0.8898  0.6972
 3438TIP3   OH231728   5.447   1.764   3.776 -0.5841 -0.4461 -0.0716
 3438TIP3    H131729   5.479   1.691   3.829  0.7336  0.0712 -0.1263
 3438TIP3    H231730   5.522   1.789   3.722  0.1654  3.2818  2.5303
 3439TIP3   OH231731   5.910   1.173  11.477  0.0273  0.1331 -0.7303
 3439TIP3    H131732   5.941   1.165  11.567  0.6525 -0.3166 -0.9759
 3439TIP3    H231733   5.989   1.157  11.424 -0.2260  0.9258 -1.3432
 3440TIP3   OH231734   0.637   0.015  16.940 -0.5548 -0.5826 -0.8578
 3440TIP3    H131735   0.555  -0.016  16.900 -0.5667  0.0486 -1.3230
 3440TIP3    H231736   0.666  -0.059  16.995 -1.8258 -0.5305 -0.0927
 3441TIP3   OH231737   0.096   1.738  14.784 -0.7092  0.4737  0.0289
 3441TIP3    H131738   0.102   1.788  14.866 -1.3830  2.1791 -0.9404
 3441TIP3    H231739   0.043   1.661  14.807  1.9721 -0.8722  2.0232
 3442TIP3   OH231740   2.980   3.371   5.739  0.0936  0.4684 -0.1263
 3442TIP3    H131741   3.041   3.349   5.669 -0.2043 -1.0958  0.0842
 3442TIP3    H231742   2.911   3.423   5.697 -0.7787 -1.5627 -1.2793
 3443TIP3   OH231743   3.507   6.427   2.106  0.1007  0.3952  0.1907
 3443TIP3    H131744   3.568   6.441   2.034 -0.5509 -2.4612 -0.9853
 3443TIP3    H231745   3.422   6.452   2.070 -0.4966 -2.6369 -0.7062
 3444TIP3   OH231746   0.018   1.762  12.245 -0.7970  0.2731 -0.1389
 3444TIP3    H131747   0.061   1.769  12.330 -2.4269 -1.9473  0.9421
 3444TIP3    H231748   0.054   1.681  12.207 -2.0809 -0.2256 -0.3270
 3445TIP3   OH231749   4.196   6.142   1.582 -0.2250  0.1771 -0.0293
 3445TIP3    H131750   4.106   6.174   1.573 -0.7124 -1.2518 -0.2655
 3445TIP3    H231751   4.240   6.210   1.634 -0.8322  2.0099 -1.8135
 3446TIP3   OH231752   6.178   6.216   4.910  0.2642  0.3723 -0.3898
 3446TIP3    H131753   6.188   6.212   4.815  2.1863  1.2069 -0.2413
 3446TIP3    H231754   6.227   6.294   4.936 -0.0236  0.0045  1.3156
 3447TIP3   OH231755   6.765   3.848   1.774  0.0582  0.0134 -0.2282
 3447TIP3    H131756   6.861   3.841   1.773  0.1535  0.9658  0.9439
 3447TIP3    H231757   6.740   3.820   1.862 -0.6543  0.7700 -0.1819
 3448TIP3   OH231758   0.166   2.552  17.108  0.4402  0.2741 -0.3292
 3448TIP3    H131759   0.082   2.564  17.063 -0.5580  0.4112  1.4953
 3448TIP3    H231760   0.141   2.525  17.196  2.2667  2.4808  0.9108
 3449TIP3   OH231761   2.924   4.141  15.805  0.5272  0.1145  0.2615
 3449TIP3    H131762   2.961   4.064  15.847  0.4740 -0.3738 -0.5875
 3449TIP3    H231763   2.945   4.213  15.865  2.0009 -0.3051  0.2465
 3450TIP3   OH231764   4.988   6.189   2.737  0.0333 -0.2783  0.0559
 3450TIP3    H131765   4.952   6.277   2.727  1.2128  0.4225  1.6978
 3450TIP3    H231766   5.071   6.202   2.783  0.7910 -2.1509 -0.7107
 3451TIP3   OH231767   4.056   0.382   4.748 -0.3384 -0.4437  0.4360
 3451TIP3    H131768   4.118   0.360   4.817  0.5278 -0.7607 -0.4239
 3451TIP3    H231769   3.970   0.359   4.783  0.0545 -0.2308  1.5445
 3452TIP3   OH231770   3.282   4.780   4.390  0.6522  0.1489  0.6310
 3452TIP3    H131771   3.248   4.852   4.445  0.5996 -0.9611  2.0883
 3452TIP3    H231772   3.204   4.736   4.358  0.6793  0.9914 -0.6280
 3453TIP3   OH231773   4.316   3.502  13.646  0.0326 -0.1529  0.0947
 3453TIP3    H131774   4.357   3.502  13.732 -1.2283 -0.7212  0.7000
 3453TIP3    H231775   4.344   3.585  13.606 -0.7544  0.9226  1.7066
 3454TIP3   OH231776   6.110   2.077  15.924  0.5837  0.7834  0.1686
 3454TIP3    H131777   6.068   2.032  15.850 -0.6574  0.6359  0.9508
 3454TIP3    H231778   6.201   2.047  15.921  0.4378  0.4080 -1.0162
 3455TIP3   OH231779   3.037   1.449   0.569  0.0123 -0.1139  0.1874
 3455TIP3    H131780   3.105   1.508   0.602 -0.5313  1.7271 -1.8771
 3455TIP3    H231781   3.085   1.372   0.539  0.8902 -0.0763  1.4660
 3456TIP3   OH231782   4.624   1.354   5.451 -0.3212  0.1590 -0.1029
 3456TIP3    H131783   4.540   1.312   5.471  0.5055 -0.9003  1.2263
 3456TIP3    H231784   4.625   1.433   5.504 -0.1544 -0.2388  0.4983
 3457TIP3   OH231785   2.819   5.027  16.808  0.5203  0.6550 -0.3989
 3457TIP3    H131786   2.726   5.009  16.790  1.1463 -0.6110 -2.4982
 3457TIP3    H231787   2.853   4.943  16.839  1.3031  0.7295 -1.0645
 3458TIP3   OH231788   6.580   5.935   0.960 -0.0059 -0.2236 -0.3046
 3458TIP3    H131789   6.496   5.982   0.960 -0.2786 -0.6660 -1.9776
 3458TIP3    H231790   6.555   5.843   0.968  0.3669 -0.3160 -0.2009
 3459TIP3   OH231791   3.815   1.989   3.900 -0.6922  0.4603  0.3085
 3459TIP3    H131792   3.722   1.963   3.900 -1.1199  1.9220  1.1048
 3459TIP3    H231793   3.840   1.989   3.993 -0.0631  0.6170  0.1401
 3460TIP3   OH231794   4.427   3.135  11.407  0.6381  0.0796 -0.1208
 3460TIP3    H131795   4.380   3.098  11.333 -0.8150 -1.0975  1.3466
 3460TIP3    H231796   4.405   3.077  11.480  2.0874  1.1803  1.2088
 3461TIP3   OH231797   2.489   4.129   2.429  0.0228 -0.5126 -0.1773
 3461TIP3    H131798   2.457   4.142   2.339 -1.3034 -0.6410  0.2717
 3461TIP3    H231799   2.583   4.148   2.424 -0.2393  0.4946 -1.3742
 3462TIP3   OH231800   1.987   2.512   3.653  0.3765 -0.8068  0.0183
 3462TIP3    H131801   2.065   2.477   3.611 -0.2883 -2.9803  0.5389
 3462TIP3    H231802   2.006   2.508   3.747 -0.3357 -1.3017  0.1463
 3463TIP3   OH231803   1.111   5.639  13.027  0.1922 -0.2190 -0.2960
 3463TIP3    H131804   1.172   5.692  12.976  0.1808 -1.2584 -1.4156
 3463TIP3    H231805   1.062   5.589  12.962 -1.4236  0.1171  0.6201
 3464TIP3   OH231806   6.431   3.201  14.140  0.0213  0.1422 -0.0893
 3464TIP3    H131807   6.365   3.170  14.077 -0.8511 -0.4292  1.0841
 3464TIP3    H231808   6.507   3.223  14.086 -0.2654 -1.5416 -1.2243
 3465TIP3   OH231809   1.277   5.760  16.695  0.4837  0.2169 -0.0490
 3465TIP3    H131810   1.275   5.791  16.785 -0.8946 -1.1222  0.4105
 3465TIP3    H231811   1.221   5.682  16.695 -1.5981  1.6072 -2.5809
 3466TIP3   OH231812   3.270   3.874  13.445 -0.4667 -0.6049  0.4367
 3466TIP3    H131813   3.322   3.924  13.382 -1.1801 -1.0749 -0.5600
 3466TIP3    H231814   3.323   3.796  13.464  0.4410  0.3040  1.6344
 3467TIP3   OH231815   3.603   6.242   1.336  0.3619 -0.0295 -0.0526
 3467TIP3    H131816   3.642   6.324   1.306 -0.7697  0.7838  0.6661
 3467TIP3    H231817   3.530   6.226   1.276 -1.7173  1.4384  1.9821
 3468TIP3   OH231818   2.037   2.312   3.870 -0.5009  0.0135  0.0384
 3468TIP3    H131819   2.062   2.240   3.813 -1.2696 -1.7037  1.8283
 3468TIP3    H231820   2.102   2.311   3.940 -0.0837  1.5386 -0.2980
 3469TIP3   OH231821   3.486   6.575  15.130  0.2861 -0.1540  0.1934
 3469TIP3    H131822   3.501   6.606  15.040  1.2746  2.7640  1.3140
 3469TIP3    H231823   3.395   6.596  15.148  0.0499 -0.8628 -0.1652
 3470TIP3   OH231824   0.568   4.056  15.828 -0.3609  0.6602  0.1542
 3470TIP3    H131825   0.577   4.017  15.741 -1.8746  1.4116 -0.3464
 3470TIP3    H231826   0.531   3.986  15.882  0.0931  0.3596  0.0840
 3471TIP3   OH231827   3.004   3.971   2.869 -0.6809  0.0089  0.0723
 3471TIP3    H131828   3.005   4.001   2.960 -0.1789 -0.4860  0.2270
 3471TIP3    H231829   3.028   3.879   2.874 -0.0196  0.1413 -0.6239
 3472TIP3   OH231830   1.124   5.694  11.573  0.0426  0.4587 -0.0509
 3472TIP3    H131831   1.167   5.611  11.595 -0.3093  0.2695 -0.0694
 3472TIP3    H231832   1.196   5.753  11.552  0.2298 -0.5364 -2.4298
 3473TIP3   OH231833   4.506   5.669  13.931  0.3102 -0.0209  0.2762
 3473TIP3    H131834   4.500   5.630  14.018 -1.2260 -4.0143 -1.4898
 3473TIP3    H231835   4.598   5.664  13.907  0.6519  0.6262  1.4603
 3474TIP3   OH231836   0.378   4.859   1.034  1.1927 -0.5140 -0.0067
 3474TIP3    H131837   0.317   4.803   0.987  0.1119 -0.1493  0.9174
 3474TIP3    H231838   0.440   4.889   0.968  2.3830 -3.5503 -0.3337
 3475TIP3   OH231839   2.306   0.869   2.056  0.6567 -0.0964  0.2926
 3475TIP3    H131840   2.265   0.920   1.986  0.6520 -1.6643 -0.8903
 3475TIP3    H231841   2.243   0.873   2.128  1.1189  2.3859  0.6075
 3476TIP3   OH231842   0.993   3.210  15.455  0.1285 -0.3185 -0.0145
 3476TIP3    H131843   0.953   3.160  15.526  0.3671 -0.1594  0.2360
 3476TIP3    H231844   0.932   3.283  15.441  0.1070 -0.3212  0.0620
 3477TIP3   OH231845   5.012   4.164  15.743 -0.5736  0.1177 -0.2115
 3477TIP3    H131846   5.062   4.215  15.679 -1.8039  0.3664 -0.9941
 3477TIP3    H231847   5.009   4.076  15.706 -1.4903  0.3184 -0.6097
 3478TIP3   OH231848   3.420   5.499   4.103  0.1473  0.2951  0.0027
 3478TIP3    H131849   3.515   5.512   4.110  0.2908  0.1357 -1.3938
 3478TIP3    H231850   3.388   5.506   4.192  1.5157  0.1197  0.5223
 3479TIP3   OH231851   4.629   3.283   6.421 -0.4781  0.5244 -0.0199
 3479TIP3    H131852   4.630   3.363   6.368 -0.1964  0.8003  0.4014
 3479TIP3    H231853   4.614   3.314   6.510  2.8282  0.3868  0.6452
 3480TIP3   OH231854   2.721   6.758   3.967 -0.9621 -0.5448 -0.1391
 3480TIP3    H131855   2.702   6.795   4.053  2.0656 -0.9881  0.7589
 3480TIP3    H231856   2.642   6.709   3.944 -1.8428 -0.3587  2.3408
 3481TIP3   OH231857   3.399   0.130  15.926  0.0638  0.3199  0.0861
 3481TIP3    H131858   3.478   0.095  15.885 -0.2063  1.1379 -1.1502
 3481TIP3    H231859   3.327   0.086  15.881 -0.2187 -0.4069  1.1956
 3482TIP3   OH231860   2.074   2.443   4.172  0.4505  0.2289 -0.2080
 3482TIP3    H131861   2.167   2.440   4.198  0.1931 -1.1814  0.6048
 3482TIP3    H231862   2.069   2.514   4.109  2.0734  0.4092 -0.1525
 3483TIP3   OH231863   0.369   6.356  12.910  0.1356  0.3176  0.1611
 3483TIP3    H131864   0.408   6.333  12.994 -0.1888  0.8026  0.4468
 3483TIP3    H231865   0.332   6.274  12.877  2.5199 -0.4373 -0.7127
 3484TIP3   OH231866   1.936   3.626  13.539 -0.0387 -0.5007  0.0626
 3484TIP3    H131867   1.860   3.596  13.588 -0.5914 -0.2709 -0.6418
 3484TIP3    H231868   1.925   3.720  13.531  0.4799 -0.4228  0.2183
 3485TIP3   OH231869   3.490   6.128   4.695  0.7488  0.1152 -0.2182
 3485TIP3    H131870   3.490   6.203   4.635  0.2053  0.6886  0.4925
 3485TIP3    H231871   3.400   6.124   4.728  0.4485 -1.5688 -1.1288
 3486TIP3   OH231872   2.837   6.426   2.633 -0.2180  0.3172 -0.1687
 3486TIP3    H131873   2.807   6.414   2.543 -2.0164  0.8704  0.3341
 3486TIP3    H231874   2.823   6.519   2.651 -0.6610  0.0512  0.9391
 3487TIP3   OH231875   2.023   1.116  14.493  0.0824 -0.0986  0.5534
 3487TIP3    H131876   1.929   1.096  14.494  0.1501 -0.4214  1.9250
 3487TIP3    H231877   2.065   1.033  14.510  0.5472  0.3887  1.8163
 3488TIP3   OH231878   4.675   2.545   1.970  0.8869 -0.1142  0.1051
 3488TIP3    H131879   4.759   2.590   1.961  0.2589  0.9447 -0.6083
 3488TIP3    H231880   4.609   2.613   1.956 -0.0934 -1.3010 -1.2904
 3489TIP3   OH231881   4.763   6.184   3.610  0.0589 -0.4278  0.3277
 3489TIP3    H131882   4.757   6.104   3.558  1.4868 -0.3134 -0.0642
 3489TIP3    H231883   4.679   6.227   3.599 -1.4373 -2.8132  2.1369
 3490TIP3   OH231884   4.317   5.340  12.389  0.1605 -0.3791 -0.0054
 3490TIP3    H131885   4.357   5.326  12.475 -0.9969  0.6248  0.7131
 3490TIP3    H231886   4.377   5.400  12.344 -0.0972  0.4564  0.7574
 3491TIP3   OH231887   1.449   5.335  12.248 -0.1700  0.3863  0.2431
 3491TIP3    H131888   1.492   5.287  12.177 -0.5734  3.1092 -1.9201
 3491TIP3    H231889   1.498   5.417  12.255 -2.3206  1.6609  0.7376
 3492TIP3   OH231890   4.720   5.170  12.091 -0.4680 -0.3057 -0.3055
 3492TIP3    H131891   4.712   5.249  12.037  1.7286 -0.8942 -1.5414
 3492TIP3    H231892   4.760   5.201  12.172 -2.7194  0.3852  0.5887
 3493TIP3   OH231893   1.386   0.805   0.026 -0.8088 -0.0854  0.2795
 3493TIP3    H131894   1.465   0.751   0.020  0.0618  1.2085 -0.2892
 3493TIP3    H231895   1.403   0.878  -0.034 -2.2025  0.4992  0.5849
 3494TIP3   OH231896   1.016   6.037  12.793  0.3304  0.1484  0.1262
 3494TIP3    H131897   0.992   6.043  12.886 -0.7119  0.4504 -0.1512
 3494TIP3    H231898   0.993   5.947  12.768  1.2467 -0.1414  0.3339
 3495TIP3   OH231899   5.716   1.751   1.648 -0.8459  0.2127  0.0214
 3495TIP3    H131900   5.741   1.713   1.564 -1.3847  0.2742 -0.1733
 3495TIP3    H231901   5.742   1.686   1.713 -0.9801 -0.1095 -0.2443
 3496TIP3   OH231902   1.885   3.808  12.329 -0.7981  0.1760 -0.2250
 3496TIP3    H131903   1.856   3.842  12.413 -1.2067 -4.2007  1.5817
 3496TIP3    H231904   1.805   3.793  12.279 -0.7160  0.4954 -0.4564
 3497TIP3   OH231905   3.449   6.113   3.574 -0.3783 -0.0525  0.4139
 3497TIP3    H131906   3.459   6.146   3.664 -1.3557 -0.4108  0.6606
 3497TIP3    H231907   3.425   6.190   3.523 -0.6279  0.0020  0.6132
 3498TIP3   OH231908   3.062   1.136  13.396  0.7831  0.1858  0.4240
 3498TIP3    H131909   3.085   1.094  13.314 -1.5446 -1.0511  0.3596
 3498TIP3    H231910   3.019   1.068  13.447  0.2867  1.4988  1.8009
 3499TIP3   OH231911   6.098   4.500  16.215 -0.7862  0.1939 -0.3530
 3499TIP3    H131912   6.086   4.422  16.162 -0.6871 -0.9192  1.2336
 3499TIP3    H231913   6.011   4.539  16.221 -1.0768 -0.4861 -0.1101
 3500TIP3   OH231914   1.222   6.233  16.822  0.1069  0.0644  0.5739
 3500TIP3    H131915   1.127   6.244  16.821  0.4088  3.7584  2.6431
 3500TIP3    H231916   1.242   6.209  16.913  1.1476 -0.8607  0.1066
 3501TIP3   OH231917   2.367   1.134   3.231  0.5238 -0.0179  0.1108
 3501TIP3    H131918   2.358   1.090   3.147  0.1441 -1.5785  0.9292
 3501TIP3    H231919   2.397   1.065   3.291  1.5783  1.2455  1.0829
 3502TIP3   OH231920   6.048   6.503   0.479  0.7852 -0.0379  0.4956
 3502TIP3    H131921   6.130   6.540   0.513  0.5677  1.2272 -0.3439
 3502TIP3    H231922   6.076   6.437   0.415  1.1474  1.4793 -0.9328
 3503TIP3   OH231923   5.386   4.567   1.724 -0.0859 -0.3561 -0.1829
 3503TIP3    H131924   5.459   4.611   1.680  0.6595  0.4563  1.8007
 3503TIP3    H231925   5.352   4.506   1.659  2.2796 -0.6557 -1.2031
 3504TIP3   OH231926   1.215   4.903  16.011 -0.3878  0.9086 -0.0188
 3504TIP3    H131927   1.154   4.977  16.021  0.4761  1.6860 -0.4079
 3504TIP3    H231928   1.301   4.942  16.026  0.2518  0.3847 -2.2068
 3505TIP3   OH231929   2.979   4.362   1.159 -0.3663 -0.2797  0.2294
 3505TIP3    H131930   2.991   4.453   1.185 -2.3849 -0.8389  3.4222
 3505TIP3    H231931   2.963   4.316   1.241 -0.0011 -3.4177 -1.4075
 3506TIP3   OH231932   3.303   5.513  15.903  0.0589 -0.4601  0.1028
 3506TIP3    H131933   3.359   5.478  15.833 -0.0674  1.0376 -0.7733
 3506TIP3    H231934   3.215   5.516  15.864 -0.3321 -1.2229  0.9099
 3507TIP3   OH231935   3.930   0.531  11.536  0.6101 -0.0497  0.1521
 3507TIP3    H131936   3.996   0.577  11.484  0.5123 -0.3753 -0.2658
 3507TIP3    H231937   3.976   0.453  11.568 -0.1986 -1.4807 -2.0332
 3508TIP3   OH231938   1.571   1.602   1.671 -0.5601  0.5382 -0.1119
 3508TIP3    H131939   1.632   1.595   1.744  2.3917  2.9942 -2.1756
 3508TIP3    H231940   1.491   1.637   1.709  0.1918 -0.2787  2.2686
 3509TIP3   OH231941   6.255   0.637  12.280 -0.0657 -0.2351  0.2062
 3509TIP3    H131942   6.262   0.658  12.187 -1.1628  0.7796  0.3483
 3509TIP3    H231943   6.264   0.721  12.324  1.3453 -0.8289  1.0758
 3510TIP3   OH231944   6.135   6.292  12.498 -0.2350  0.8879  0.1668
 3510TIP3    H131945   6.079   6.335  12.562 -1.2051 -0.2723  0.1163
 3510TIP3    H231946   6.138   6.200  12.527 -0.4835  0.4046 -1.2996
 3511TIP3   OH231947   2.755   4.092  16.107 -0.2734 -0.3650 -0.8269
 3511TIP3    H131948   2.701   4.124  16.179  0.9966  0.1173 -0.0746
 3511TIP3    H231949   2.805   4.170  16.078  0.9507 -1.0715 -0.6668
 3512TIP3   OH231950   6.618   2.035   5.640  0.1935  0.0970  0.1334
 3512TIP3    H131951   6.642   2.014   5.550  0.3574 -1.1321  0.4526
 3512TIP3    H231952   6.526   2.061   5.635 -0.0088 -0.6898 -0.2860
 3513TIP3   OH231953   3.216   5.063  14.454 -0.4205 -0.1321  1.0692
 3513TIP3    H131954   3.311   5.072  14.448 -0.4265  0.3295  1.6827
 3513TIP3    H231955   3.184   5.151  14.471 -0.9417 -0.3214  1.0902
 3514TIP3   OH231956   0.686   1.189  13.394 -0.2673 -0.0514  0.2523
 3514TIP3    H131957   0.688   1.179  13.489 -1.4533 -0.4834  0.2446
 3514TIP3    H231958   0.649   1.106  13.363 -1.1593  0.6226 -0.4883
 3515TIP3   OH231959   0.516   5.137   1.729  0.3606  0.0230 -0.0294
 3515TIP3    H131960   0.570   5.147   1.651 -0.1738 -1.2697 -0.5783
 3515TIP3    H231961   0.566   5.181   1.798  1.9602 -0.8665 -0.5910
 3516TIP3   OH231962   5.688   0.114  11.315  0.3228  0.5928  0.2653
 3516TIP3    H131963   5.710   0.057  11.388  0.9170  0.0674 -0.3150
 3516TIP3    H231964   5.606   0.078  11.280 -0.9213  1.8982  1.7466
 3517TIP3   OH231965   5.499   3.143   0.300 -0.0028  0.1267 -0.0676
 3517TIP3    H131966   5.469   3.132   0.390  0.1369  1.3999  0.1477
 3517TIP3    H231967   5.443   3.086   0.249  0.1455 -0.8750  0.8633
 3518TIP3   OH231968   2.893   2.909  13.406  0.2505 -0.2589 -0.0611
 3518TIP3    H131969   2.866   2.995  13.375  1.0698 -0.4012 -1.1751
 3518TIP3    H231970   2.825   2.850  13.373  0.7541 -0.3129 -1.0143
 3519TIP3   OH231971   5.751   1.548  13.611 -0.3974  0.1127 -0.1890
 3519TIP3    H131972   5.847   1.544  13.612 -0.3901  0.5035  1.1334
 3519TIP3    H231973   5.729   1.577  13.522  0.6807 -0.5842 -0.6934
 3520TIP3   OH231974   3.601   4.414   0.214  0.1650  0.1368  0.1267
 3520TIP3    H131975   3.664   4.485   0.200  0.2709 -0.3373 -1.9009
 3520TIP3    H231976   3.645   4.356   0.276  1.0022  0.6928  0.0718
 3521TIP3   OH231977   0.328   1.157   0.538 -0.3190 -0.4167 -0.6151
 3521TIP3    H131978   0.309   1.101   0.613 -3.0982 -1.0994 -1.7931
 3521TIP3    H231979   0.376   1.231   0.576 -3.3828  0.2712  2.1672
 3522TIP3   OH231980   4.519   2.978   6.124 -0.2240 -0.6333 -0.1448
 3522TIP3    H131981   4.442   3.011   6.076  1.2856  1.2073 -1.3761
 3522TIP3    H231982   4.488   2.969   6.215 -1.6605  0.9935 -0.4341
 3523TIP3   OH231983   4.233   5.759   4.032 -0.1182  0.4338  0.3900
 3523TIP3    H131984   4.161   5.698   4.050 -0.2074  0.7869  1.2809
 3523TIP3    H231985   4.299   5.705   3.989 -0.2367 -0.2785  1.0744
 3524TIP3   OH231986   1.129   1.804  14.818  0.4197  0.2458  0.7851
 3524TIP3    H131987   1.152   1.712  14.831 -2.5832 -0.5144  1.0613
 3524TIP3    H231988   1.152   1.846  14.901  0.7324 -0.4812  1.0732
 3525TIP3   OH231989   5.945   3.100   1.505  0.1657  0.6899 -0.1566
 3525TIP3    H131990   5.862   3.053   1.511  1.3638 -1.3838  0.5183
 3525TIP3    H231991   5.999   3.064   1.575  1.8505  1.6094 -0.9355
 3526TIP3   OH231992   6.089   3.582  11.258 -0.2993  0.3617  0.2701
 3526TIP3    H131993   6.073   3.675  11.240 -1.9133  0.3052  1.2840
 3526TIP3    H231994   6.009   3.538  11.231  0.5058 -0.7727 -0.3204
 3527TIP3   OH231995   3.218   3.653   5.837 -0.4617  0.0885  0.7214
 3527TIP3    H131996   3.151   3.702   5.886 -0.2260  1.7250 -0.5792
 3527TIP3    H231997   3.188   3.562   5.843 -2.8779  0.7915  0.0993
 3528TIP3   OH231998   0.556   1.674  12.122  0.2576  0.1474 -0.2125
 3528TIP3    H131999   0.596   1.696  12.038 -3.1050  4.4515 -0.8582
 3528TIP3    H232000   0.474   1.631  12.099 -1.0296  2.0229  0.8553
 3529TIP3   OH232001   3.792   5.639  10.807 -0.1953 -0.1641  0.5930
 3529TIP3    H132002   3.811   5.686  10.726 -1.9882 -0.9017 -0.2799
 3529TIP3    H232003   3.703   5.667  10.831 -0.5564 -1.6633  1.0706
 3530TIP3   OH232004   3.903   1.619   6.035 -0.0648  0.1446  0.0721
 3530TIP3    H132005   3.858   1.556   5.978  0.3060 -0.9643  0.9730
 3530TIP3    H232006   3.842   1.633   6.107  0.7914 -0.9545  1.0308
 3531TIP3   OH232007   6.599   5.534   5.886 -0.1098 -0.2156  0.4550
 3531TIP3    H132008   6.606   5.444   5.916 -0.7008 -0.7893 -1.0887
 3531TIP3    H232009   6.669   5.580   5.933  0.2125 -1.4605  1.2365
 3532TIP3   OH232010   3.383   0.343   2.755 -0.6940  0.2638  0.0382
 3532TIP3    H132011   3.348   0.431   2.738 -0.3841  0.3492 -0.1575
 3532TIP3    H232012   3.448   0.355   2.823 -1.5426 -0.0002  0.9115
 3533TIP3   OH232013   2.025   3.392  11.133 -0.6566 -0.0915  0.7101
 3533TIP3    H132014   2.019   3.299  11.154  0.5903 -0.4908 -0.6068
 3533TIP3    H232015   2.014   3.396  11.038  2.0225  0.8023  0.3869
 3534TIP3   OH232016   6.003   5.896  12.489 -0.0299  0.0191  0.1162
 3534TIP3    H132017   6.000   5.841  12.567  0.1085  0.2208  0.2669
 3534TIP3    H232018   6.058   5.971  12.516  2.1266 -1.1262 -0.9534
 3535TIP3   OH232019   1.845   2.977  13.726 -0.3006 -0.1236 -0.5548
 3535TIP3    H132020   1.816   2.967  13.635 -0.0376  2.6613 -0.9725
 3535TIP3    H232021   1.940   2.986  13.720 -0.2314 -0.4387  0.0552
 3536TIP3   OH232022   5.967   4.485  11.987 -0.3785 -0.1473 -0.2833
 3536TIP3    H132023   5.875   4.512  11.990 -0.4201 -0.3463  0.3018
 3536TIP3    H232024   5.990   4.487  11.894 -0.8379  0.3606 -0.3857
 3537TIP3   OH232025   0.776   2.939   5.935  0.4588 -0.3929 -0.5145
 3537TIP3    H132026   0.816   2.906   5.854 -0.7353 -2.5026 -0.2829
 3537TIP3    H232027   0.709   3.000   5.905  0.4683 -0.6683 -1.1041
 3538TIP3   OH232028   0.398   5.643  13.271 -0.1814 -0.3643  0.9226
 3538TIP3    H132029   0.359   5.645  13.358 -1.3347 -0.3214  0.4089
 3538TIP3    H232030   0.370   5.725  13.230  1.4605  0.2365  0.9786
 3539TIP3   OH232031   4.555   6.096   0.865  0.1688  0.5903  0.8294
 3539TIP3    H132032   4.591   6.125   0.781 -0.3271  1.6810  0.9886
 3539TIP3    H232033   4.463   6.122   0.862  0.4996  1.9935  2.3186
 3540TIP3   OH232034   4.142   5.844  16.183  0.9802 -0.5355  0.3535
 3540TIP3    H132035   4.104   5.917  16.231 -0.3062 -0.4353 -0.7803
 3540TIP3    H232036   4.104   5.766  16.223 -1.1581 -0.4126 -1.3121
 3541TIP3   OH232037   6.586   1.457   0.560  0.1884 -0.3571  0.3584
 3541TIP3    H132038   6.504   1.476   0.605  0.8731 -1.3721  2.0715
 3541TIP3    H232039   6.653   1.504   0.610  0.9999 -1.7764  0.6491
 3542TIP3   OH232040   2.236   0.328   1.680 -0.4014 -0.4767 -0.4340
 3542TIP3    H132041   2.292   0.374   1.743 -2.5765 -2.0444  2.7473
 3542TIP3    H232042   2.159   0.384   1.672 -1.5272 -1.8164  0.7855
 3543TIP3   OH232043   0.856   5.826  11.644  0.1339  0.2960  1.0839
 3543TIP3    H132044   0.884   5.917  11.653 -1.2025  0.5316  3.0793
 3543TIP3    H232045   0.931   5.774  11.675  0.3192  0.7687  1.4264
 3544TIP3   OH232046   6.061   2.826   4.939 -0.4977  0.0411  0.0018
 3544TIP3    H132047   5.967   2.818   4.953 -0.6532  1.1785 -0.4041
 3544TIP3    H232048   6.085   2.909   4.979  0.1415  0.2845 -0.8690
 3545TIP3   OH232049   4.188   3.270  12.723 -0.3960 -0.0381 -0.2062
 3545TIP3    H132050   4.161   3.180  12.740 -1.5335  0.5323  1.1207
 3545TIP3    H232051   4.122   3.304  12.663  0.4970 -0.3287 -1.3711
 3546TIP3   OH232052   5.311   1.344   2.447 -0.1841  0.2673  0.0780
 3546TIP3    H132053   5.223   1.329   2.413  0.6440  1.5936 -2.8079
 3546TIP3    H232054   5.346   1.256   2.462 -1.5746 -0.2876  0.1108
 3547TIP3   OH232055   4.857   4.967   5.074  0.3318 -0.2271  0.0602
 3547TIP3    H132056   4.824   4.923   5.153  0.4142 -0.2068  0.1070
 3547TIP3    H232057   4.907   5.041   5.108 -0.6180  0.4614 -0.0525
 3548TIP3   OH232058   1.014   3.626  15.460 -0.2089 -0.6819  0.4659
 3548TIP3    H132059   0.958   3.702  15.468 -1.6320 -1.7346  0.6917
 3548TIP3    H232060   1.098   3.653  15.498 -1.5877 -0.1644  3.2704
 3549TIP3   OH232061   1.639   1.205   3.178  0.6840  0.4688 -0.0590
 3549TIP3    H132062   1.670   1.290   3.147 -0.4116  0.1687 -2.1000
 3549TIP3    H232063   1.672   1.143   3.113 -0.6475 -0.3510  0.0266
 3550TIP3   OH232064   0.313   4.524   0.161  0.2383 -0.2056 -0.0622
 3550TIP3    H132065   0.376   4.469   0.208  0.6022 -0.0892 -0.4187
 3550TIP3    H232066   0.278   4.467   0.092 -0.7073 -0.5540  0.6884
 3551TIP3   OH232067   2.460   3.878  11.313 -0.1885 -0.2051 -0.0769
 3551TIP3    H132068   2.545   3.839  11.293 -0.9816 -1.9808 -0.0977
 3551TIP3    H232069   2.456   3.956  11.258  0.6412 -1.1563 -1.5300
 3552TIP3   OH232070   5.408   2.707   2.017  0.3117 -0.3171  0.3413
 3552TIP3    H132071   5.338   2.769   1.997  0.2819  0.4273  2.6309
 3552TIP3    H232072   5.471   2.718   1.946 -0.1782  1.5865  0.1850
 3553TIP3   OH232073   0.445   0.061   4.934 -0.2073  0.8946 -0.0423
 3553TIP3    H132074   0.426   0.021   4.849  0.3066  2.1222 -0.7331
 3553TIP3    H232075   0.422  -0.007   4.998  2.3114 -1.2091 -1.2723
 3554TIP3   OH232076   2.906   5.291   0.569  0.1404  0.0360 -0.0908
 3554TIP3    H132077   2.815   5.285   0.541 -0.8148  2.7070  2.2814
 3554TIP3    H232078   2.910   5.236   0.647  1.0282 -1.5015 -1.1935
 3555TIP3   OH232079   5.059   4.679   4.541 -0.2058  0.2997  0.1396
 3555TIP3    H132080   4.969   4.662   4.571 -0.5444 -1.2423 -1.6596
 3555TIP3    H232081   5.101   4.593   4.543  0.9661  0.8647  0.0707
 3556TIP3   OH232082   1.146   6.637   1.710  0.2672 -0.7879 -0.2574
 3556TIP3    H132083   1.068   6.616   1.760  0.7999 -0.6334  0.6353
 3556TIP3    H232084   1.206   6.677   1.772  0.0900  1.4706 -1.4956
 3557TIP3   OH232085   4.729   1.552   4.449  0.1472  0.3369 -0.3116
 3557TIP3    H132086   4.753   1.618   4.384  0.7780  1.0442  0.6341
 3557TIP3    H232087   4.634   1.548   4.445  0.1516  0.6953 -0.9658
 3558TIP3   OH232088   1.698   0.378   0.299 -0.5814 -0.6244  0.0566
 3558TIP3    H132089   1.612   0.359   0.336 -1.3285 -2.7065 -2.5721
 3558TIP3    H232090   1.688   0.462   0.255 -0.6376  0.1611  1.5233
 3559TIP3   OH232091   4.868   0.712   2.642 -0.1969  0.4084  0.2400
 3559TIP3    H132092   4.794   0.746   2.592  0.8368  0.6346 -1.1880
 3559TIP3    H232093   4.886   0.627   2.602  0.4372  0.4438  0.4497
 3560TIP3   OH232094   2.242   3.751  15.773  0.3385 -0.2348  0.4611
 3560TIP3    H132095   2.266   3.812  15.702  0.6071 -1.0446 -0.1487
 3560TIP3    H232096   2.272   3.666  15.742 -2.4590 -1.1404  0.0798
 3561TIP3   OH232097   6.714   1.379  11.601 -0.0330 -0.5688 -0.2316
 3561TIP3    H132098   6.738   1.368  11.509  0.1908 -2.0644 -0.0017
 3561TIP3    H232099   6.671   1.465  11.605 -0.7147 -0.8316 -1.8556
 3562TIP3   OH232100   3.520   4.295  15.110 -0.1135 -0.4194 -0.0716
 3562TIP3    H132101   3.472   4.344  15.043  3.3032 -1.0808 -3.1492
 3562TIP3    H232102   3.500   4.203  15.092  0.2876 -0.5674  0.2366
 3563TIP3   OH232103   0.533   1.330   1.957  0.2239  0.2169 -0.0165
 3563TIP3    H132104   0.438   1.319   1.943  0.1120  1.5118 -0.3161
 3563TIP3    H232105   0.560   1.249   2.001 -0.8018 -0.6833 -1.0087
 3564TIP3   OH232106   6.766   2.810  11.602 -0.1544  0.1668 -0.5681
 3564TIP3    H132107   6.847   2.803  11.652 -1.1512  0.6731  1.1399
 3564TIP3    H232108   6.729   2.894  11.627 -1.2054 -0.0465 -1.3544
 3565TIP3   OH232109   5.209   3.091   5.086  0.1977 -0.1650 -0.2874
 3565TIP3    H132110   5.229   3.002   5.056 -0.4016  0.0194 -1.2600
 3565TIP3    H232111   5.179   3.080   5.176  0.1717 -0.9463 -0.3872
 3566TIP3   OH232112   0.427   3.027   0.496 -0.1470 -0.8277  0.0568
 3566TIP3    H132113   0.460   3.116   0.501 -2.6428  0.1678 -0.4222
 3566TIP3    H232114   0.492   2.980   0.444  0.2213  1.1945 -1.3622
 3567TIP3   OH232115   4.300   4.928   6.062 -0.1692 -0.0250  0.4467
 3567TIP3    H132116   4.358   4.877   6.119  0.3973 -0.6652 -0.7032
 3567TIP3    H232117   4.260   4.863   6.005  1.2035  0.9013 -1.6039
 3568TIP3   OH232118   1.360   5.637  15.308  0.0749 -0.1246  0.1610
 3568TIP3    H132119   1.303   5.713  15.320 -1.6436 -1.5139  0.9679
 3568TIP3    H232120   1.363   5.624  15.213 -1.8264 -0.6916  0.1671
 3569TIP3   OH232121   1.380   5.224  14.422 -0.3978  0.2363  0.0697
 3569TIP3    H132122   1.417   5.138  14.441 -2.3079 -0.6737 -0.2079
 3569TIP3    H232123   1.392   5.234  14.327 -0.1543  0.2858  0.1055
 3570TIP3   OH232124   4.486   0.438  13.119  0.0795  0.2373 -0.2156
 3570TIP3    H132125   4.402   0.415  13.078 -0.1143  1.4899 -0.5558
 3570TIP3    H232126   4.462   0.473  13.205  0.1790  1.3340 -0.6237
 3571TIP3   OH232127   2.911   4.945  16.197 -0.0324  0.8545 -0.2499
 3571TIP3    H132128   2.974   4.948  16.124 -0.4880 -0.1523 -0.6923
 3571TIP3    H232129   2.827   4.928  16.155 -0.5360  1.7628  0.3889
 3572TIP3   OH232130   2.644   6.586  12.398 -0.0500 -0.3106 -0.0713
 3572TIP3    H132131   2.667   6.497  12.424 -1.8922 -0.7971 -0.0414
 3572TIP3    H232132   2.636   6.634  12.480  1.1545 -0.0327 -0.0950
 3573TIP3   OH232133   0.639   5.833  16.427  0.7129 -0.4281 -0.1314
 3573TIP3    H132134   0.639   5.741  16.400 -0.2395 -0.3360 -0.4762
 3573TIP3    H232135   0.659   5.881  16.347 -0.0975 -0.2665 -0.2416
 3574TIP3   OH232136   6.704   5.837   0.497 -0.1112 -0.5119  0.0380
 3574TIP3    H132137   6.666   5.863   0.581  0.5240 -0.3884  0.2909
 3574TIP3    H232138   6.647   5.878   0.431 -0.6494 -0.6685  0.4058
 3575TIP3   OH232139   0.421   4.251  15.639 -0.2844 -0.2734  0.0465
 3575TIP3    H132140   0.464   4.299  15.568  1.4566 -1.9872 -0.1041
 3575TIP3    H232141   0.491   4.198  15.678 -1.2694  0.3685  2.8404
 3576TIP3   OH232142   4.400   4.329  11.618 -0.7935 -0.2410 -0.3813
 3576TIP3    H132143   4.359   4.286  11.692 -0.1275 -1.4302 -0.6907
 3576TIP3    H232144   4.368   4.419  11.621  0.6836  0.2275  2.4525
 3577TIP3   OH232145   5.499   3.666  12.541 -0.1811  0.1611  0.3766
 3577TIP3    H132146   5.521   3.747  12.495 -1.4968  0.6586  0.6235
 3577TIP3    H232147   5.406   3.652  12.523  0.0014 -1.2315  0.4394
 3578TIP3   OH232148   2.116   3.756  14.378 -0.0141  0.3275  0.1612
 3578TIP3    H132149   2.080   3.782  14.293 -1.6273 -0.3447  0.6206
 3578TIP3    H232150   2.164   3.675  14.360  1.1325  1.1226 -0.4215
 3579TIP3   OH232151   4.546   6.067   3.054  0.4035  0.0873  0.3108
 3579TIP3    H132152   4.540   6.078   2.959 -0.1373 -2.0498  0.0631
 3579TIP3    H232153   4.627   6.017   3.067 -0.5884 -1.4531  0.7693
 3580TIP3   OH232154   2.027   3.698   2.051  0.1993  0.4883 -0.1663
 3580TIP3    H132155   1.935   3.672   2.051 -1.0367  4.5048 -0.4947
 3580TIP3    H232156   2.055   3.689   1.960  0.1264 -0.6887 -0.0738
 3581TIP3   OH232157   5.149   1.923   0.189  0.1357  0.1663  0.2219
 3581TIP3    H132158   5.244   1.916   0.201  0.5527  0.1136 -2.8865
 3581TIP3    H232159   5.113   1.849   0.238  1.8279 -1.0403 -0.3307
 3582TIP3   OH232160   1.562   0.390   3.931 -0.1945 -0.6059  0.0024
 3582TIP3    H132161   1.522   0.468   3.892 -0.6060 -0.2467  1.1156
 3582TIP3    H232162   1.653   0.391   3.900 -0.2891  0.1264 -0.2600
 3583TIP3   OH232163   4.842   4.541  14.722  0.2961  0.1230 -0.2185
 3583TIP3    H132164   4.854   4.615  14.782 -0.6695  0.2473 -0.1583
 3583TIP3    H232165   4.868   4.464  14.772  0.5782  0.3511 -0.0173
 3584TIP3   OH232166   2.267   4.028   2.716 -0.3161 -0.4909  0.1434
 3584TIP3    H132167   2.270   4.056   2.808 -1.1440 -0.5031  0.1792
 3584TIP3    H232168   2.207   4.090   2.674 -1.5117 -1.6765  0.0512
 3585TIP3   OH232169   5.978   5.353  15.069  0.0127  0.4955 -0.2128
 3585TIP3    H132170   5.960   5.263  15.041  1.6580  0.1715 -0.3017
 3585TIP3    H232171   5.963   5.352  15.163 -2.6659  0.8471 -0.5974
 3586TIP3   OH232172   0.128   4.626  12.094 -0.3457  0.3921 -0.1367
 3586TIP3    H132173   0.065   4.613  12.164 -0.8733 -2.1171 -1.0299
 3586TIP3    H232174   0.213   4.619  12.137 -0.6669 -0.7562  0.3344
 3587TIP3   OH232175   1.209   4.700  13.201 -0.2449 -0.3394  0.2823
 3587TIP3    H132176   1.245   4.789  13.198  1.9043 -1.2232 -1.3991
 3587TIP3    H232177   1.207   4.671  13.110 -5.1536 -0.4555  0.2811
 3588TIP3   OH232178   1.852   4.747   5.650 -0.6092  0.0650  0.3682
 3588TIP3    H132179   1.837   4.724   5.742  1.1878  0.5228  0.8067
 3588TIP3    H232180   1.943   4.721   5.633 -1.1874 -0.7806 -1.5352
 3589TIP3   OH232181   4.220   3.468   3.828  0.5683 -0.0422  0.2979
 3589TIP3    H132182   4.293   3.511   3.783  0.7737 -1.1565 -0.4604
 3589TIP3    H232183   4.165   3.434   3.757 -0.1213 -0.1638  0.8783
 3590TIP3   OH232184   5.106   6.458  13.878  0.1571  0.2180 -0.4390
 3590TIP3    H132185   5.154   6.465  13.796  0.4027 -0.7422 -0.3926
 3590TIP3    H232186   5.048   6.382  13.865 -1.8877  1.7778 -0.7586
 3591TIP3   OH232187   0.991   2.790  15.132  0.2797  0.0527 -0.3119
 3591TIP3    H132188   1.033   2.787  15.047  3.1114 -1.0589  1.0417
 3591TIP3    H232189   1.046   2.849  15.184 -1.7702  1.2300  0.5454
 3592TIP3   OH232190   5.346   1.684   1.905 -0.1095  0.3087 -0.8864
 3592TIP3    H132191   5.407   1.667   1.834  0.1687  1.8602 -1.0386
 3592TIP3    H232192   5.397   1.671   1.985 -0.5608 -1.9655 -0.9211
 3593TIP3   OH232193   4.511   0.716  10.397 -0.0995 -0.0994 -0.2565
 3593TIP3    H132194   4.579   0.703  10.463 -0.9846  0.8411  0.8465
 3593TIP3    H232195   4.526   0.804  10.363 -0.3605 -0.1463 -0.4989
 3594TIP3   OH232196   0.194   5.900  10.470  0.3719 -0.0417  0.5528
 3594TIP3    H132197   0.256   5.903  10.543  0.4850 -0.8353  0.4937
 3594TIP3    H232198   0.170   5.808  10.463  1.0060 -0.1034 -0.9532
 3595TIP3   OH232199   1.310   5.135   4.430 -0.2990 -0.2424 -0.2746
 3595TIP3    H132200   1.226   5.110   4.392 -0.0347 -0.8515 -0.4792
 3595TIP3    H232201   1.375   5.108   4.364 -0.0922  2.7181 -1.3566
 3596TIP3   OH232202   4.777   0.670   3.138 -0.5863 -0.6755  0.0443
 3596TIP3    H132203   4.718   0.684   3.064  1.3719  0.4875 -1.3418
 3596TIP3    H232204   4.816   0.584   3.121 -0.6987 -0.7352  0.0949
 3597TIP3   OH232205   2.398   0.805  14.170 -0.1249  0.0991 -0.1085
 3597TIP3    H132206   2.472   0.823  14.228 -0.5064  0.1459  0.3579
 3597TIP3    H232207   2.328   0.776  14.228 -0.9671  1.5234 -0.4002
 3598TIP3   OH232208   4.953   5.074   4.436 -0.0627 -0.5675 -0.0491
 3598TIP3    H132209   5.021   5.139   4.418 -1.5123  0.9489 -0.1488
 3598TIP3    H232210   4.993   5.015   4.501  1.7406 -0.4039 -0.9606
 3599TIP3   OH232211   1.772   4.113  14.628 -0.0712 -0.4029 -0.2637
 3599TIP3    H132212   1.764   4.193  14.680 -1.7864 -0.8457  0.1999
 3599TIP3    H232213   1.856   4.076  14.653 -0.4393 -0.1036  1.4945
 3600TIP3   OH232214   5.100   4.591   0.399 -0.0655 -0.3471 -0.4042
 3600TIP3    H132215   5.095   4.520   0.463  0.7126 -0.7870 -0.8261
 3600TIP3    H232216   5.115   4.547   0.316 -1.1022  0.2189 -0.9101
 3601TIP3   OH232217   6.608   6.276   2.631  0.0067 -0.2487  0.2483
 3601TIP3    H132218   6.622   6.364   2.597 -0.7610 -0.4062 -0.4553
 3601TIP3    H232219   6.640   6.218   2.562  0.8579 -0.5259  0.8614
 3602TIP3   OH232220   5.114   4.207  11.658 -0.0742 -0.5714 -0.3737
 3602TIP3    H132221   5.081   4.159  11.734  0.6543  0.6735  0.7592
 3602TIP3    H232222   5.097   4.150  11.584 -0.4002 -2.0078  0.7888
 3603TIP3   OH232223   6.449   5.522   5.512 -0.1091 -0.2778  0.8220
 3603TIP3    H132224   6.445   5.461   5.439 -0.7219 -1.4802  1.8382
 3603TIP3    H232225   6.536   5.509   5.550  0.0369  0.0150  0.5865
 3604TIP3   OH232226   6.756   4.057   4.562 -0.2230  0.4766 -0.0391
 3604TIP3    H132227   6.810   4.113   4.506  3.3778 -0.8035  1.9699
 3604TIP3    H232228   6.807   3.977   4.573 -2.3855 -0.6687  2.2411
 3605TIP3   OH232229   2.128   1.420  13.659 -0.2086  0.7364 -0.7245
 3605TIP3    H132230   2.056   1.374  13.616 -1.1202  1.4966 -0.0170
 3605TIP3    H232231   2.119   1.399  13.752  0.4221  0.9198 -0.6186
 3606TIP3   OH232232   1.191   3.463   5.729  0.4839 -0.0498 -0.1857
 3606TIP3    H132233   1.174   3.486   5.638  2.6420  2.2914 -0.0675
 3606TIP3    H232234   1.280   3.427   5.728  0.6611  0.3396  1.0559
 3607TIP3   OH232235   5.640   0.107   5.969 -0.1327  0.1654 -0.5705
 3607TIP3    H132236   5.662   0.103   6.062  0.7535  1.7947 -0.6990
 3607TIP3    H232237   5.605   0.195   5.957  2.9238  1.1864 -2.4570
 3608TIP3   OH232238   0.344   1.693   1.684  0.4850  0.0577  0.0315
 3608TIP3    H132239   0.271   1.638   1.713 -0.8582  1.3012 -0.9250
 3608TIP3    H232240   0.422   1.650   1.720 -0.6954 -1.3598  0.9646
 3609TIP3   OH232241   3.463   0.628  11.442  0.0148 -0.1568  0.2651
 3609TIP3    H132242   3.533   0.573  11.478  0.2578 -1.2501 -1.8291
 3609TIP3    H232243   3.390   0.569  11.427 -0.5082  0.5244  0.0783
 3610TIP3   OH232244   6.019   3.301  11.887  0.2416  0.4254 -0.1366
 3610TIP3    H132245   6.033   3.256  11.971  0.8342 -0.4941 -0.7187
 3610TIP3    H232246   6.079   3.257  11.826 -2.2853 -0.9361 -1.7478
 3611TIP3   OH232247   0.543   2.010   0.440 -0.1317  0.1065  0.3342
 3611TIP3    H132248   0.460   2.048   0.414 -0.7938 -0.7781  1.1129
 3611TIP3    H232249   0.558   2.042   0.529  1.1694  1.5689 -0.3823
 3612TIP3   OH232250   3.831   0.957  15.386  0.7227 -0.5529  0.5198
 3612TIP3    H132251   3.917   0.914  15.387  0.2214 -1.5920  0.0848
 3612TIP3    H232252   3.781   0.913  15.456  0.5011 -0.0270  0.7012
 3613TIP3   OH232253   1.685   6.296   0.822 -0.4857  0.6299  0.8079
 3613TIP3    H132254   1.606   6.343   0.851 -0.8177  0.0996  0.7625
 3613TIP3    H232255   1.754   6.363   0.823 -1.0121  1.1841  0.4883
 3614TIP3   OH232256   4.085   1.432   2.716  0.2199  0.0632  0.3224
 3614TIP3    H132257   4.010   1.482   2.685 -0.3053 -0.2206  1.0999
 3614TIP3    H232258   4.051   1.343   2.727  1.0951 -0.4327 -0.8785
 3615TIP3   OH232259   5.701   3.646  13.074  0.5899  0.4440 -0.1500
 3615TIP3    H132260   5.777   3.651  13.016  0.9963  1.1808  0.4389
 3615TIP3    H232261   5.695   3.733  13.113 -0.6776  0.4574 -0.3453
 3616TIP3   OH232262   5.699   0.630   2.352  0.1515  0.2665  0.1794
 3616TIP3    H132263   5.619   0.615   2.303 -0.0965 -0.3236  0.7525
 3616TIP3    H232264   5.701   0.559   2.417  0.9683  0.4612  0.3769
 3617TIP3   OH232265   1.980   5.640   1.722  0.3335  0.2482 -0.0008
 3617TIP3    H132266   2.054   5.579   1.726 -0.5229 -0.8663 -0.9599
 3617TIP3    H232267   1.902   5.585   1.728 -0.4323  1.3966  0.8043
 3618TIP3   OH232268   5.982   5.883   4.629  0.0390 -0.4911 -0.8397
 3618TIP3    H132269   6.049   5.814   4.631  0.5410  0.0119 -0.2294
 3618TIP3    H232270   5.911   5.849   4.683 -0.0260 -0.8477 -1.1467
 3619TIP3   OH232271   6.347   5.159   1.295 -0.1927  0.0950 -0.2055
 3619TIP3    H132272   6.348   5.250   1.266  1.6562 -0.2611 -1.3088
 3619TIP3    H232273   6.419   5.154   1.359 -0.0650 -0.6713 -0.4081
 3620TIP3   OH232274   0.661   2.926  11.124  0.0790 -0.0593 -0.3440
 3620TIP3    H132275   0.602   2.983  11.173  1.0603  1.2346 -0.6387
 3620TIP3    H232276   0.746   2.971  11.127  0.8095 -1.3796 -0.7943
 3621TIP3   OH232277   2.226   2.049   4.343  0.0733 -0.6523 -0.2768
 3621TIP3    H132278   2.170   2.126   4.342  0.7189 -0.1762 -0.4457
 3621TIP3    H232279   2.176   1.982   4.389 -0.7966 -0.3630 -0.7924
 3622TIP3   OH232280   0.695   4.539  14.966 -0.2435 -0.5288  0.3176
 3622TIP3    H132281   0.759   4.504  14.905 -1.1965 -0.4548 -0.7350
 3622TIP3    H232282   0.734   4.527  15.052  1.0057 -0.8394 -0.2943
 3623TIP3   OH232283   5.064   1.791   4.251  0.3452  0.3080  0.4057
 3623TIP3    H132284   4.988   1.761   4.201  0.7346 -0.5848  0.3529
 3623TIP3    H232285   5.026   1.849   4.318 -0.4974 -0.9770  1.0636
 3624TIP3   OH232286   0.703   1.749  16.737  0.1496  0.4131 -0.2916
 3624TIP3    H132287   0.704   1.679  16.801  1.2712  0.2780 -0.4493
 3624TIP3    H232288   0.619   1.793  16.750 -0.0833 -0.2785  0.5389
 3625TIP3   OH232289   1.073   1.449   3.064  0.0374 -0.1600  0.4016
 3625TIP3    H132290   1.040   1.385   3.126 -0.0984 -1.1206 -0.6608
 3625TIP3    H232291   0.995   1.479   3.017  0.3174 -0.4261 -0.2307
 3626TIP3   OH232292   0.667   2.691  14.465 -0.4913 -0.7470 -0.7815
 3626TIP3    H132293   0.642   2.611  14.512 -1.3166 -0.2562 -0.3781
 3626TIP3    H232294   0.661   2.666  14.373 -0.0154 -1.3686 -0.6531
 3627TIP3   OH232295   3.392   6.464  15.932  0.0885  0.2234 -0.1573
 3627TIP3    H132296   3.445   6.543  15.931 -2.8320  2.2699 -2.3327
 3627TIP3    H232297   3.320   6.483  15.992  0.1580 -1.3435  0.4408
 3628TIP3   OH232298   1.753   3.219   5.661 -0.1143  0.3501 -0.2050
 3628TIP3    H132299   1.796   3.137   5.638 -1.3727 -0.3199 -0.2174
 3628TIP3    H232300   1.724   3.254   5.576 -0.4468  0.3131 -0.1067
 3629TIP3   OH232301   0.416   3.184   2.933 -0.2890 -0.5996  0.3541
 3629TIP3    H132302   0.335   3.233   2.915 -0.3683 -1.6027 -2.3067
 3629TIP3    H232303   0.486   3.247   2.918 -0.5350 -0.0538  1.4811
 3630TIP3   OH232304   5.568   1.958   1.282 -0.7825 -0.0128 -0.3518
 3630TIP3    H132305   5.642   2.017   1.267  0.3005 -1.5111 -1.0858
 3630TIP3    H232306   5.541   1.975   1.372  0.9218  0.0575  0.1659
 3631TIP3   OH232307   3.687   5.479  15.837  0.1114  0.5187 -0.1081
 3631TIP3    H132308   3.695   5.477  15.933 -0.7374  1.2303 -0.0159
 3631TIP3    H232309   3.726   5.562  15.812  3.1333 -1.0053 -0.6809
 3632TIP3   OH232310   6.451   0.750  17.030 -0.3514  0.4098  0.3414
 3632TIP3    H132311   6.418   0.714  17.112  0.7448 -0.0145  0.5972
 3632TIP3    H232312   6.467   0.843  17.049 -1.0567  0.5340  0.3143
 3633TIP3   OH232313   4.844   6.556  13.866 -0.2389  0.1028 -0.1290
 3633TIP3    H132314   4.937   6.570  13.884 -0.2409  2.0125 -1.4812
 3633TIP3    H232315   4.805   6.536  13.952  1.3843 -0.6234  0.4490
 3634TIP3   OH232316   1.247   3.182  13.696  0.4134  0.0306 -0.2622
 3634TIP3    H132317   1.162   3.210  13.664  0.5918  0.5617 -0.2663
 3634TIP3    H232318   1.279   3.256  13.748  1.5234  0.4021 -1.4759
 3635TIP3   OH232319   6.010   5.439   5.223  0.5676 -0.0070  0.0603
 3635TIP3    H132320   6.069   5.379   5.178  1.6403  1.1439 -0.1139
 3635TIP3    H232321   5.952   5.383   5.274  1.8467 -1.1634  0.2766
 3636TIP3   OH232322   5.267   4.177   3.237 -0.0115  0.5921 -0.2566
 3636TIP3    H132323   5.280   4.256   3.290 -2.9165  0.8393  0.1586
 3636TIP3    H232324   5.288   4.105   3.296 -3.2391  0.8677  1.3670
 3637TIP3   OH232325   6.474   2.999   3.214  0.0688  0.1932 -0.0740
 3637TIP3    H132326   6.428   3.075   3.249  0.1711 -0.2840  1.1217
 3637TIP3    H232327   6.448   2.995   3.122  0.6615  2.1151 -0.3455
 3638TIP3   OH232328   3.556   1.806   0.326 -0.0815 -0.1452 -0.0189
 3638TIP3    H132329   3.619   1.746   0.366 -0.6622 -0.0028  1.1501
 3638TIP3    H232330   3.485   1.812   0.390 -1.7936 -1.1297 -1.7568
 3639TIP3   OH232331   0.094   5.689   5.986 -0.3686 -0.1605  0.3375
 3639TIP3    H132332   0.176   5.699   5.939  0.0167  0.2355  1.0759
 3639TIP3    H232333   0.103   5.747   6.062 -1.8247  0.8611 -0.2341
 3640TIP3   OH232334   3.880   0.175   3.158  0.2228 -0.3776 -0.0599
 3640TIP3    H132335   3.858   0.085   3.184  1.3270 -0.0054  2.2489
 3640TIP3    H232336   3.806   0.227   3.190 -1.0289 -0.5805 -2.5028
 3641TIP3   OH232337   4.092   1.870  14.984  0.0743 -0.3076  0.6543
 3641TIP3    H132338   4.028   1.935  14.956 -2.3611 -2.1219  1.8363
 3641TIP3    H232339   4.115   1.896  15.074 -0.1853 -0.5491  0.7909
 3642TIP3   OH232340   5.474   6.425  16.060  0.2157  0.0738  0.3649
 3642TIP3    H132341   5.450   6.345  16.013 -2.0064  1.8079 -1.6191
 3642TIP3    H232342   5.464   6.494  15.995  1.0450  2.0912  2.3322
 3643TIP3   OH232343   3.470   0.494   3.365  0.3554 -0.1580  0.4629
 3643TIP3    H132344   3.384   0.492   3.324  0.9408  1.5908 -0.8637
 3643TIP3    H232345   3.464   0.427   3.434 -1.6213 -0.9734 -0.4428
 3644TIP3   OH232346   4.712   4.323  15.154  0.2232  0.0268  0.5140
 3644TIP3    H132347   4.742   4.409  15.125 -1.8012  1.0737  1.4087
 3644TIP3    H232348   4.682   4.280  15.073  0.0846  0.6539  0.2266
 3645TIP3   OH232349   3.668   0.345   3.215  0.5136  0.5303  0.0337
 3645TIP3    H132350   3.670   0.384   3.128 -0.2479  0.7293  0.1044
 3645TIP3    H232351   3.602   0.394   3.262 -0.8029 -1.1330 -0.0179
 3646TIP3   OH232352   3.492   0.759  11.095 -0.0940 -0.2387 -0.7379
 3646TIP3    H132353   3.463   0.799  11.013 -1.5261  0.7504  0.2317
 3646TIP3    H232354   3.425   0.694  11.115 -0.2965  0.2327  0.1577
 3647TIP3   OH232355   3.308   1.418   3.874 -0.0959  0.2091  0.0863
 3647TIP3    H132356   3.328   1.484   3.941 -0.7792  0.7771 -0.2576
 3647TIP3    H232357   3.361   1.343   3.897  1.4284  1.2291 -0.0631
 3648TIP3   OH232358   6.331   6.600  10.612  0.2832  0.6454  0.1847
 3648TIP3    H132359   6.407   6.615  10.556 -1.1896  0.4943 -1.9068
 3648TIP3    H232360   6.260   6.647  10.569 -1.3080 -1.0402  0.9081
 3649TIP3   OH232361   2.518   1.650  12.896  0.1556 -0.3140 -0.4560
 3649TIP3    H132362   2.546   1.605  12.976  0.2142 -1.0754 -0.8957
 3649TIP3    H232363   2.594   1.702  12.870  0.6634 -1.2199 -0.8257
 3650TIP3   OH232364   0.774   3.103  10.841  0.3817  0.7404  0.2802
 3650TIP3    H132365   0.771   3.043  10.766 -0.4264 -0.5629  1.3197
 3650TIP3    H232366   0.864   3.134  10.844  0.6052  0.2286 -0.7740
 3651TIP3   OH232367   1.627   3.557  11.607  0.2979 -0.3691 -0.1212
 3651TIP3    H132368   1.699   3.619  11.604 -1.3618  1.6110 -0.0836
 3651TIP3    H232369   1.634   3.516  11.694  1.1199  0.0848  0.0272
 3652TIP3   OH232370   5.118   0.443  11.442 -0.1575 -0.0562  0.3139
 3652TIP3    H132371   5.156   0.524  11.476 -0.6410  0.3961 -0.2197
 3652TIP3    H232372   5.150   0.375  11.502  1.1334  0.3718  0.1374
 3653TIP3   OH232373   1.152   6.761   4.880  0.2769 -0.2767 -0.1743
 3653TIP3    H132374   1.178   6.698   4.813 -1.6622 -0.2972 -0.9527
 3653TIP3    H232375   1.111   6.709   4.948  0.6261 -0.0702  0.1965
 3654TIP3   OH232376   3.586   2.278  14.910 -0.0186 -1.0646 -0.1697
 3654TIP3    H132377   3.537   2.346  14.957  0.6350 -0.7566  0.0668
 3654TIP3    H232378   3.522   2.241  14.849 -0.6063 -0.8067  0.2846
 3655TIP3   OH232379   1.051   0.054  15.113 -0.5313  0.5068  0.6447
 3655TIP3    H132380   1.085   0.120  15.052  0.1761 -0.2734  0.1921
 3655TIP3    H232381   0.966   0.029  15.077  0.0868 -0.2869 -0.2818
 3656TIP3   OH232382   0.669   3.178  16.866 -0.5421 -0.1341  0.3277
 3656TIP3    H132383   0.678   3.264  16.825 -1.3358 -0.2986 -0.2053
 3656TIP3    H232384   0.648   3.198  16.957 -0.9229  0.2507  0.1649
 3657TIP3   OH232385   6.778   4.935  11.218  0.1193 -0.1471 -0.1089
 3657TIP3    H132386   6.719   4.992  11.267  0.3123  0.9214 -1.0867
 3657TIP3    H232387   6.741   4.932  11.130  0.4747 -1.0048 -0.2294
 3658TIP3   OH232388   1.873   0.872   1.209  0.4174  0.1384  0.4591
 3658TIP3    H132389   1.939   0.932   1.173 -0.7089  0.1875 -1.6036
 3658TIP3    H232390   1.921   0.791   1.227  1.3578  0.6953  0.4991
 3659TIP3   OH232391   4.173   2.080  13.658 -0.2610  0.0090 -0.0015
 3659TIP3    H132392   4.243   2.072  13.723 -0.9081 -1.4830  0.5438
 3659TIP3    H232393   4.180   2.000  13.606 -0.1456  0.9114 -1.3753
 3660TIP3   OH232394   0.334   3.780  13.398 -0.3426 -0.5935  0.0736
 3660TIP3    H132395   0.404   3.745  13.342 -2.6859  0.9693 -4.0679
 3660TIP3    H232396   0.351   3.874  13.402 -1.8713 -0.2650 -0.6105
 3661TIP3   OH232397   3.702   6.548   0.901  0.2977  0.0623 -0.2133
 3661TIP3    H132398   3.758   6.626   0.896  0.7313 -0.3052 -1.0907
 3661TIP3    H232399   3.617   6.579   0.871  0.0964  0.5429  0.8155
 3662TIP3   OH232400   2.379   6.119  12.314  0.5943  0.2647  0.5826
 3662TIP3    H132401   2.324   6.137  12.391  0.7882 -0.7905  0.9665
 3662TIP3    H232402   2.352   6.185  12.250 -2.7707 -1.6463 -0.0835
 3663TIP3   OH232403   6.505   5.556  13.076  0.6849  0.3208 -0.3280
 3663TIP3    H132404   6.530   5.527  13.164 -2.6299 -0.3381  0.4890
 3663TIP3    H232405   6.553   5.498  13.017  1.8809 -0.1509  1.0679
 3664TIP3   OH232406   6.311   5.004  10.839 -0.2384 -0.2109 -0.5846
 3664TIP3    H132407   6.292   4.935  10.775 -0.2300 -0.0764 -0.7294
 3664TIP3    H232408   6.341   5.078  10.787 -0.3343 -0.0656 -0.4332
 3665TIP3   OH232409   6.664   0.334   4.535 -0.1739  0.1026 -0.6582
 3665TIP3    H132410   6.710   0.331   4.619 -1.1998  0.5982 -0.0664
 3665TIP3    H232411   6.672   0.245   4.500  2.2247  0.4615 -1.1240
 3666TIP3   OH232412   4.852   6.545   0.681 -0.0869 -0.5864 -0.0827
 3666TIP3    H132413   4.785   6.596   0.726  0.3472  0.6210 -0.7762
 3666TIP3    H232414   4.922   6.534   0.745  0.3747  0.8157 -0.3282
 3667TIP3   OH232415   4.848   4.663  15.739 -0.1865 -0.3558 -0.1322
 3667TIP3    H132416   4.824   4.618  15.659  0.6560 -3.3094  1.2369
 3667TIP3    H232417   4.943   4.673  15.735  0.1284 -2.4300  1.4212
 3668TIP3   OH232418   2.433   6.534   2.548 -0.2519  0.0693  0.1246
 3668TIP3    H132419   2.488   6.477   2.494  1.7475  1.7222  0.3413
 3668TIP3    H232420   2.380   6.583   2.486  1.0059  0.9250 -0.2959
 3669TIP3   OH232421   5.769   4.046   5.456 -0.4698  0.3352 -0.1400
 3669TIP3    H132422   5.691   4.096   5.430 -1.2543 -0.6946  0.2368
 3669TIP3    H232423   5.750   4.014   5.544  1.2333  1.8102  0.8057
 3670TIP3   OH232424   1.659   3.020  16.672  0.4250 -0.2159  0.6284
 3670TIP3    H132425   1.597   2.972  16.727  0.8612 -1.4966  0.0286
 3670TIP3    H232426   1.667   2.967  16.593 -0.3256  1.6932 -0.7634
 3671TIP3   OH232427   6.226   6.067   3.485 -0.6471  0.3684 -0.3892
 3671TIP3    H132428   6.258   6.143   3.533 -1.9547 -0.1979  1.4547
 3671TIP3    H232429   6.151   6.099   3.434 -1.8830  0.1293  1.2288
 3672TIP3   OH232430   4.919   4.747   0.850 -0.1189  0.0685  0.1412
 3672TIP3    H132431   4.986   4.770   0.914  1.3973 -0.5957 -1.1484
 3672TIP3    H232432   4.904   4.653   0.864  0.4002 -0.1373 -0.6004
 3673TIP3   OH232433   5.641   4.243   6.320 -0.3726 -0.4306 -0.6256
 3673TIP3    H132434   5.635   4.155   6.283 -0.2704 -0.4660 -0.5571
 3673TIP3    H232435   5.654   4.229   6.414 -2.0324 -0.3283 -0.3574
 3674TIP3   OH232436   0.951   5.595   6.328  0.6212  0.0892 -0.4536
 3674TIP3    H132437   0.885   5.535   6.363  0.0776  1.3015  0.6223
 3674TIP3    H232438   0.993   5.631   6.406 -1.5870  3.9572 -0.9529
 3675TIP3   OH232439   3.050   6.721   2.259 -0.3583  0.4804 -0.0060
 3675TIP3    H132440   3.073   6.633   2.228 -2.3274 -0.0435 -0.0509
 3675TIP3    H232441   2.995   6.705   2.335  0.1531  1.7065  0.6193
 3676TIP3   OH232442   5.378   1.177   2.060  0.3480 -0.1613  0.8214
 3676TIP3    H132443   5.330   1.145   2.136 -0.9177  1.9935  0.9863
 3676TIP3    H232444   5.319   1.163   1.986 -0.0777  1.3483  0.8445
 3677TIP3   OH232445   0.559   5.664   1.832  0.1278 -0.3836 -0.0791
 3677TIP3    H132446   0.495   5.601   1.799  0.0379 -0.6106  0.5259
 3677TIP3    H232447   0.601   5.699   1.753 -0.1329 -0.8690 -0.4363
 3678TIP3   OH232448   0.183   1.186  17.166  0.3430 -0.2594  0.1893
 3678TIP3    H132449   0.117   1.117  17.157  1.1668 -0.9898 -0.3131
 3678TIP3    H232450   0.144   1.248  17.228 -1.5980  0.2618 -1.4726
 3679TIP3   OH232451   6.332   1.729  13.548  0.1428 -0.1542  0.4176
 3679TIP3    H132452   6.417   1.767  13.570 -1.0464  4.6729 -2.5033
 3679TIP3    H232453   6.281   1.736  13.628  1.1091  1.1258  0.9407
 3680TIP3   OH232454   2.857   5.239  12.761  0.2686 -1.0036  0.4901
 3680TIP3    H132455   2.950   5.261  12.763  0.0252  0.0001  0.6745
 3680TIP3    H232456   2.843   5.200  12.674  0.3296  1.1821 -0.5195
 3681TIP3   OH232457   1.629   4.914   1.582  0.2334  0.6995  0.0000
 3681TIP3    H132458   1.652   4.964   1.660  2.5526 -0.6548  0.2612
 3681TIP3    H232459   1.551   4.864   1.607  0.1665  1.2917  0.9918
 3682TIP3   OH232460   2.098   5.266   1.456  0.5380 -0.1867 -0.3611
 3682TIP3    H132461   2.017   5.230   1.491  0.7849 -1.5424 -1.1375
 3682TIP3    H232462   2.162   5.256   1.527  0.4574 -0.7560 -0.3667
 3683TIP3   OH232463   1.591   6.313  11.757  0.4084  0.1470 -0.5052
 3683TIP3    H132464   1.528   6.336  11.688 -1.1506 -0.2839  0.7437
 3683TIP3    H232465   1.667   6.279  11.709  0.2251  1.8998 -2.1008
 3684TIP3   OH232466   3.356   0.372   4.871 -0.5453  0.1231  0.0277
 3684TIP3    H132467   3.398   0.449   4.831 -0.8939  0.6180  0.6081
 3684TIP3    H232468   3.359   0.390   4.965 -1.8226  0.0355  0.0840
 3685TIP3   OH232469   4.752   2.261   5.963  0.1353 -0.0940 -0.4108
 3685TIP3    H132470   4.745   2.347   5.921 -2.0293 -0.5646 -1.0727
 3685TIP3    H232471   4.767   2.281   6.056 -0.0417  0.9960 -0.6060
 3686TIP3   OH232472   1.818   1.325  15.344  0.1810 -0.3302 -0.1291
 3686TIP3    H132473   1.906   1.330  15.308  1.2301 -1.4774  2.1766
 3686TIP3    H232474   1.827   1.352  15.436 -1.7652 -0.8939  0.2694
 3687TIP3   OH232475   3.923   2.159   2.000 -0.4613  0.3180  0.4400
 3687TIP3    H132476   3.975   2.237   1.982  0.1083  0.1787  1.4743
 3687TIP3    H232477   3.951   2.131   2.087 -1.1364 -0.6606  0.3448
 3688TIP3   OH232478   4.719   1.259  13.322 -0.0158  0.2678 -0.2661
 3688TIP3    H132479   4.727   1.165  13.338 -4.5958 -0.1459  0.3423
 3688TIP3    H232480   4.721   1.298  13.409 -0.7113  0.4445 -0.3249
 3689TIP3   OH232481   6.659   3.217   5.798  0.2216  0.1045 -0.0177
 3689TIP3    H132482   6.719   3.168   5.855  0.1406  1.4866  1.2755
 3689TIP3    H232483   6.587   3.242   5.856 -0.9590 -0.3939 -1.2608
 3690TIP3   OH232484   5.337   2.944   0.766  0.2534 -0.9207  0.2390
 3690TIP3    H132485   5.386   2.981   0.839 -1.3294 -0.1830  0.9659
 3690TIP3    H232486   5.306   3.021   0.716 -0.8556 -1.3305  0.2783
 3691TIP3   OH232487   2.849   4.853  13.430  0.0006  0.1568 -0.3606
 3691TIP3    H132488   2.805   4.779  13.470 -3.1258  2.5446  0.8251
 3691TIP3    H232489   2.894   4.896  13.503  1.1298 -0.0788 -0.9018
 3692TIP3   OH232490   3.444   0.472  12.512  0.3836 -0.7617 -0.6463
 3692TIP3    H132491   3.533   0.502  12.490  0.7319 -0.4317  1.0862
 3692TIP3    H232492   3.450   0.377  12.510  1.2183 -0.7643  1.0300
 3693TIP3   OH232493   6.084   3.224   0.615 -0.3286  0.4608 -0.5320
 3693TIP3    H132494   6.033   3.213   0.535 -1.3065  0.3373  0.0838
 3693TIP3    H232495   6.156   3.161   0.607 -1.8310 -1.3680 -0.2174
 3694TIP3   OH232496   3.756   6.768   4.880 -0.2886 -0.3701 -0.2337
 3694TIP3    H132497   3.743   6.796   4.971  1.7216  0.6776 -0.2359
 3694TIP3    H232498   3.683   6.709   4.862 -1.7860  0.9292  1.4378
 3695TIP3   OH232499   5.028   1.782  12.327  0.2033  0.5491 -0.3057
 3695TIP3    H132500   4.950   1.820  12.287  0.1597  2.4878  1.5280
 3695TIP3    H232501   5.009   1.688  12.332 -2.2015  1.0332  0.4927
 3696TIP3   OH232502   2.796   1.237   5.579 -0.1325  0.3608 -0.6566
 3696TIP3    H132503   2.881   1.193   5.575 -0.5384 -0.3306 -2.2685
 3696TIP3    H232504   2.735   1.174   5.542 -1.4626  0.6304  1.0214
 3697TIP3   OH232505   4.860   0.642   4.468  0.9206  0.2821  0.0094
 3697TIP3    H132506   4.819   0.712   4.417  1.1689  1.0167  0.8056
 3697TIP3    H232507   4.953   0.666   4.472  0.9002  0.2500  0.8362
 3698TIP3   OH232508   0.314   5.287  14.405 -0.0027  0.1743 -0.0556
 3698TIP3    H132509   0.319   5.261  14.313  2.2213  0.1098  0.0651
 3698TIP3    H232510   0.339   5.379  14.405  0.6983 -0.0139  0.5690
 3699TIP3   OH232511   0.919   0.361   4.552 -0.3543 -0.6084  0.4341
 3699TIP3    H132512   0.865   0.359   4.631  1.5100 -1.5526  1.7283
 3699TIP3    H232513   1.009   0.363   4.584  0.5856 -4.0715 -1.6110
 3700TIP3   OH232514   4.277   2.174  12.447  0.2069  0.0563 -0.2791
 3700TIP3    H132515   4.318   2.248  12.402  0.3454  0.4686  0.5089
 3700TIP3    H232516   4.259   2.207  12.535 -0.6227 -0.5415 -0.2212
 3701TIP3   OH232517   3.466   1.023   4.139  0.3837 -0.0288  0.3974
 3701TIP3    H132518   3.511   0.940   4.155  0.7903 -0.1964 -1.4417
 3701TIP3    H232519   3.373   1.000   4.140  0.4831 -0.4508  0.2826
 3702TIP3   OH232520   1.689   2.620  11.349  0.2418  0.0408  0.7975
 3702TIP3    H132521   1.715   2.595  11.260 -1.4077 -0.7262  0.5143
 3702TIP3    H232522   1.606   2.574  11.364 -0.6073  1.8555  1.9307
 3703TIP3   OH232523   6.502   2.727  15.860  0.1239  0.4770  0.5112
 3703TIP3    H132524   6.478   2.798  15.799 -0.5032  1.1743  1.5438
 3703TIP3    H232525   6.597   2.721  15.853  0.1557  1.2221  0.1823
 3704TIP3   OH232526   4.021   3.888  11.500 -0.8080 -0.3444 -0.4923
 3704TIP3    H132527   4.083   3.883  11.428 -0.2856 -1.3999  0.0264
 3704TIP3    H232528   3.939   3.853  11.464 -0.4415 -1.2367 -0.4514
 3705TIP3   OH232529   5.276   2.945   3.569  0.1539  0.1468 -0.7691
 3705TIP3    H132530   5.204   3.007   3.571  0.2182  0.2894 -2.0067
 3705TIP3    H232531   5.352   2.998   3.545  0.4915 -0.1617 -0.3931
 3706TIP3   OH232532   1.026   3.136  15.182  0.4564  0.2103  0.0306
 3706TIP3    H132533   0.999   3.127  15.274 -2.5793 -1.4927 -0.9525
 3706TIP3    H232534   1.027   3.231  15.167  0.1419  0.4824  1.5782
 3707TIP3   OH232535   4.936   6.292   0.649  1.1230 -0.0910 -0.8862
 3707TIP3    H132536   4.992   6.293   0.727 -1.4487  1.2862  1.0195
 3707TIP3    H232537   4.912   6.384   0.636 -2.4476 -0.8552 -0.2807
 3708TIP3   OH232538   4.838   5.950  14.682  0.5511 -0.2647  0.2247
 3708TIP3    H132539   4.745   5.964  14.698  0.6006  0.0285  0.2605
 3708TIP3    H232540   4.866   5.891  14.752  0.0277 -1.7147 -0.7490
 3709TIP3   OH232541   6.622   3.806   3.619 -0.0295  0.6606 -0.1235
 3709TIP3    H132542   6.595   3.808   3.527  1.7907  0.9883 -0.6704
 3709TIP3    H232543   6.568   3.873   3.662 -0.9330  0.4571 -0.9316
 3710TIP3   OH232544   1.264   4.404   5.857 -0.1167  0.4037  0.1649
 3710TIP3    H132545   1.274   4.477   5.797  1.9031  0.2963  0.3478
 3710TIP3    H232546   1.169   4.396   5.869 -0.3858  2.6892 -0.2037
 3711TIP3   OH232547   5.997   1.763   1.435  0.0311  0.1712 -0.4827
 3711TIP3    H132548   6.048   1.683   1.420 -1.0289 -0.1587 -2.5571
 3711TIP3    H232549   5.954   1.780   1.351 -1.1365  1.9514  0.4412
 3712TIP3   OH232550   5.372   4.087   4.532  0.1339 -0.0378 -0.0142
 3712TIP3    H132551   5.436   4.150   4.498 -1.8998  1.3019 -1.4722
 3712TIP3    H232552   5.406   4.001   4.505  0.9824  0.7014 -1.3429
 3713TIP3   OH232553   2.415   4.655   1.756  0.1695 -0.3605  0.2292
 3713TIP3    H132554   2.511   4.647   1.761  0.2717  0.5274 -0.2705
 3713TIP3    H232555   2.386   4.567   1.733  1.1307  0.1285 -3.1000
 3714TIP3   OH232556   2.652   5.006   2.082 -0.1111 -0.3770  0.2972
 3714TIP3    H132557   2.561   5.033   2.091  0.0560 -0.2372  1.7036
 3714TIP3    H232558   2.688   5.013   2.170  1.5031  0.4119 -0.4105
 3715TIP3   OH232559   1.065   5.516  11.346 -0.0415  1.0151 -0.1039
 3715TIP3    H132560   0.977   5.491  11.317 -0.4493  0.8377  1.2720
 3715TIP3    H232561   1.052   5.591  11.403  0.6583  0.7272  0.4471
 3716TIP3   OH232562   0.819   6.196  12.651 -0.1608  0.1979  0.4939
 3716TIP3    H132563   0.890   6.136  12.675  0.7772  1.0755 -0.0681
 3716TIP3    H232564   0.819   6.262  12.720 -0.0301  0.5375  0.1692
 3717TIP3   OH232565   4.274   5.886  16.977  0.4215  0.0010  0.0728
 3717TIP3    H132566   4.256   5.928  16.893 -0.2307 -0.0726  0.1698
 3717TIP3    H232567   4.366   5.862  16.973 -0.1502 -2.0878 -1.5670
 3718TIP3   OH232568   0.458   4.677  13.838  0.7664  0.0053  0.3584
 3718TIP3    H132569   0.396   4.733  13.790  1.3941  1.1325  0.8602
 3718TIP3    H232570   0.502   4.627  13.769 -0.0801 -0.1655 -0.0663
 3719TIP3   OH232571   6.540   0.516  15.624  0.0683 -0.0971 -0.1371
 3719TIP3    H132572   6.495   0.439  15.659 -0.5888  0.1874 -0.3389
 3719TIP3    H232573   6.590   0.550  15.698  1.2993 -1.3935 -0.3596
 3720TIP3   OH232574   6.341   0.154  13.880 -0.0977  0.0015 -0.7896
 3720TIP3    H132575   6.307   0.118  13.962  0.8639  0.8574  0.0088
 3720TIP3    H232576   6.436   0.153  13.891  0.0496 -0.1210 -2.0024
 3721TIP3   OH232577   5.469   1.832  14.380 -1.0197 -0.3560  0.2489
 3721TIP3    H132578   5.507   1.766  14.322 -1.9606 -1.3399  0.7316
 3721TIP3    H232579   5.493   1.804  14.468 -0.5042  0.5458  0.3966
 3722TIP3   OH232580   2.393   3.402   2.441  0.0071 -0.3467 -0.3853
 3722TIP3    H132581   2.324   3.342   2.468  0.6665 -0.9853 -0.1031
 3722TIP3    H232582   2.456   3.347   2.395  0.3521  0.2219 -0.6015
 3723TIP3   OH232583   4.436   3.605  12.567  0.4380 -0.3225  0.0626
 3723TIP3    H132584   4.377   3.667  12.524 -1.1029  0.5740  3.2905
 3723TIP3    H232585   4.406   3.519  12.538 -1.2585  0.2131  0.1717
 3724TIP3   OH232586   0.088   6.507  13.625  0.2869 -0.0600  0.5444
 3724TIP3    H132587   0.140   6.455  13.687  1.1740  0.2431  0.0689
 3724TIP3    H232588   0.151   6.534  13.558 -0.2335  1.3761  0.6306
 3725TIP3   OH232589   1.905   1.284  16.516 -0.0051 -0.6261  0.0672
 3725TIP3    H132590   1.985   1.334  16.533 -0.9360  0.4762  1.2711
 3725TIP3    H232591   1.897   1.226  16.591 -0.3220 -0.7352 -0.0526
 3726TIP3   OH232592   0.185   0.117  14.551 -0.0376  0.1306 -0.1561
 3726TIP3    H132593   0.235   0.155  14.478  1.2815  2.1500  1.7609
 3726TIP3    H232594   0.096   0.148  14.537 -0.5918 -2.3461 -2.8051
 3727TIP3   OH232595   0.381   2.427   4.625  0.0277  0.0267  0.2000
 3727TIP3    H132596   0.425   2.495   4.676 -0.4053 -0.5069  1.2954
 3727TIP3    H232597   0.289   2.433   4.650 -0.2911  0.1830 -1.0039
 3728TIP3   OH232598   5.867   1.104  12.011  0.2440  0.2603  0.2823
 3728TIP3    H132599   5.919   1.024  12.013 -0.7454 -0.4655 -1.7173
 3728TIP3    H232600   5.805   1.095  12.084 -1.2181 -1.7590 -1.1650
 3729TIP3   OH232601   0.891   1.733  11.457  0.2349 -0.0775 -0.0865
 3729TIP3    H132602   0.947   1.784  11.515 -0.2059  1.1198 -0.7115
 3729TIP3    H232603   0.888   1.783  11.375 -1.2029 -0.4595 -0.2852
 3730TIP3   OH232604   6.703   2.780  14.682  0.1026 -0.2648 -0.1438
 3730TIP3    H132605   6.621   2.828  14.670  0.2907  0.3524  0.8870
 3730TIP3    H232606   6.770   2.848  14.680  0.5772 -0.7577 -0.9071
 3731TIP3   OH232607   6.565   6.766   3.644  0.3178 -0.0743  0.0479
 3731TIP3    H132608   6.528   6.852   3.623  1.7859  0.4990 -0.3047
 3731TIP3    H232609   6.506   6.703   3.603 -1.2516  0.7240  1.0328
 3732TIP3   OH232610   6.545   2.185   2.042  0.2461 -0.4465 -0.3314
 3732TIP3    H132611   6.536   2.276   2.014 -0.0884  0.2312  1.8677
 3732TIP3    H232612   6.621   2.185   2.100  0.2121 -1.5607 -0.2656
 3733TIP3   OH232613   6.457   2.736  11.344  0.3636 -0.0809 -0.0207
 3733TIP3    H132614   6.372   2.744  11.301  0.0877 -0.8037  0.3847
 3733TIP3    H232615   6.470   2.820  11.387 -0.5962 -0.3173  0.7372
 3734TIP3   OH232616   0.227   4.907   4.932 -0.1908  0.9061  0.1075
 3734TIP3    H132617   0.317   4.939   4.943 -0.0500  1.2035 -1.7074
 3734TIP3    H232618   0.179   4.981   4.894 -0.9685  0.4320  0.1544
 3735TIP3   OH232619   0.405   3.349  10.600 -0.2366  0.4255 -0.3840
 3735TIP3    H132620   0.335   3.323  10.660  0.8854 -0.3710  0.5938
 3735TIP3    H232621   0.386   3.302  10.519  0.9303 -2.3290  0.8864
 3736TIP3   OH232622   0.705   2.781   3.142  0.4175  0.3272 -0.9089
 3736TIP3    H132623   0.695   2.876   3.142  0.7074  0.3907  0.9865
 3736TIP3    H232624   0.759   2.763   3.219  1.9024 -1.2389 -2.2755
 3737TIP3   OH232625   0.782   2.040   4.271 -0.4719  0.1693  0.2770
 3737TIP3    H132626   0.867   2.072   4.301 -0.7452  0.3896  0.8303
 3737TIP3    H232627   0.785   2.046   4.176 -0.2273  1.0889  0.3429
 3738TIP3   OH232628   6.296   6.468   5.380  0.3916 -0.2432 -0.3700
 3738TIP3    H132629   6.342   6.502   5.456  2.4120  0.8280 -2.0332
 3738TIP3    H232630   6.329   6.379   5.369 -1.2565 -1.0560  1.0595
 3739TIP3   OH232631   5.674   2.594   5.734 -0.4552  0.3657  0.5184
 3739TIP3    H132632   5.704   2.675   5.695  0.1720  0.5209  1.3052
 3739TIP3    H232633   5.578   2.599   5.731 -0.4104  0.9016  0.0979
 3740TIP3   OH232634   5.593   0.884  14.368 -0.6034 -0.4251  0.3175
 3740TIP3    H132635   5.565   0.910  14.281  0.5301 -0.3455 -0.0214
 3740TIP3    H232636   5.511   0.860  14.413 -1.1308 -1.0140 -0.9411
 3741TIP3   OH232637   1.204   0.375  14.553  0.0062  0.5484  0.2268
 3741TIP3    H132638   1.276   0.386  14.490 -0.1554 -0.7508 -0.1939
 3741TIP3    H232639   1.145   0.313  14.510  0.2538 -0.9213  1.9670
 3742TIP3   OH232640   3.263   5.140  13.151 -0.2718 -0.2760  0.2475
 3742TIP3    H132641   3.270   5.054  13.109  0.2696  0.2457 -0.7555
 3742TIP3    H232642   3.304   5.128  13.237  0.8054 -0.7474 -0.3183
 3743TIP3   OH232643   6.646   0.095   4.415  0.3836  0.1732  0.1632
 3743TIP3    H132644   6.636   0.054   4.501  1.6399 -1.8995 -0.6475
 3743TIP3    H232645   6.689   0.029   4.361 -0.1438  1.5388 -2.0081
 3744TIP3   OH232646   4.056   3.362  15.136  0.2773 -0.1663 -0.3395
 3744TIP3    H132647   4.054   3.456  15.154 -1.3258 -0.3007  0.2219
 3744TIP3    H232648   4.106   3.325  15.210 -1.6745 -0.0803  1.0790
 3745TIP3   OH232649   4.387   3.719   5.222  0.7464 -0.3519  0.0777
 3745TIP3    H132650   4.345   3.740   5.305  1.7393  0.9345  0.2666
 3745TIP3    H232651   4.400   3.624   5.225 -0.5190 -0.5090  0.7697
 3746TIP3   OH232652   1.189   4.503  13.680 -0.0614  0.7750 -0.6250
 3746TIP3    H132653   1.122   4.560  13.718  0.4088  0.1318  1.2289
 3746TIP3    H232654   1.272   4.538  13.714  0.5093  1.2149 -2.4391
 3747TIP3   OH232655   5.966   4.522  13.254 -0.2602 -0.0206 -0.4609
 3747TIP3    H132656   5.962   4.441  13.305  1.4414  0.9891  1.3472
 3747TIP3    H232657   5.933   4.498  13.168 -1.8353 -2.1154  0.6867
 3748TIP3   OH232658   3.038   1.591   3.730  0.1560  0.0039  0.9690
 3748TIP3    H132659   3.118   1.643   3.718 -0.1858 -0.0825 -1.9792
 3748TIP3    H232660   3.070   1.501   3.739  0.4671  0.0876  0.7369
 3749TIP3   OH232661   2.188   3.442   3.100  0.4749  0.2529 -0.3833
 3749TIP3    H132662   2.261   3.460   3.041  0.4174 -1.0365 -0.8581
 3749TIP3    H232663   2.194   3.349   3.120 -1.5196 -0.0817 -1.1315
 3750TIP3   OH232664   5.955   2.520  12.531 -0.7858 -0.0918 -0.0037
 3750TIP3    H132665   5.866   2.488  12.546 -2.5703  3.7215 -1.8575
 3750TIP3    H232666   5.972   2.501  12.439 -0.3315  0.7382 -0.0941
 3751TIP3   OH232667   3.476   4.548  11.330 -0.0829  0.3024  0.7772
 3751TIP3    H132668   3.550   4.573  11.385 -0.8196  1.3896  1.3066
 3751TIP3    H232669   3.497   4.583  11.243  1.6188 -2.4233  0.0359
 3752TIP3   OH232670   4.101   0.357   0.909 -0.0323  0.3782  0.2592
 3752TIP3    H132671   4.161   0.303   0.961  2.6648  2.6418 -0.4068
 3752TIP3    H232672   4.073   0.426   0.970  1.1429  1.5766 -0.5393
 3753TIP3   OH232673   6.539   0.157   4.803  0.3588  0.0771  0.0866
 3753TIP3    H132674   6.444   0.153   4.792  0.3313 -1.9014  0.6932
 3753TIP3    H232675   6.560   0.250   4.804 -1.6584  0.5483  0.6495
 3754TIP3   OH232676   1.279   6.306  14.293  0.2391 -0.7212  0.0266
 3754TIP3    H132677   1.206   6.250  14.264  0.6452 -0.5498 -1.3099
 3754TIP3    H232678   1.344   6.299  14.224  1.5828 -1.0138  1.3122
 3755TIP3   OH232679   1.796   6.186  11.642 -0.1061  0.5242 -0.6537
 3755TIP3    H132680   1.866   6.145  11.591 -0.5613  0.2246 -1.0398
 3755TIP3    H232681   1.828   6.185  11.732  0.0949 -0.2537 -0.7314
 3756TIP3   OH232682   4.647   6.514   3.737 -0.5591 -0.4119  0.0055
 3756TIP3    H132683   4.641   6.578   3.808 -1.7326  0.5962 -0.9966
 3756TIP3    H232684   4.576   6.537   3.677  0.6681 -1.0272 -1.7046
 3757TIP3   OH232685   0.684   1.255  12.544 -0.3248  0.3813  0.4218
 3757TIP3    H132686   0.775   1.228  12.539 -0.2409  0.8146 -0.3985
 3757TIP3    H232687   0.682   1.342  12.506 -1.5084 -0.6292 -1.9260
 3758TIP3   OH232688   3.545   0.485  15.041  0.4872 -0.0995  0.0965
 3758TIP3    H132689   3.596   0.465  15.119  1.6125  0.7465 -0.3874
 3758TIP3    H232690   3.575   0.421  14.976  1.0022  0.4509 -0.2140
 3759TIP3   OH232691   4.278   2.224  14.500  0.3369  0.1641 -0.4620
 3759TIP3    H132692   4.252   2.294  14.440  0.9171  0.5146 -0.3087
 3759TIP3    H232693   4.203   2.165  14.501  0.3162  0.1463 -1.5424
 3760TIP3   OH232694   1.979   0.264  14.127  0.0608  0.3931  0.0207
 3760TIP3    H132695   2.026   0.188  14.162 -0.4421  0.1063  0.0788
 3760TIP3    H232696   2.043   0.309  14.073 -0.4688 -1.7518 -2.5035
 3761TIP3   OH232697   0.704   4.359   4.825  0.4267 -0.2024  0.1372
 3761TIP3    H132698   0.796   4.370   4.847  0.3170  0.1340  0.4304
 3761TIP3    H232699   0.658   4.419   4.883  0.0647 -0.0008 -0.3495
 3762TIP3   OH232700   1.059   0.152  15.927 -0.1806 -0.5104 -0.5319
 3762TIP3    H132701   1.106   0.202  15.859  0.2593 -0.6700 -0.3447
 3762TIP3    H232702   1.043   0.216  15.997  0.7108 -0.7221 -0.1341
 3763TIP3   OH232703   4.360   3.348  12.513  0.6897  0.1284  0.2990
 3763TIP3    H132704   4.271   3.325  12.538  0.8464  0.2519  0.9853
 3763TIP3    H232705   4.414   3.280  12.552  0.7571 -0.8984 -1.5490
 3764TIP3   OH232706   4.989   4.085  14.638 -0.5720  0.1590  0.1512
 3764TIP3    H132707   4.900   4.103  14.608 -1.1716  1.1710  2.4230
 3764TIP3    H232708   5.014   4.005  14.592 -2.5015  0.0883 -0.8253
 3765TIP3   OH232709   2.926   3.399  11.561  0.5955 -0.3022 -0.6860
 3765TIP3    H132710   2.925   3.493  11.577  2.4522 -0.1241 -1.5382
 3765TIP3    H232711   2.834   3.373  11.563  0.2670  0.9236  2.9638
 3766TIP3   OH232712   2.865   5.083  12.965  0.1062 -0.3985 -0.6357
 3766TIP3    H132713   2.907   5.119  13.044 -0.7349 -1.5398  0.3389
 3766TIP3    H232714   2.850   5.160  12.910  2.4367  0.1846 -0.5316
 3767TIP3   OH232715   5.724   0.432   2.548 -0.4835  0.2150 -0.1031
 3767TIP3    H132716   5.633   0.456   2.564 -0.4586 -0.5825  1.4370
 3767TIP3    H232717   5.720   0.341   2.517 -0.1888 -0.0770  0.6831
 3768TIP3   OH232718   1.188   4.576  12.937 -0.6505 -0.5302 -0.3770
 3768TIP3    H132719   1.107   4.534  12.908  0.1682 -1.6916 -1.0678
 3768TIP3    H232720   1.246   4.502  12.957 -0.2465  0.2761  1.5153
 3769TIP3   OH232721   0.162   4.292  15.541 -0.0532  0.2083  0.1366
 3769TIP3    H132722   0.251   4.305  15.575 -0.4348  1.1299  0.8101
 3769TIP3    H232723   0.111   4.365  15.578 -1.0627 -0.2407 -0.3404
 3770TIP3   OH232724   6.777   4.428   4.479  0.2772 -0.5411  0.4891
 3770TIP3    H132725   6.729   4.357   4.522 -0.9660 -0.1560 -0.2230
 3770TIP3    H232726   6.724   4.506   4.495  0.1971 -0.2565 -1.0550
 3771TIP3   OH232727   4.640   0.076   5.884 -0.0390  0.4964  0.3318
 3771TIP3    H132728   4.600   0.034   5.808  0.7915 -0.4842  0.4348
 3771TIP3    H232729   4.622   0.017   5.957  0.8023  0.4961  0.5470
 3772TIP3   OH232730   3.832   1.612   0.188  0.1086 -0.1255 -0.3747
 3772TIP3    H132731   3.839   1.700   0.226 -0.0520  0.8647 -2.5619
 3772TIP3    H232732   3.738   1.593   0.189  0.1831 -0.4443  0.4831
 3773TIP3   OH232733   3.872   0.267  14.950 -0.4867 -0.3199  0.1722
 3773TIP3    H132734   3.857   0.308  14.864  0.2231  1.5019  0.8850
 3773TIP3    H232735   3.785   0.266  14.991 -0.1530  2.7978  1.1108
 3774TIP3   OH232736   0.717   1.887   3.833 -0.0433 -0.1640 -0.3472
 3774TIP3    H132737   0.734   1.794   3.847 -0.2802 -0.3128 -1.0105
 3774TIP3    H232738   0.777   1.932   3.893  1.0872 -0.7169 -1.0564
 3775TIP3   OH232739   0.863   0.968  15.268 -0.0537  0.6169 -0.0068
 3775TIP3    H132740   0.772   0.978  15.237  0.0967  0.2704 -0.5788
 3775TIP3    H232741   0.916   0.997  15.194  0.3722 -2.9514 -1.2132
 3776TIP3   OH232742   1.016   5.321  16.895  0.4319  0.1699  0.4582
 3776TIP3    H132743   1.078   5.249  16.900  0.5741  0.2510 -0.0783
 3776TIP3    H232744   1.004   5.349  16.985  0.9494 -0.0403  0.5933
 3777TIP3   OH232745   1.804   0.924  11.399 -0.6211  0.4527 -0.5426
 3777TIP3    H132746   1.742   0.959  11.463 -1.2327 -2.1275  0.3550
 3777TIP3    H232747   1.754   0.917  11.318 -0.9333  0.2357 -0.3317
 3778TIP3   OH232748   0.997   5.397  12.714 -0.1539 -0.0021  0.2648
 3778TIP3    H132749   0.946   5.398  12.633 -0.9463  2.6751  0.7432
 3778TIP3    H232750   1.077   5.445  12.692 -0.2388  0.4664  0.9790
 3779TIP3   OH232751   3.492   0.201   1.326  0.2023 -0.0242 -0.0914
 3779TIP3    H132752   3.492   0.164   1.238  0.9419 -0.0646 -0.0713
 3779TIP3    H232753   3.416   0.160   1.368  1.2287 -1.8238  0.0617
 3780TIP3   OH232754   2.937   6.025  12.904 -0.2531  0.3866 -0.6504
 3780TIP3    H132755   2.983   5.984  12.977 -2.5231 -1.3210 -0.1314
 3780TIP3    H232756   2.848   6.037  12.936 -0.2843  3.4312 -1.7049
 3781TIP3   OH232757   3.172   6.468   2.237  0.2046  0.0482 -0.3752
 3781TIP3    H132758   3.140   6.387   2.197 -1.0755  0.2232  0.3015
 3781TIP3    H232759   3.210   6.440   2.320  1.5306 -0.1062 -1.0069
 3782TIP3   OH232760   2.611   0.348   5.339 -0.0986  0.3528  0.0953
 3782TIP3    H132761   2.694   0.373   5.380  0.0113  1.0697 -0.5578
 3782TIP3    H232762   2.568   0.292   5.404  0.8585  0.0391  0.4646
 3783TIP3   OH232763   5.782   3.638  11.338  0.5694 -0.2951  0.1147
 3783TIP3    H132764   5.726   3.713  11.317  0.1528 -0.3752  0.9269
 3783TIP3    H232765   5.834   3.666  11.414  1.0064 -0.5327 -0.0926
 3784TIP3   OH232766   4.398   3.519  14.994 -0.5254 -0.4614  0.2198
 3784TIP3    H132767   4.489   3.520  15.025 -0.3142 -0.3436 -0.4066
 3784TIP3    H232768   4.346   3.514  15.074 -0.0540  2.4477  0.7473
 3785TIP3   OH232769   1.495   0.838  13.300  0.4439 -0.7334  0.5401
 3785TIP3    H132770   1.574   0.854  13.353  0.4288 -0.4073  0.4700
 3785TIP3    H232771   1.479   0.922  13.256 -0.7381 -0.3774  1.6074
 3786TIP3   OH232772   0.761   0.317   5.684 -0.4712 -0.2716 -0.3465
 3786TIP3    H132773   0.674   0.352   5.700 -0.7329 -0.0465 -2.1904
 3786TIP3    H232774   0.821   0.385   5.715 -0.9394 -0.2027  0.4232
 3787TIP3   OH232775   6.748   3.923  15.675  0.3001  0.7640  0.0579
 3787TIP3    H132776   6.773   3.984  15.605  0.7886  0.5982  0.0836
 3787TIP3    H232777   6.773   3.969  15.755  1.8817 -0.0160  0.0270
 3788TIP3   OH232778   0.292   0.249  14.339  0.3600  0.2827 -0.1129
 3788TIP3    H132779   0.269   0.313  14.272 -1.4278 -0.1223  0.1061
 3788TIP3    H232780   0.327   0.175  14.290  1.1798  0.8779 -0.4464
 3789TIP3   OH232781   4.780   1.671   6.636 -0.0384  0.8158 -0.4726
 3789TIP3    H132782   4.875   1.679   6.631 -0.0230  1.8940  1.2364
 3789TIP3    H232783   4.764   1.576   6.634  1.0846  0.6203 -0.3773
 3790TIP3   OH232784   1.168   6.384  16.295 -0.0301 -0.8034  0.3192
 3790TIP3    H132785   1.084   6.428  16.279  0.3918  0.2683  1.0086
 3790TIP3    H232786   1.217   6.397  16.214 -0.7173 -1.8876 -0.2817
 3791TIP3   OH232787   3.059   6.532  16.623 -0.0675 -0.0895  0.0146
 3791TIP3    H132788   2.976   6.579  16.616 -0.0836 -0.1591 -0.2503
 3791TIP3    H232789   3.119   6.580  16.566 -0.4078 -1.1128 -1.2053
 3792TIP3   OH232790   1.553   2.455   0.867 -0.5390 -0.0438  0.4396
 3792TIP3    H132791   1.539   2.379   0.925  1.1702 -1.4693 -0.9319
 3792TIP3    H232792   1.576   2.416   0.783  1.2146  2.0122 -0.0741
 3793TIP3   OH232793   1.248   5.542   0.658 -0.4033 -0.0503  0.0551
 3793TIP3    H132794   1.191   5.550   0.735 -1.3765  1.6078 -0.8011
 3793TIP3    H232795   1.298   5.623   0.656 -0.7542  0.1458 -1.3443
 3794TIP3   OH232796   1.934   5.304  12.825  0.4656 -0.3792 -0.1241
 3794TIP3    H132797   1.894   5.267  12.904 -1.5999 -0.9309 -1.3866
 3794TIP3    H232798   1.902   5.394  12.821  1.0257 -0.1709 -0.0426
 3795TIP3   OH232799   3.576   3.663  17.043 -0.0564 -0.1976  0.2155
 3795TIP3    H132800   3.484   3.658  17.070 -0.0002 -0.3218  0.3871
 3795TIP3    H232801   3.573   3.663  16.948 -0.3239  1.4629  0.2108
 3796TIP3   OH232802   1.183   1.124  12.685  0.0391  0.1242  0.2851
 3796TIP3    H132803   1.146   1.137  12.773 -0.6235 -0.6556  0.1383
 3796TIP3    H232804   1.276   1.142  12.695  0.1718 -1.0824  1.4192
 3797TIP3   OH232805   4.131   6.231   5.561  0.6781  0.0064  0.0505
 3797TIP3    H132806   4.226   6.244   5.565  0.6924  0.7723 -2.0337
 3797TIP3    H232807   4.094   6.304   5.610  1.1583 -0.4447  1.0965
 3798TIP3   OH232808   6.169   6.785  17.010 -0.2810  0.1058  0.0638
 3798TIP3    H132809   6.117   6.854  17.052 -0.0127 -0.8933  2.1250
 3798TIP3    H232810   6.258   6.821  17.006 -0.2471  0.0920  0.6500
 3799TIP3   OH232811   6.461   1.358   4.376 -0.1556  0.5812  0.0672
 3799TIP3    H132812   6.387   1.389   4.324 -0.0475  0.5079 -0.1323
 3799TIP3    H232813   6.535   1.410   4.346  0.2442 -0.6162 -1.0358
 3800TIP3   OH232814   0.526   0.204  15.819 -0.0462 -0.7781  0.0048
 3800TIP3    H132815   0.453   0.262  15.841  0.4869 -0.1926  0.2739
 3800TIP3    H232816   0.515   0.128  15.876 -2.0350 -1.9943 -1.9546
 3801TIP3   OH232817   2.848   1.930   3.469 -0.0759 -0.6153  0.0158
 3801TIP3    H132818   2.942   1.914   3.461 -0.5334 -3.1075 -1.0086
 3801TIP3    H232819   2.827   1.904   3.558  0.1485 -0.3851  0.1362
 3802TIP3   OH232820   3.775   4.345   1.146 -0.2311 -0.2138 -0.2971
 3802TIP3    H132821   3.733   4.304   1.070  0.8385  2.8110 -2.6426
 3802TIP3    H232822   3.746   4.436   1.142  2.1759  0.6536  1.2473
 3803TIP3   OH232823   5.230   5.532  10.809  0.0206 -0.6182 -0.3855
 3803TIP3    H132824   5.220   5.588  10.731 -0.5941 -0.8002 -0.4415
 3803TIP3    H232825   5.295   5.467  10.783  1.7708  0.8701  0.1430
 3804TIP3   OH232826   5.444   1.723   1.638  0.2852  0.3168 -0.2792
 3804TIP3    H132827   5.439   1.703   1.545  0.3129 -0.8120 -0.0487
 3804TIP3    H232828   5.536   1.746   1.653  0.9250 -2.2624 -0.0140
 3805TIP3   OH232829   1.881   5.482  10.885  0.0213 -0.0850 -0.0180
 3805TIP3    H132830   1.938   5.544  10.840 -1.7280  0.6589 -1.2637
 3805TIP3    H232831   1.846   5.427  10.815 -0.1426 -1.0612  0.8241
 3806TIP3   OH232832   0.423   5.323   3.628 -0.2383  0.0340  0.0913
 3806TIP3    H132833   0.443   5.404   3.580  1.7121 -0.8767 -0.6691
 3806TIP3    H232834   0.483   5.324   3.703 -1.8655  0.4411  1.4414
 3807TIP3   OH232835   6.629   3.098  15.982  0.4224  0.4671  0.1872
 3807TIP3    H132836   6.666   3.182  16.008  1.2052  1.0733 -2.8048
 3807TIP3    H232837   6.540   3.099  16.019  0.8119  2.1193  1.1255
 3808TIP3   OH232838   1.147   1.683  11.306  0.0148  0.4243  0.2371
 3808TIP3    H132839   1.063   1.727  11.292 -0.0146  0.0639 -0.7017
 3808TIP3    H232840   1.133   1.627  11.383 -1.1460 -1.0138 -1.0032
 3809TIP3   OH232841   2.932   0.198  14.980 -0.1020  0.6720  0.4025
 3809TIP3    H132842   3.022   0.230  14.978  0.3839 -0.6891 -0.0781
 3809TIP3    H232843   2.886   0.260  15.036  1.5227  0.4002  2.0898
 3810TIP3   OH232844   3.960   3.415  15.434  0.0858  0.3698 -0.3869
 3810TIP3    H132845   4.050   3.441  15.452  0.3448 -1.0142  0.3928
 3810TIP3    H232846   3.962   3.319  15.433 -1.7197  0.2565  1.6150
 3811TIP3   OH232847   1.403   3.809   5.906 -0.3204  0.6820  0.0392
 3811TIP3    H132848   1.399   3.803   6.001  0.5023  0.6278  0.0750
 3811TIP3    H232849   1.411   3.718   5.876  2.0280  0.8528  0.0634
 3812TIP3   OH232850   3.012   5.973   5.745 -0.1595  0.4268 -0.4535
 3812TIP3    H132851   2.989   5.895   5.696  0.8938 -0.0533 -0.2014
 3812TIP3    H232852   3.096   6.001   5.709  0.3082  0.4459  0.6170
 3813TIP3   OH232853   2.245   0.803   4.480  0.0204 -0.2852 -0.2334
 3813TIP3    H132854   2.220   0.712   4.460 -0.8978 -0.3592  1.1671
 3813TIP3    H232855   2.192   0.856   4.421  0.3909 -0.6597 -0.9018
 3814TIP3   OH232856   5.008   1.332  15.911 -0.1761 -0.1163  0.2347
 3814TIP3    H132857   4.931   1.388  15.902  0.9126  1.6204  1.2905
 3814TIP3    H232858   5.082   1.392  15.901  1.0332 -1.5408  0.4767
 3815TIP3   OH232859   5.453   1.634   1.384  0.6494  0.7693 -0.1881
 3815TIP3    H132860   5.414   1.551   1.411 -0.3335  1.1981 -0.2738
 3815TIP3    H232861   5.385   1.678   1.333  0.2917  2.6879  1.8648
 3816TIP3   OH232862   2.065   1.173  16.263 -0.1979  0.1701  0.2215
 3816TIP3    H132863   1.992   1.232  16.279  0.0903  0.6934 -0.3620
 3816TIP3    H232864   2.081   1.130  16.348 -1.9090 -0.7935  0.0697
 3817TIP3   OH232865   4.397   5.392   6.020 -0.5010 -0.3050  0.8913
 3817TIP3    H132866   4.398   5.470   5.964 -0.4241 -0.6954  0.3443
 3817TIP3    H232867   4.353   5.421   6.100  0.6869  0.6453  1.2118
 3818TIP3   OH232868   2.540   2.451  15.009 -0.2184 -0.3568 -0.0590
 3818TIP3    H132869   2.490   2.465  14.929  0.0151  1.1752  0.0330
 3818TIP3    H232870   2.540   2.356  15.022  0.5794 -0.6868 -2.3800
 3819TIP3   OH232871   2.057   6.631   3.159 -0.2570 -0.0506 -0.3735
 3819TIP3    H132872   2.013   6.647   3.243 -1.5155  1.6260 -1.3344
 3819TIP3    H232873   2.087   6.540   3.165  1.1016  0.5323  2.5317
 3820TIP3   OH232874   5.545   2.297   2.269  0.3397 -0.8787  0.1047
 3820TIP3    H132875   5.482   2.258   2.208  0.7668 -1.2522 -0.1045
 3820TIP3    H232876   5.616   2.232   2.274  1.9688  0.6749 -1.7073
 3821TIP3   OH232877   3.625   3.162  16.137  0.1596 -0.2179  0.4447
 3821TIP3    H132878   3.533   3.170  16.163  0.7405 -0.5979  2.7042
 3821TIP3    H232879   3.652   3.077  16.172  0.7914 -1.1163 -2.1069
 3822TIP3   OH232880   4.894   1.545   2.257 -0.6692 -0.5719 -0.2222
 3822TIP3    H132881   4.891   1.612   2.325 -0.8816  1.2030 -1.9654
 3822TIP3    H232882   4.806   1.544   2.219 -0.4294 -1.2689 -0.7782
 3823TIP3   OH232883   4.020   2.352  12.571 -0.0526 -0.6536 -0.3603
 3823TIP3    H132884   4.016   2.446  12.555 -2.0179 -0.4880  0.9931
 3823TIP3    H232885   4.090   2.343  12.637 -0.9211  0.0341  0.6728
 3824TIP3   OH232886   6.610   0.107  11.034 -0.6080  0.1905 -0.0283
 3824TIP3    H132887   6.591   0.167  10.962 -1.4501  0.4218  0.3836
 3824TIP3    H232888   6.526   0.095  11.078 -0.0696  0.1466  0.9944
 3825TIP3   OH232889   2.156   4.457  14.566  0.1538 -0.5895  0.4263
 3825TIP3    H132890   2.194   4.381  14.523 -0.8222 -0.8349 -0.0058
 3825TIP3    H232891   2.224   4.487  14.626  0.4461 -1.9460  0.7831
 3826TIP3   OH232892   2.656   5.205   3.281  0.1703  0.5299  0.4234
 3826TIP3    H132893   2.698   5.262   3.345  0.1151  0.5448  0.4467
 3826TIP3    H232894   2.662   5.118   3.319 -1.5497  0.7854  1.3324
 3827TIP3   OH232895   1.222   1.098   3.245  0.5331  0.1696 -0.8925
 3827TIP3    H132896   1.291   1.114   3.308  0.7348  2.7051 -1.7168
 3827TIP3    H232897   1.151   1.157   3.271 -0.6934 -1.1898 -1.0540
 3828TIP3   OH232898   0.509   2.670  14.979 -0.0705 -0.0038  0.2268
 3828TIP3    H132899   0.428   2.642  15.022  0.1342  1.6421  1.7232
 3828TIP3    H232900   0.563   2.706  15.049  0.6804  1.8337 -1.2394
 3829TIP3   OH232901   5.678   4.520  15.822  0.0695  0.0509 -0.8953
 3829TIP3    H132902   5.709   4.438  15.861  2.7977  1.5118  0.1311
 3829TIP3    H232903   5.613   4.552  15.884 -0.4758 -0.9570 -0.9283
 3830TIP3   OH232904   3.614   2.100   3.397  0.0875 -0.3399  0.0791
 3830TIP3    H132905   3.668   2.056   3.463 -0.7107 -0.7263  0.4863
 3830TIP3    H232906   3.673   2.162   3.354  0.1789  1.2525  2.4261
 3831TIP3   OH232907   4.728   5.634   4.083  0.1897 -0.2064  0.0382
 3831TIP3    H132908   4.686   5.640   3.997  1.8548  0.9238 -0.7196
 3831TIP3    H232909   4.821   5.627   4.064  0.8163  2.7617  1.7800
 3832TIP3   OH232910   5.587   4.466   3.313  0.2435 -0.2967  0.1249
 3832TIP3    H132911   5.612   4.525   3.243 -0.8204  1.8378  1.5088
 3832TIP3    H232912   5.652   4.481   3.382 -0.1137 -0.6228  0.5381
 3833TIP3   OH232913   1.624   5.767  10.648 -0.2689 -0.9289 -0.4342
 3833TIP3    H132914   1.572   5.796  10.572  0.1216  1.9109  0.2960
 3833TIP3    H232915   1.699   5.827  10.648  0.3274 -1.6728  1.5052
 3834TIP3   OH232916   4.600   1.399  11.146 -0.5282 -0.0717 -0.1573
 3834TIP3    H132917   4.567   1.370  11.232 -0.5684 -1.7621 -0.7260
 3834TIP3    H232918   4.521   1.413  11.094 -0.4557 -0.6596 -0.4260
 3835TIP3   OH232919   3.439   1.261  12.980 -0.6789  0.4612 -0.3857
 3835TIP3    H132920   3.442   1.165  12.982  2.9811  0.5444  0.5438
 3835TIP3    H232921   3.393   1.281  12.898 -3.5979 -2.0329  0.4983
 3836TIP3   OH232922   0.987   5.533  15.800 -0.2324 -0.2967  0.5505
 3836TIP3    H132923   0.937   5.460  15.838  0.7870 -1.2870  0.0244
 3836TIP3    H232924   1.056   5.550  15.863 -1.3091  1.2086  1.3723
 3837TIP3   OH232925   4.334   0.995  14.372  0.2082  0.1225 -0.2399
 3837TIP3    H132926   4.312   1.044  14.451 -1.0403 -0.0236 -0.4848
 3837TIP3    H232927   4.368   0.912  14.404 -0.7888 -0.1411  0.1410
 3838TIP3   OH232928   2.736   1.917   6.244  0.0879  0.4010  0.4424
 3838TIP3    H132929   2.764   1.867   6.320 -0.9412  0.7332  1.0609
 3838TIP3    H232930   2.640   1.906   6.243  0.1018  0.3732 -0.8139
 3839TIP3   OH232931   4.306   0.608  12.002  0.5791  0.3547  0.4428
 3839TIP3    H132932   4.375   0.586  11.939  1.4350  0.6505  1.2677
 3839TIP3    H232933   4.226   0.579  11.959  1.1843  0.1898 -0.6219
 3840TIP3   OH232934   4.232   4.269  10.957 -0.1962 -0.5690  0.4094
 3840TIP3    H132935   4.282   4.264  10.875 -1.4243 -1.6839 -0.2847
 3840TIP3    H232936   4.175   4.345  10.946 -0.5626 -0.8843  0.1026
 3841TIP3   OH232937   0.360   5.551   1.326  0.3331 -0.2302  0.0200
 3841TIP3    H132938   0.412   5.550   1.246 -1.1318  0.3496 -0.9699
 3841TIP3    H232939   0.326   5.462   1.334 -1.4702  0.2814 -1.3643
 3842TIP3   OH232940   6.042   1.098  14.802  0.1515  0.3655  0.7187
 3842TIP3    H132941   6.010   1.008  14.794 -1.2845  0.7100  2.3024
 3842TIP3    H232942   6.027   1.136  14.715  1.7740 -1.2045 -0.2865
 3843TIP3   OH232943   3.216   5.295   0.797 -0.0570 -0.2531  0.6033
 3843TIP3    H132944   3.157   5.334   0.862 -1.4561  0.4964 -1.0750
 3843TIP3    H232945   3.186   5.205   0.788 -0.9278  0.1171 -0.2224
 3844TIP3   OH232946   1.259   4.891   6.176 -0.3474 -0.0344  0.4584
 3844TIP3    H132947   1.218   4.973   6.203 -0.4973 -0.5976  2.0161
 3844TIP3    H232948   1.318   4.915   6.105  0.4532  1.5972  1.6552
 3845TIP3   OH232949   3.223   1.608   4.549 -0.0733  0.2294  0.3800
 3845TIP3    H132950   3.167   1.619   4.472  1.7945  2.8076 -0.6935
 3845TIP3    H232951   3.190   1.529   4.592 -1.1770 -1.2571 -3.0453
 3846TIP3   OH232952   6.707   2.012  16.067  0.2998 -0.2752  0.1606
 3846TIP3    H132953   6.668   2.065  16.136 -1.0185  0.6524 -1.2761
 3846TIP3    H232954   6.725   2.074  15.997  0.3674 -1.4311 -0.8549
 3847TIP3   OH232955   2.323   0.081   2.029  0.0388 -0.3706 -0.2785
 3847TIP3    H132956   2.325   0.176   2.014 -2.1098 -0.6128 -2.1410
 3847TIP3    H232957   2.402   0.048   1.985  0.9182  0.5539  0.5725
 3848TIP3   OH232958   6.430   1.483   4.626 -0.3201 -0.3978  0.4852
 3848TIP3    H132959   6.446   1.422   4.554 -0.7669  2.0114 -1.6915
 3848TIP3    H232960   6.343   1.518   4.609  0.6561  2.1964  0.6809
 3849TIP3   OH232961   2.548   6.578   5.690 -0.2389  0.0640  0.6575
 3849TIP3    H132962   2.491   6.526   5.747 -0.8729  0.1115  0.0670
 3849TIP3    H232963   2.636   6.546   5.709 -0.7386 -2.3700 -0.8243
 3850TIP3   OH232964   3.577   2.444   4.942 -0.0139 -0.0267 -0.0849
 3850TIP3    H132965   3.612   2.528   4.972 -1.1899  0.7171 -0.7683
 3850TIP3    H232966   3.495   2.434   4.989  0.0017 -0.6916 -0.1915
 3851TIP3   OH232967   0.412   4.517   4.680 -0.2782  0.3332 -0.0483
 3851TIP3    H132968   0.462   4.545   4.757  1.5186  1.7784 -1.6668
 3851TIP3    H232969   0.337   4.577   4.678 -0.7530 -0.2090  0.9888
 3852TIP3   OH232970   0.620   3.663  12.408 -0.3269 -0.4598  0.3900
 3852TIP3    H132971   0.561   3.717  12.355  1.3108 -0.1071 -1.1134
 3852TIP3    H232972   0.708   3.696  12.388  0.4991 -1.9584  1.4509
 3853TIP3   OH232973   1.316   6.353  13.329 -0.0424 -0.0840  0.0160
 3853TIP3    H132974   1.287   6.317  13.245  1.5292  0.0379 -0.5810
 3853TIP3    H232975   1.343   6.443  13.309 -0.2769  0.1634  0.7829
 3854TIP3   OH232976   1.420   4.772  16.747 -0.0793  0.5758 -0.2657
 3854TIP3    H132977   1.381   4.759  16.660 -0.3453  3.2043 -0.5722
 3854TIP3    H232978   1.459   4.687  16.768 -0.2137 -0.1799 -2.8466
 3855TIP3   OH232979   3.324   3.107   2.262  0.1309 -0.3382 -0.6467
 3855TIP3    H132980   3.402   3.162   2.249  0.2029 -0.2257  0.2232
 3855TIP3    H232981   3.272   3.120   2.183  0.2132  0.8739 -0.5082
 3856TIP3   OH232982   5.634   5.281  11.325 -0.4318  0.8106 -0.7700
 3856TIP3    H132983   5.563   5.345  11.319 -2.5234 -1.1470  2.0648
 3856TIP3    H232984   5.613   5.215  11.259 -1.3121  0.1934  0.1193
 3857TIP3   OH232985   5.009   3.750  16.691 -0.0383 -0.4403 -0.2434
 3857TIP3    H132986   4.989   3.799  16.611 -1.3224 -0.5967 -0.0309
 3857TIP3    H232987   5.104   3.747  16.694  0.0246 -0.0517 -1.5394
 3858TIP3   OH232988   2.108   0.207   2.712  0.0957  0.1813  0.0076
 3858TIP3    H132989   2.174   0.267   2.748 -0.5350  0.4127  0.7813
 3858TIP3    H232990   2.098   0.139   2.778 -0.3999  0.1136 -0.1354
 3859TIP3   OH232991   1.557   5.173  13.378 -0.0340  0.2060 -0.0639
 3859TIP3    H132992   1.566   5.268  13.392  0.5890 -0.0148  1.0829
 3859TIP3    H232993   1.520   5.140  13.460  0.3829 -0.6398 -0.2111
 3860TIP3   OH232994   6.141   3.490  16.527 -0.5392 -0.1749  0.1987
 3860TIP3    H132995   6.104   3.407  16.498 -1.2218 -0.0764  0.7667
 3860TIP3    H232996   6.079   3.556  16.495  0.5799  0.2149 -1.2236
 3861TIP3   OH232997   5.965   0.117   1.381 -0.6115  0.7589  0.3234
 3861TIP3    H132998   5.915   0.144   1.459 -0.7580  0.9458  0.1661
 3861TIP3    H232999   5.982   0.024   1.395  0.2435  1.0152  1.0609
 3862TIP3   OH233000   3.416   4.393   2.869 -0.3778  0.0649  0.0786
 3862TIP3    H133001   3.500   4.437   2.858  0.0705 -0.4991  1.1683
 3862TIP3    H233002   3.439   4.301   2.882 -1.2670 -0.3915 -1.4489
 3863TIP3   OH233003   3.497   2.396   1.210  0.1958  0.1377  0.4722
 3863TIP3    H133004   3.569   2.334   1.205  0.9046  0.9103  0.9384
 3863TIP3    H233005   3.445   2.368   1.285 -0.5227 -0.9662 -0.4119
 3864TIP3   OH233006   0.335   1.533   5.497 -0.1890 -0.2421  0.2349
 3864TIP3    H133007   0.410   1.537   5.555 -1.3143 -1.6633  1.8502
 3864TIP3    H233008   0.281   1.609   5.521  0.7850  0.8662 -1.0320
 3865TIP3   OH233009   0.806   5.427   5.119  0.6150  0.0012 -0.6137
 3865TIP3    H133010   0.744   5.419   5.192 -0.5586 -0.6019 -1.6680
 3865TIP3    H233011   0.889   5.396   5.155 -0.4077 -2.2616 -0.1155
 3866TIP3   OH233012   6.201   0.562   4.262  0.0357 -0.4303  0.1805
 3866TIP3    H133013   6.217   0.544   4.169 -0.4825  1.1926 -0.2365
 3866TIP3    H233014   6.287   0.585   4.297  0.1891 -0.7855  0.0360
 3867TIP3   OH233015   4.360   5.024  13.164  0.4219 -0.0822 -0.5751
 3867TIP3    H133016   4.299   4.987  13.228 -0.9062  1.0995 -1.1347
 3867TIP3    H233017   4.418   4.951  13.141  0.1327 -0.8390  1.0396
 3868TIP3   OH233018   1.179   0.081   3.901 -0.0978  0.2049  0.0745
 3868TIP3    H133019   1.089   0.101   3.929  0.1091  1.4731 -0.1595
 3868TIP3    H233020   1.234   0.137   3.956  0.5173 -0.1506 -0.1818
 3869TIP3   OH233021   2.914   1.559  15.508 -0.2285 -0.5155  1.2750
 3869TIP3    H133022   2.939   1.616  15.436 -1.0731 -1.1399  0.4893
 3869TIP3    H233023   2.944   1.605  15.586 -1.1846  1.1635  0.6697
 3870TIP3   OH233024   1.524   4.751   0.123 -0.0582  0.2739 -0.2131
 3870TIP3    H133025   1.436   4.787   0.114  0.6009  1.2992 -3.2024
 3870TIP3    H233026   1.581   4.818   0.085  1.9269 -0.7534  0.8857
 3871TIP3   OH233027   2.960   2.985   2.706 -0.3718 -0.8161 -0.0027
 3871TIP3    H133028   2.958   2.997   2.611 -0.7315 -1.6723 -0.1107
 3871TIP3    H233029   3.011   2.905   2.719 -1.6714 -1.6015  0.4228
 3872TIP3   OH233030   5.935   1.234  11.748  0.1045  0.0911  0.1824
 3872TIP3    H133031   5.948   1.189  11.832  3.2572 -0.5500 -0.5968
 3872TIP3    H233032   5.839   1.240  11.739 -0.3275 -2.3284  2.4897
 3873TIP3   OH233033   3.487   4.574   1.768 -0.0031  0.4345  0.1419
 3873TIP3    H133034   3.480   4.507   1.835 -1.2195  1.6554  1.2554
 3873TIP3    H233035   3.532   4.647   1.811  0.6680  0.6284 -0.8520
 3874TIP3   OH233036   5.131   5.743   0.959 -0.1011  0.1220 -0.2693
 3874TIP3    H133037   5.108   5.811   0.895 -0.9304 -0.9949 -1.1765
 3874TIP3    H233038   5.224   5.726   0.942 -0.5930 -0.9418 -1.9194
 3875TIP3   OH233039   4.449   1.706   3.410 -0.0754 -0.2458  0.2464
 3875TIP3    H133040   4.391   1.639   3.445 -1.3761  0.2466 -0.9283
 3875TIP3    H233041   4.491   1.665   3.334 -2.2898  0.8602 -1.6075
 3876TIP3   OH233042   2.026   6.119   0.733  0.4915 -0.5477  0.3586
 3876TIP3    H133043   2.104   6.071   0.762  0.2081 -0.7479  0.7927
 3876TIP3    H233044   1.953   6.063   0.759  0.1875 -0.1624  0.3235
 3877TIP3   OH233045   4.585   4.834  15.514 -0.2138  0.0510  0.0414
 3877TIP3    H133046   4.661   4.876  15.472 -0.3125  1.6241  1.3838
 3877TIP3    H233047   4.623   4.775  15.579 -0.1129 -0.1354 -0.1880
 3878TIP3   OH233048   6.366   6.758   5.586  0.6333  0.6206 -0.3707
 3878TIP3    H133049   6.350   6.789   5.676 -0.5289  0.8728 -0.6541
 3878TIP3    H233050   6.407   6.673   5.597 -0.2106  0.3045  0.4121
 3879TIP3   OH233051   3.188   4.574  16.692  0.4758  0.4775 -0.1217
 3879TIP3    H133052   3.097   4.603  16.697  0.8243  1.7147 -0.8614
 3879TIP3    H233053   3.239   4.654  16.680  1.8507 -0.0102  2.1697
 3880TIP3   OH233054   3.666   1.399  15.635  0.3483 -0.2199 -0.1788
 3880TIP3    H133055   3.759   1.404  15.656  0.0463  0.5755  1.0271
 3880TIP3    H233056   3.645   1.306  15.640  0.3931 -0.1202  2.7156
 3881TIP3   OH233057   1.720   4.371  12.582  0.1193  0.0069  0.1580
 3881TIP3    H133058   1.630   4.400  12.596 -0.0647 -0.3100 -0.3348
 3881TIP3    H233059   1.723   4.347  12.489  0.2668 -1.5534  0.5528
 3882TIP3   OH233060   5.464   4.631   1.187 -0.2550 -0.3290 -0.7766
 3882TIP3    H133061   5.513   4.645   1.106  0.3117  0.0827 -0.3691
 3882TIP3    H233062   5.442   4.719   1.217  0.8697 -0.4038  0.3140
 3883TIP3   OH233063   3.141   3.542   1.805  0.1531  0.2960  0.2505
 3883TIP3    H133064   3.223   3.502   1.831 -1.4203 -3.2859 -0.0527
 3883TIP3    H233065   3.103   3.574   1.886  1.4397  1.2609  0.4926
 3884TIP3   OH233066   3.591   4.006   1.545 -0.1127  0.2857 -0.3709
 3884TIP3    H133067   3.583   4.096   1.513 -0.0043 -0.3422 -2.2014
 3884TIP3    H233068   3.556   3.952   1.475  1.5980 -1.2252 -0.1114
 3885TIP3   OH233069   4.045   4.710  11.988 -0.0242  0.2415 -0.4277
 3885TIP3    H133070   4.133   4.743  12.003  0.1673  0.1712 -1.3719
 3885TIP3    H233071   4.058   4.625  11.948 -0.5250 -0.6796  1.3071
 3886TIP3   OH233072   1.254   5.757   1.533  0.5627 -0.1213  0.2611
 3886TIP3    H133073   1.213   5.828   1.582  1.1879 -0.1776  0.8743
 3886TIP3    H233074   1.330   5.797   1.490 -0.2032  0.0148 -0.9848
 3887TIP3   OH233075   1.093   0.074   3.224 -0.4115 -0.1120 -0.1717
 3887TIP3    H133076   1.016   0.130   3.211  0.2132  1.1962  1.5264
 3887TIP3    H233077   1.166   0.126   3.190 -0.1128 -0.8218 -0.6155
 3888TIP3   OH233078   2.590   1.687   1.949 -0.1010 -0.1752  0.2862
 3888TIP3    H133079   2.588   1.779   1.975 -1.4942 -0.6019  1.7230
 3888TIP3    H233080   2.661   1.682   1.885  0.7130  1.6781  1.0158
 3889TIP3   OH233081   4.244   2.203   0.409  0.8069  0.6426 -0.2393
 3889TIP3    H133082   4.266   2.155   0.489  0.9980  0.6555 -0.2852
 3889TIP3    H233083   4.326   2.209   0.361  1.0837  2.1441  0.3688
 3890TIP3   OH233084   4.884   5.627  13.140  0.0496 -0.3288 -0.3177
 3890TIP3    H133085   4.947   5.697  13.159 -0.6159  0.5292 -1.2276
 3890TIP3    H233086   4.812   5.643  13.202  0.4412 -0.9222  0.2870
 3891TIP3   OH233087   0.977   3.061   2.283 -0.6609  0.4179 -0.1248
 3891TIP3    H133088   0.955   2.972   2.254 -0.6524  0.2390  0.4250
 3891TIP3    H233089   0.894   3.097   2.316 -0.3687  0.1379  0.9076
 3892TIP3   OH233090   6.229   4.199   3.246 -0.0630  0.3876 -0.0662
 3892TIP3    H133091   6.174   4.132   3.286 -1.5823  0.3399 -2.1994
 3892TIP3    H233092   6.237   4.267   3.313 -1.9598 -0.0281  0.6087
 3893TIP3   OH233093   1.251   3.085   1.115 -0.1836  0.2990  0.5163
 3893TIP3    H133094   1.218   3.083   1.204 -1.5444  0.5572  0.0309
 3893TIP3    H233095   1.336   3.041   1.119  0.1319  1.0448  2.0780
 3894TIP3   OH233096   1.951   6.774   4.172 -0.2262  0.2125  0.5239
 3894TIP3    H133097   1.904   6.855   4.150  0.3539 -0.2055 -2.5149
 3894TIP3    H233098   1.925   6.713   4.103 -0.9224 -2.3486  2.9769
 3895TIP3   OH233099   3.654   3.345  11.707 -0.1313 -0.7936  0.4466
 3895TIP3    H133100   3.717   3.275  11.729  0.4957 -0.4486 -0.2238
 3895TIP3    H233101   3.592   3.303  11.648  0.1199 -0.8478  0.2170
 3896TIP3   OH233102   5.688   4.226   1.896 -0.1572  0.2869 -0.3677
 3896TIP3    H133103   5.767   4.181   1.926 -0.4991 -0.3265 -0.3732
 3896TIP3    H233104   5.692   4.312   1.938  1.0312  0.6341 -1.1829
 3897TIP3   OH233105   1.654   3.447   4.387  0.3721 -0.7733 -0.2365
 3897TIP3    H133106   1.589   3.387   4.425  0.1427  0.7384  1.7870
 3897TIP3    H233107   1.739   3.410   4.413  0.2156  0.2497  1.7518
 3898TIP3   OH233108   4.073   3.351   4.462  0.2452 -0.2481  0.0563
 3898TIP3    H133109   4.017   3.273   4.465  0.4433 -0.4022 -0.2459
 3898TIP3    H233110   4.116   3.346   4.377  0.1873  0.2428 -0.0018
 3899TIP3   OH233111   5.836   5.941  17.028  0.2437 -0.8130 -0.0706
 3899TIP3    H133112   5.928   5.962  17.046 -0.5126  0.6757  2.3138
 3899TIP3    H233113   5.819   5.981  16.943  0.7378  2.5317  1.3016
 3900TIP3   OH233114   1.534   4.475  16.466  0.1789  0.2497  0.9742
 3900TIP3    H133115   1.604   4.529  16.504  1.1367 -0.7331  0.6169
 3900TIP3    H233116   1.579   4.396  16.435 -0.9888 -0.0817  0.1202
 3901TIP3   OH233117   5.270   3.668  16.068  0.4883  0.2157  0.3964
 3901TIP3    H133118   5.266   3.675  16.163  1.4802  1.8425  0.3419
 3901TIP3    H233119   5.215   3.592  16.047 -1.0564  0.8065  2.1325
 3902TIP3   OH233120   6.067   5.556   1.286 -0.1430  0.5777 -0.1738
 3902TIP3    H133121   5.988   5.563   1.231 -1.1543  0.6555  1.2690
 3902TIP3    H233122   6.042   5.496   1.356  1.0560  0.7052  0.3624
 3903TIP3   OH233123   2.705   5.767  14.438 -0.2914  0.2482 -0.5017
 3903TIP3    H133124   2.629   5.816  14.405  0.0978  0.5244 -0.9909
 3903TIP3    H233125   2.687   5.755  14.532 -0.3408  1.4236 -0.3541
 3904TIP3   OH233126   4.005   0.746  13.704 -0.0319 -0.5734 -0.0559
 3904TIP3    H133127   3.969   0.706  13.783 -1.3734 -1.3109 -1.0135
 3904TIP3    H233128   3.929   0.789  13.663  0.8759  0.7778 -0.3543
 3905TIP3   OH233129   0.995   2.797  16.824  0.1052 -0.5426  0.0085
 3905TIP3    H133130   0.932   2.852  16.776 -0.2579 -0.7724  0.2129
 3905TIP3    H233131   1.056   2.860  16.863 -1.3860 -0.1264  1.7899
 3906TIP3   OH233132   2.133   3.828   4.771 -0.2220  0.4044  0.1261
 3906TIP3    H133133   2.217   3.784   4.783  0.3769  2.0346  2.2530
 3906TIP3    H233134   2.148   3.888   4.698  0.1398 -0.0272 -0.1618
 3907TIP3   OH233135   0.599   1.974   4.477 -0.2270  0.0549 -0.7396
 3907TIP3    H133136   0.664   1.999   4.411  1.2699  0.5229  0.8599
 3907TIP3    H233137   0.604   2.044   4.543  1.5711 -2.6045  2.0914
 3908TIP3   OH233138   3.410   2.212   2.344  0.1378 -0.2973  0.4293
 3908TIP3    H133139   3.462   2.204   2.264  0.0590  0.1142  0.3351
 3908TIP3    H233140   3.413   2.125   2.383 -2.5493 -1.4099 -1.7103
 3909TIP3   OH233141   4.424   2.453   4.690 -0.2842  0.1421  0.3132
 3909TIP3    H133142   4.378   2.502   4.757 -0.9550  0.5187 -0.4104
 3909TIP3    H233143   4.356   2.427   4.628  0.0070 -1.9648  0.8362
 3910TIP3   OH233144   2.509   5.944  14.321  0.7860 -0.4383 -0.2100
 3910TIP3    H133145   2.529   6.037  14.330 -0.2078 -0.2221 -0.1817
 3910TIP3    H233146   2.443   5.940  14.251  0.6541 -1.0950 -0.0539
 3911TIP3   OH233147   3.858   1.913   2.711 -0.2384 -0.3680 -0.0835
 3911TIP3    H133148   3.811   1.958   2.641  1.7155  1.0656 -0.5205
 3911TIP3    H233149   3.835   1.963   2.790  0.1770  0.0630 -0.2298
 3912TIP3   OH233150   4.642   2.621   3.125  0.8635  0.0154  0.2630
 3912TIP3    H133151   4.728   2.663   3.137  1.0012 -0.1467 -0.1491
 3912TIP3    H233152   4.608   2.659   3.044  0.0842  0.8539  0.9738
 3913TIP3   OH233153   4.186   5.712  16.556  0.0943  0.3406  0.0622
 3913TIP3    H133154   4.097   5.746  16.548 -0.9976 -2.6424 -0.8807
 3913TIP3    H233155   4.241   5.782  16.522 -2.0003  1.5131 -1.0300
 3914TIP3   OH233156   5.622   2.402   2.685 -0.3563 -0.0767  0.4807
 3914TIP3    H133157   5.632   2.342   2.759  0.8993  0.9346  1.1530
 3914TIP3    H233158   5.659   2.485   2.716 -0.8496  0.6757 -0.8953
 3915TIP3   OH233159   3.927   6.570   0.550  0.5968 -0.4771 -0.3862
 3915TIP3    H133160   3.925   6.599   0.459  0.7848  1.7489  0.2967
 3915TIP3    H233161   3.836   6.570   0.578  0.8558  2.6031  0.5580
 3916TIP3   OH233162   4.283   3.577   6.178 -0.2292  0.0569  0.4704
 3916TIP3    H133163   4.276   3.507   6.242 -0.4535  1.5863  2.1560
 3916TIP3    H233164   4.197   3.620   6.180 -0.5016 -0.3634 -1.4429
 3917TIP3   OH233165   5.198   5.994   0.568 -0.0762  0.0988 -0.4358
 3917TIP3    H133166   5.185   6.037   0.483  1.5672  0.3790 -0.5583
 3917TIP3    H233167   5.229   5.907   0.545 -0.3176 -0.0668 -0.1284
 3918TIP3   OH233168   1.296   5.116   3.844  0.3457  0.5588  0.5593
 3918TIP3    H133169   1.383   5.093   3.875  0.9282  0.4004 -1.1200
 3918TIP3    H233170   1.310   5.144   3.753 -1.4351 -0.0717  0.0720
 3919TIP3   OH233171   5.620   3.198   3.770  0.0831  0.0870 -0.3809
 3919TIP3    H133172   5.671   3.150   3.836  1.4344  1.0528 -0.7239
 3919TIP3    H233173   5.530   3.194   3.803  0.5684 -0.4771  0.9068
 3920TIP3   OH233174   4.545   5.320  16.111 -0.2328  0.3359 -0.3062
 3920TIP3    H133175   4.491   5.357  16.181 -1.0013 -0.3256 -0.5307
 3920TIP3    H233176   4.502   5.349  16.030  0.9808  1.5790 -0.5174
 3921TIP3   OH233177   0.302   4.838   3.120  0.8922  0.2369 -0.1117
 3921TIP3    H133178   0.241   4.842   3.046  1.6584 -0.7139 -0.8159
 3921TIP3    H233179   0.341   4.751   3.114  1.8344  0.5929  0.7169
 3922TIP3   OH233180   4.262   0.854   4.891  0.4390 -0.1428  0.3818
 3922TIP3    H133181   4.350   0.846   4.854  0.0275  1.6181 -1.0823
 3922TIP3    H233182   4.204   0.828   4.819 -0.3032  0.8332  0.6196
 3923TIP3   OH233183   0.677   1.349  14.294 -0.0157 -0.0242  0.0819
 3923TIP3    H133184   0.770   1.371  14.297  0.7715 -2.8630 -1.7243
 3923TIP3    H233185   0.638   1.418  14.241  1.3260  0.2902 -0.5299
 3924TIP3   OH233186   4.119   0.212  15.491  0.5145 -0.6288 -0.1488
 3924TIP3    H133187   4.198   0.172  15.455  0.5775  0.4984 -1.3051
 3924TIP3    H233188   4.051   0.195  15.426 -0.0681 -1.0895  0.5673
 3925TIP3   OH233189   5.014   5.887   0.711  0.1520 -0.4074 -0.2884
 3925TIP3    H133190   5.070   5.956   0.675  0.2491 -0.8418 -0.9844
 3925TIP3    H233191   4.973   5.847   0.634 -0.6248 -0.5101  0.1787
 3926TIP3   OH233192   0.954   4.578   2.312  0.0422 -0.2117  0.2647
 3926TIP3    H133193   1.034   4.576   2.366 -0.4027 -0.1737  0.9279
 3926TIP3    H233194   0.919   4.490   2.318  0.0736 -0.2466 -0.0875
 3927TIP3   OH233195   5.321   2.021   2.475  0.1546 -0.4356  0.5585
 3927TIP3    H133196   5.332   2.115   2.459 -0.9109 -0.1909  1.2277
 3927TIP3    H233197   5.234   2.013   2.515  0.2604 -1.7011  0.5634
 3928TIP3   OH233198   4.762   3.323   4.905  0.5727 -0.0062 -0.0812
 3928TIP3    H133199   4.796   3.262   4.970 -0.5819 -0.4481  0.1159
 3928TIP3    H233200   4.781   3.410   4.941 -1.9957 -0.2130  1.9244
 3929TIP3   OH233201   3.092   5.944  11.767 -0.0565 -0.1777  0.4001
 3929TIP3    H133202   3.062   5.998  11.693  0.5888  0.1423  0.3629
 3929TIP3    H233203   3.178   5.980  11.789  1.4842 -2.7066 -1.1970
 3930TIP3   OH233204   3.267   5.157  16.083 -0.4563 -0.3599  0.7595
 3930TIP3    H133205   3.210   5.081  16.092  0.6905 -1.1944  1.0984
 3930TIP3    H233206   3.338   5.127  16.025  0.0040  0.4493  0.8950
 3931TIP3   OH233207   3.527   6.185  14.169  0.7252 -0.6080 -0.1055
 3931TIP3    H133208   3.432   6.168  14.170  0.5006  0.5833  0.7183
 3931TIP3    H233209   3.561   6.135  14.243  0.7150 -0.9558 -0.3384
 3932TIP3   OH233210   4.605   1.865   1.823  1.0842  0.1706  0.1436
 3932TIP3    H133211   4.652   1.838   1.902  1.3986 -1.7562 -0.6836
 3932TIP3    H233212   4.671   1.868   1.755  0.4550 -0.1458 -0.4885
 3933TIP3   OH233213   4.866   1.307   2.054  0.0607 -0.4070 -0.1933
 3933TIP3    H133214   4.916   1.388   2.039  0.2514 -0.4336  0.2957
 3933TIP3    H233215   4.775   1.336   2.062  0.4437  0.1151  2.8972
 3934TIP3   OH233216   4.114   2.091  15.472  0.8260 -0.0836  0.4070
 3934TIP3    H133217   4.184   2.029  15.490 -0.5226 -2.2338 -1.5515
 3934TIP3    H233218   4.091   2.075  15.380 -0.7299  2.1238  0.3757
 3935TIP3   OH233219   1.046   1.437   4.035 -0.1354 -0.8834 -0.8919
 3935TIP3    H133220   1.124   1.461   3.986  0.2743 -1.4569 -0.5213
 3935TIP3    H233221   1.074   1.438   4.127 -1.2284  1.5146 -0.5280
 3936TIP3   OH233222   0.890   5.507   3.422  0.0464  0.3990  0.0727
 3936TIP3    H133223   0.948   5.562   3.473 -0.1435  0.5312  0.1476
 3936TIP3    H233224   0.811   5.560   3.410 -0.5424 -0.2427  1.0390
 3937TIP3   OH233225   2.972   5.814  11.383 -0.1514 -0.4762  0.3947
 3937TIP3    H133226   2.985   5.894  11.433 -1.5034  0.2978 -0.4347
 3937TIP3    H233227   3.037   5.818  11.313  0.8588 -0.9083  1.3047
 3938TIP3   OH233228   3.171   4.413  11.567  0.7089  0.1905 -0.1149
 3938TIP3    H133229   3.131   4.366  11.640  0.8605  0.4568  0.1408
 3938TIP3    H233230   3.156   4.506  11.586  2.8071  0.3797  0.8014
 3939TIP3   OH233231   0.453   1.149  17.078 -0.4033  0.4423 -0.2892
 3939TIP3    H133232   0.495   1.212  17.137  0.0964 -2.0027  2.0326
 3939TIP3    H233233   0.359   1.159  17.095 -0.3119  0.3888  0.2541
 3940TIP3   OH233234   5.377   5.721  12.987  0.1920 -0.3662 -0.6854
 3940TIP3    H133235   5.376   5.757  13.075 -0.8632 -1.2630 -0.3194
 3940TIP3    H233236   5.460   5.751  12.949  1.6737 -1.8004  1.3623
 3941TIP3   OH233237   5.337   2.988  16.543 -0.4319  0.4252  0.4408
 3941TIP3    H133238   5.387   3.061  16.508 -0.5481  0.9624  1.3665
 3941TIP3    H233239   5.284   2.958  16.470 -1.7619  2.4629  0.5185
 3942TIP3   OH233240   5.240   0.056  10.725  0.0454 -0.5757 -0.0211
 3942TIP3    H133241   5.273  -0.027  10.759  0.5986  0.3878  1.8875
 3942TIP3    H233242   5.146   0.054  10.745 -0.1007 -1.0934 -0.7438
 3943TIP3   OH233243   3.615   0.461   0.081 -0.1989  0.1744 -0.3637
 3943TIP3    H133244   3.602   0.551   0.049 -0.9341  0.4749  0.7407
 3943TIP3    H233245   3.567   0.458   0.164  1.1009 -0.7907  0.3669
 3944TIP3   OH233246   3.983   4.469   4.137 -0.1037 -0.0961  0.2536
 3944TIP3    H133247   4.055   4.448   4.196 -1.5773 -4.1063  0.7340
 3944TIP3    H233248   3.951   4.385   4.106 -4.1158  1.5953 -0.5461
 3945TIP3   OH233249   5.479   1.312   6.436  0.0916  0.3040  0.2490
 3945TIP3    H133250   5.399   1.362   6.454 -1.1659 -1.4071 -0.3971
 3945TIP3    H233251   5.525   1.309   6.520 -1.2505  0.0885  0.9949
 3946TIP3   OH233252   1.589   3.951  14.384 -0.0078 -0.2733  0.3942
 3946TIP3    H133253   1.558   3.889  14.450  2.3321 -1.0370  0.7955
 3946TIP3    H233254   1.670   3.986  14.419 -0.5281  1.9506 -0.5141
 3947TIP3   OH233255   4.546   6.457   5.487  0.2305 -0.1401 -0.3295
 3947TIP3    H133256   4.495   6.398   5.542 -1.0197  0.7236 -0.5308
 3947TIP3    H233257   4.605   6.502   5.548  0.5220 -0.9121 -0.0445
 3948TIP3   OH233258   6.781   0.276   3.927 -0.0133 -0.5317  0.0512
 3948TIP3    H133259   6.698   0.229   3.938 -0.0648 -0.6353 -0.7373
 3948TIP3    H233260   6.788   0.290   3.832  0.0198  1.0236  0.2811
 3949TIP3   OH233261   5.326   2.340  10.863 -0.3061  0.1815 -0.2143
 3949TIP3    H133262   5.259   2.298  10.809 -1.4090  0.2274  1.0770
 3949TIP3    H233263   5.312   2.434  10.852 -0.1424  0.1951 -0.3140
 3950TIP3   OH233264   2.304   3.481  12.875  0.2602  0.1120 -0.5186
 3950TIP3    H133265   2.367   3.426  12.922 -0.8257  1.0488  2.1406
 3950TIP3    H233266   2.322   3.570  12.908 -2.4772  0.3820  0.3374
 3951TIP3   OH233267   6.136   5.465   3.660 -0.5962 -0.1049  0.2371
 3951TIP3    H133268   6.159   5.372   3.666  2.5376  0.6524  1.0319
 3951TIP3    H233269   6.077   5.471   3.585  0.0981 -2.5470 -0.5398
 3952TIP3   OH233270   3.387   5.137   5.091 -0.0001  0.0757 -0.6598
 3952TIP3    H133271   3.431   5.163   5.010  0.3037  1.2567 -0.1261
 3952TIP3    H233272   3.367   5.220   5.135  1.0119 -0.5683  1.0861
 3953TIP3   OH233273   2.763   5.050   6.288 -0.8126  0.4169 -0.0487
 3953TIP3    H133274   2.795   4.991   6.355 -2.0652  0.0304  0.2315
 3953TIP3    H233275   2.841   5.079   6.241  0.1227  0.9930  1.8159
 3954TIP3   OH233276   2.733   0.917  15.301  0.0541  0.8700  0.0622
 3954TIP3    H133277   2.786   0.880  15.372  0.8865  2.7926  0.4584
 3954TIP3    H233278   2.652   0.867  15.304  1.0946 -0.8400  0.6697
 3955TIP3   OH233279   3.261   1.494  14.228 -0.4883 -0.2019  0.1616
 3955TIP3    H133280   3.314   1.568  14.198  1.2415 -1.4583 -0.0024
 3955TIP3    H233281   3.278   1.425  14.164  0.2852 -1.6986  1.9346
 3956TIP3   OH233282   2.250   0.068  14.311 -0.3529  0.0782  0.0447
 3956TIP3    H133283   2.311   0.072  14.237  0.0132 -1.9469  0.1900
 3956TIP3    H233284   2.235   0.159  14.335  0.9244  0.6930 -1.3821
 3957TIP3   OH233285   2.847   4.673  15.911 -0.0678 -0.2762 -0.3430
 3957TIP3    H133286   2.907   4.623  15.856  0.2145 -1.4247  1.0120
 3957TIP3    H233287   2.761   4.637  15.891  0.2546 -2.0802  1.4550
 3958TIP3   OH233288   3.245   1.492  16.658  0.0774 -0.6773 -0.1407
 3958TIP3    H133289   3.220   1.409  16.619 -1.1691  0.0417 -0.9055
 3958TIP3    H233290   3.340   1.496  16.648 -0.2623 -0.2523 -3.6160
 3959TIP3   OH233291   4.299   0.295   5.802 -0.0813 -0.1635  0.0215
 3959TIP3    H133292   4.238   0.270   5.871 -1.8965  1.1751 -1.0320
 3959TIP3    H233293   4.361   0.354   5.845 -0.3610 -0.4249  0.7967
 3960TIP3   OH233294   2.615   1.865   6.560 -0.0165  0.3563 -0.2931
 3960TIP3    H133295   2.536   1.891   6.512 -0.9780  0.2393  1.2132
 3960TIP3    H233296   2.615   1.769   6.555 -0.8344  0.2817  1.0714
 3961TIP3   OH233297   5.430   0.423  13.975 -0.1532  0.0915 -0.2914
 3961TIP3    H133298   5.377   0.360  13.926 -1.2939  2.5598 -2.3102
 3961TIP3    H233299   5.375   0.446  14.050 -0.4124 -0.0741 -0.4279
 3962TIP3   OH233300   6.075   6.315  13.031  0.5873  0.5198  0.1650
 3962TIP3    H133301   6.066   6.410  13.045  1.8667  0.4940  1.3204
 3962TIP3    H233302   6.116   6.283  13.112  1.2543 -0.8323 -0.6901
 3963TIP3   OH233303   5.946   4.141   4.521  0.2849 -0.3012  0.2051
 3963TIP3    H133304   5.917   4.079   4.454 -0.6982 -0.4628  0.7586
 3963TIP3    H233305   5.957   4.224   4.474 -1.5367 -0.1272  0.0345
 3964TIP3   OH233306   5.809   6.424  15.396 -0.6618 -0.4830 -0.4157
 3964TIP3    H133307   5.738   6.360  15.404 -0.2996 -0.9443 -0.8609
 3964TIP3    H233308   5.888   6.371  15.387 -0.4733  0.0164 -1.7476
 3965TIP3   OH233309   0.774   3.173   2.932 -0.3090 -0.1462 -0.3214
 3965TIP3    H133310   0.748   3.097   2.984 -0.9402  1.0267  1.1269
 3965TIP3    H233311   0.736   3.248   2.978  0.9371  1.1251 -1.2939
 3966TIP3   OH233312   5.962   4.174  12.345 -0.1559 -1.0567  0.4200
 3966TIP3    H133313   5.920   4.232  12.408 -3.4469 -0.0922 -2.4910
 3966TIP3    H233314   6.018   4.233  12.293  1.0219 -1.5138  1.1526
 3967TIP3   OH233315   1.501   1.697  13.725  0.1238  0.7246 -0.1310
 3967TIP3    H133316   1.512   1.604  13.707  0.7027  0.6293  0.6859
 3967TIP3    H233317   1.406   1.708  13.737  0.1290  0.0865  0.5433
 3968TIP3   OH233318   5.492   5.918  17.222  0.2803 -0.4932  0.0103
 3968TIP3    H133319   5.449   5.861  17.159 -0.3564 -0.5709  0.5164
 3968TIP3    H233320   5.506   6.000  17.174 -1.0774 -0.2196  0.0653
 3969TIP3   OH233321   3.734   0.656   3.572  0.1147  0.3459 -0.2992
 3969TIP3    H133322   3.673   0.591   3.605  0.3277  0.1761 -0.2365
 3969TIP3    H233323   3.766   0.701   3.650  2.6442 -1.8438 -0.0038
 3970TIP3   OH233324   1.732   0.986   3.032 -0.1300 -0.5501 -0.1771
 3970TIP3    H133325   1.795   0.964   3.101 -0.2124  0.5033  0.2457
 3970TIP3    H233326   1.749   0.922   2.962  0.0729 -1.5086  0.7402
 3971TIP3   OH233327   5.958   6.155  13.623 -0.1588  0.1820  0.4971
 3971TIP3    H133328   5.899   6.082  13.606 -1.3988  1.4200 -0.6417
 3971TIP3    H233329   5.941   6.180  13.713 -0.2460 -0.4788  0.6649
 3972TIP3   OH233330   4.693   2.778  14.857  0.7726  0.5893 -0.3587
 3972TIP3    H133331   4.605   2.764  14.891  0.8311  0.6650 -0.1752
 3972TIP3    H233332   4.680   2.822  14.773  0.5888 -0.5023 -0.9115
 3973TIP3   OH233333   4.345   5.472  11.686  0.1298 -0.7260 -0.3814
 3973TIP3    H133334   4.383   5.515  11.609 -0.0316 -0.0088 -0.0645
 3973TIP3    H233335   4.269   5.527  11.708  0.3648 -0.7505  0.4783
 3974TIP3   OH233336   3.381   2.699  11.961 -0.2367 -0.1919  0.9920
 3974TIP3    H133337   3.296   2.741  11.949 -0.2224 -0.5985 -0.6190
 3974TIP3    H233338   3.437   2.741  11.896  0.1174 -1.7796  0.2498
 3975TIP3   OH233339   5.366   4.015  15.171 -0.2665 -0.2504  0.3613
 3975TIP3    H133340   5.339   3.983  15.085  1.0912  0.2045 -0.2386
 3975TIP3    H233341   5.285   4.048  15.210 -0.7320  0.4020 -1.1127
 3976TIP3   OH233342   6.579   3.341   1.771  0.2870 -0.3132  0.0311
 3976TIP3    H133343   6.574   3.301   1.684 -2.8960 -0.0642  0.0381
 3976TIP3    H233344   6.492   3.329   1.808  0.9029  1.6821  2.2599
 3977TIP3   OH233345   2.387   2.846   5.247 -0.2392  0.1295 -0.4915
 3977TIP3    H133346   2.430   2.931   5.258  0.2711 -0.2452  0.3984
 3977TIP3    H233347   2.454   2.781   5.269 -0.2839 -0.5524 -2.2249
 3978TIP3   OH233348   1.489   6.219  15.443 -0.2390 -0.5120  0.0748
 3978TIP3    H133349   1.458   6.232  15.533 -0.5822 -0.7174 -0.0135
 3978TIP3    H233350   1.584   6.209  15.452 -0.2186 -0.0902  0.3663
 3979TIP3   OH233351   2.460   5.206   3.084  0.3746  0.7867  0.3671
 3979TIP3    H133352   2.544   5.221   3.127  0.0727  2.4011  0.4422
 3979TIP3    H233353   2.463   5.262   3.006  0.5194 -1.3331 -1.2003
 3980TIP3   OH233354   3.098   4.437   2.005 -0.3506  0.0201  0.4187
 3980TIP3    H133355   3.175   4.394   1.967  0.8053  2.0256  0.4411
 3980TIP3    H233356   3.104   4.420   2.098  0.0088  0.0702  0.4052
 3981TIP3   OH233357   5.179   6.458   4.148  0.1053  0.1411 -0.6399
 3981TIP3    H133358   5.121   6.389   4.180  0.5301 -1.0273 -2.3201
 3981TIP3    H233359   5.234   6.481   4.223 -1.6767  0.4086  0.6320
 3982TIP3   OH233360   4.430   5.969   0.050  0.5426  0.4832 -0.1651
 3982TIP3    H133361   4.427   5.945  -0.043 -0.6452  2.9480 -0.8094
 3982TIP3    H233362   4.353   5.928   0.088  0.8916 -0.3226 -0.3285
 3983TIP3   OH233363   4.257   5.157  12.168 -0.2126  0.3246 -0.6287
 3983TIP3    H133364   4.269   5.205  12.250 -0.2267  0.0753 -0.4815
 3983TIP3    H233365   4.253   5.226  12.101 -2.4712  0.6938 -0.1670
 3984TIP3   OH233366   0.737   5.066  12.229  0.1361 -0.5892 -0.2589
 3984TIP3    H133367   0.787   5.024  12.299 -0.9787 -0.3562  0.7071
 3984TIP3    H233368   0.786   5.145  12.207 -0.1673  0.0311  1.2019
 3985TIP3   OH233369   1.664   4.671  12.032 -0.1760  0.2923 -0.3982
 3985TIP3    H133370   1.582   4.680  11.984 -1.0961  1.7443  1.3899
 3985TIP3    H233371   1.683   4.577  12.030 -1.7494 -0.0263 -1.0064
 3986TIP3   OH233372   5.869   5.330  15.576  0.2215  0.0543 -0.4371
 3986TIP3    H133373   5.830   5.333  15.663 -0.4994 -0.8623 -0.7338
 3986TIP3    H233374   5.796   5.315  15.517  1.0558 -2.0767 -0.9601
 3987TIP3   OH233375   0.685   5.037  16.586 -0.3488  0.9401  0.6491
 3987TIP3    H133376   0.774   5.018  16.617  0.5943  0.9413 -1.9589
 3987TIP3    H233377   0.669   5.127  16.615  1.1221  1.4986 -0.2047
 3988TIP3   OH233378   3.410   1.604   1.606  0.5338 -0.6598  0.2426
 3988TIP3    H133379   3.333   1.555   1.635  0.1343  0.0381  0.3764
 3988TIP3    H233380   3.389   1.695   1.626  1.5318 -0.4999  0.5818
 3989TIP3   OH233381   6.195   1.229  15.732  1.0259 -0.2069  0.2739
 3989TIP3    H133382   6.240   1.295  15.680  2.1695  0.6759  2.2998
 3989TIP3    H233383   6.184   1.270  15.818  0.5122 -2.1262  1.1568
 3990TIP3   OH233384   5.714   2.103  14.713 -0.5581 -0.4024  0.0085
 3990TIP3    H133385   5.707   2.038  14.643  2.0710 -0.6959 -0.0123
 3990TIP3    H233386   5.742   2.183  14.670  0.8198 -0.5140  0.6821
 3991TIP3   OH233387   2.776   0.548   5.595  0.0030 -0.2299  0.4111
 3991TIP3    H133388   2.821   0.630   5.573 -0.1923 -0.0797  0.5650
 3991TIP3    H233389   2.846   0.486   5.614  0.2183 -0.7315 -1.9087
 3992TIP3   OH233390   3.121   1.960   3.415  0.6442 -0.1661 -0.2146
 3992TIP3    H133391   3.142   1.876   3.374  0.7573 -0.5105  0.5473
 3992TIP3    H233392   3.179   2.022   3.373  0.8529 -0.5447 -0.4882
 3993TIP3   OH233393   6.442   4.115   4.277  0.0916 -0.6111 -0.0216
 3993TIP3    H133394   6.490   4.050   4.329  0.9330 -0.0799 -0.1208
 3993TIP3    H233395   6.391   4.164   4.342 -0.6381 -1.4450  0.0385
 3994TIP3   OH233396   4.024   1.273   2.082  0.3271  0.6611 -0.4613
 3994TIP3    H133397   3.994   1.236   2.165 -1.2270 -0.2300 -1.3895
 3994TIP3    H233398   4.051   1.362   2.104  0.3915  0.2735  1.0823
 3995TIP3   OH233399   3.693   2.846  14.977 -0.4017  0.3686  0.7027
 3995TIP3    H133400   3.670   2.936  15.001 -1.1439  0.1429  0.8457
 3995TIP3    H233401   3.784   2.852  14.948 -1.2110  1.6082 -1.7037
 3996TIP3   OH233402   6.577   1.666  12.378  0.3621  0.3932 -0.1624
 3996TIP3    H133403   6.651   1.689  12.322 -0.7739 -0.6275 -2.1043
 3996TIP3    H233404   6.514   1.624  12.320 -1.1261 -0.1066  1.7529
 3997TIP3   OH233405   0.407   0.567  14.855  0.1038 -0.3515 -0.0145
 3997TIP3    H133406   0.470   0.629  14.819 -0.3769  0.4821  0.5802
 3997TIP3    H233407   0.358   0.536  14.779 -0.7646  1.2393 -0.1032
 3998TIP3   OH233408   0.646   1.090  10.981  0.0029 -0.3345 -0.2407
 3998TIP3    H133409   0.651   1.186  10.988 -0.2490 -0.2335 -1.3424
 3998TIP3    H233410   0.624   1.074  10.890 -1.9403 -1.3984  0.3980
 3999TIP3   OH233411   3.972   1.281  13.144 -0.0649 -0.3080 -0.5123
 3999TIP3    H133412   3.924   1.226  13.083  0.5588 -0.2520 -1.0437
 3999TIP3    H233413   3.908   1.300  13.213 -0.0992 -2.1630 -0.0232
 4000TIP3   OH233414   3.300   5.746  15.636 -0.4250  0.0878 -1.1358
 4000TIP3    H133415   3.367   5.768  15.700 -1.3527 -0.2864 -0.0213
 4000TIP3    H233416   3.218   5.752  15.684 -1.1510 -0.0781 -2.3207
 4001TIP3   OH233417   5.220   4.971  16.919 -0.0638 -0.7954  0.0560
 4001TIP3    H133418   5.227   4.893  16.865 -0.4543 -0.2214 -0.8361
 4001TIP3    H233419   5.275   4.953  16.995 -0.2359 -1.9753 -0.0989
 4002TIP3   OH233420   1.557   1.631   2.795  0.7972 -0.1939 -0.5283
 4002TIP3    H133421   1.570   1.541   2.764  0.5234  0.6637 -3.2486
 4002TIP3    H233422   1.462   1.637   2.808  1.0030 -0.8449  1.5551
 4003TIP3   OH233423   1.687   2.538   0.491 -0.4362  0.0739  0.0880
 4003TIP3    H133424   1.722   2.626   0.508  1.7598 -0.9485  1.0373
 4003TIP3    H233425   1.601   2.538   0.534  0.5983  0.9635  2.2465
 4004TIP3   OH233426   2.883   1.477  12.700  0.2267  0.2016  0.0674
 4004TIP3    H133427   2.832   1.509  12.626  0.8446  1.0316 -0.0058
 4004TIP3    H233428   2.828   1.409  12.740 -1.1814  1.4720  0.3246
 4005TIP3   OH233429   1.333   5.503   1.401  0.1212 -0.0417 -0.1452
 4005TIP3    H133430   1.391   5.573   1.430 -0.7090  1.8226 -2.6951
 4005TIP3    H233431   1.386   5.451   1.341 -0.6828  1.4886 -2.2456
 4006TIP3   OH233432   5.353   6.347   6.503  0.2253  1.2122 -0.3034
 4006TIP3    H133433   5.366   6.296   6.423  0.7446  0.2280  0.3951
 4006TIP3    H233434   5.354   6.282   6.574 -3.2721  1.6900  0.2802
 4007TIP3   OH233435   3.575   4.233   4.079  0.3698 -0.1370 -0.7094
 4007TIP3    H133436   3.657   4.224   4.128 -0.9666 -0.1275  1.6339
 4007TIP3    H233437   3.550   4.143   4.058  0.9091 -0.1472 -1.3282
 4008TIP3   OH233438   1.228   0.496  16.445  0.2822 -0.2926 -0.1488
 4008TIP3    H133439   1.201   0.416  16.399  1.9076  0.0297 -1.7534
 4008TIP3    H233440   1.289   0.465  16.512 -0.7065 -0.5882  0.6260
 4009TIP3   OH233441   4.770   3.559   4.049 -0.3953 -0.2541  0.2819
 4009TIP3    H133442   4.719   3.478   4.056  1.9796 -1.7228  1.0007
 4009TIP3    H233443   4.842   3.537   3.990  1.4867  0.6765  2.1753
 4010TIP3   OH233444   1.786   1.583  16.137  0.0232 -0.3356  0.4582
 4010TIP3    H133445   1.702   1.538  16.143 -0.1360  0.1125  1.7864
 4010TIP3    H233446   1.763   1.675  16.121  0.1751  0.2016  3.1960
 4011TIP3   OH233447   4.917   0.185   1.574 -0.0202  0.1743 -0.1012
 4011TIP3    H133448   4.933   0.117   1.639  1.2137  0.1277 -0.4292
 4011TIP3    H233449   4.852   0.148   1.515 -1.7461  0.5237  1.5587
 4012TIP3   OH233450   2.798   3.523  14.735  0.1520  0.2394 -0.5973
 4012TIP3    H133451   2.869   3.497  14.794 -0.4711  0.4578  0.2544
 4012TIP3    H233452   2.729   3.557  14.793 -1.0798 -0.9656 -1.3195
 4013TIP3   OH233453   3.896   3.173   0.664  0.3311  0.5821 -0.0484
 4013TIP3    H133454   3.892   3.267   0.650  2.4640  0.6756 -0.2211
 4013TIP3    H233455   3.830   3.137   0.605 -0.8344  1.9755  0.3624
 4014TIP3   OH233456   5.902   6.483   0.935 -0.2247 -0.0191 -0.2816
 4014TIP3    H133457   5.917   6.547   0.865  1.9404  1.4961  1.5088
 4014TIP3    H233458   5.954   6.407   0.910  0.3981  0.4519 -0.4465
 4015TIP3   OH233459   0.852   3.919  16.609  0.7114 -0.8319  0.1442
 4015TIP3    H133460   0.876   3.939  16.700  0.9298 -0.7467  0.0664
 4015TIP3    H233461   0.757   3.934  16.606  0.9686  0.8535 -0.0814
 4016TIP3   OH233462   1.454   1.603  14.501 -0.3294 -0.0866  0.3895
 4016TIP3    H133463   1.453   1.610  14.405  0.4405 -0.2922  0.3641
 4016TIP3    H233464   1.547   1.608  14.524 -0.6693  2.3888  1.3201
 4017TIP3   OH233465   2.874   6.709  12.281 -0.3486 -0.0387  1.1062
 4017TIP3    H133466   2.786   6.699  12.316  0.3216 -1.9569  2.3092
 4017TIP3    H233467   2.929   6.655  12.338  1.4161  0.1531 -0.3619
 4018TIP3   OH233468   2.430   4.519   5.590 -0.1957 -0.6223 -0.4887
 4018TIP3    H133469   2.498   4.571   5.547 -0.4679 -0.2346 -0.4471
 4018TIP3    H233470   2.408   4.451   5.527  1.4014 -1.7386  0.1311
 4019TIP3   OH233471   3.364   1.663  15.157  1.0674 -0.5238  0.2004
 4019TIP3    H133472   3.381   1.595  15.091  1.2160 -1.3072  1.0306
 4019TIP3    H233473   3.358   1.615  15.239 -1.6156  0.1386  0.4479
 4020TIP3   OH233474   1.900   4.799   6.395 -0.6145  0.3640 -0.4079
 4020TIP3    H133475   1.858   4.865   6.340  0.2076  0.7409 -0.5841
 4020TIP3    H233476   1.840   4.724   6.391 -0.8739  0.6051 -1.3105
 4021TIP3   OH233477   1.356   2.129   1.758  0.2044  0.3059 -0.1811
 4021TIP3    H133478   1.262   2.112   1.748  0.1274  1.0252 -0.7255
 4021TIP3    H233479   1.381   2.083   1.838 -0.8418  1.0190  0.5567
 4022TIP3   OH233480   1.557   3.972   1.716  0.0113  0.1572 -0.2169
 4022TIP3    H133481   1.506   3.959   1.637 -1.0097  1.3251  0.2421
 4022TIP3    H233482   1.560   4.067   1.728  1.5734  0.0727  0.2212
 4023TIP3   OH233483   5.274   3.229  14.070 -0.2541 -0.7968 -0.0401
 4023TIP3    H133484   5.342   3.161  14.072  1.0328  0.4911  1.1397
 4023TIP3    H233485   5.313   3.304  14.115 -2.2664  0.1688  0.1731
 4024TIP3   OH233486   4.651   6.289   2.114  0.0496  0.2738  0.1989
 4024TIP3    H133487   4.701   6.305   2.033  0.0433 -2.4106 -0.3710
 4024TIP3    H233488   4.612   6.203   2.101 -3.1749  1.4669  1.4633
 4025TIP3   OH233489   6.475   1.228   5.548  0.4291 -0.3142  0.2978
 4025TIP3    H133490   6.463   1.208   5.455  1.5596  1.0111 -0.1519
 4025TIP3    H233491   6.427   1.310   5.560 -0.7956 -1.1357  1.2020
 4026TIP3   OH233492   0.854   0.395  16.666  0.5744  0.1192 -0.2335
 4026TIP3    H133493   0.861   0.449  16.744 -0.9370  0.5284 -0.3680
 4026TIP3    H233494   0.799   0.321  16.692  2.2463 -1.1450 -0.1843
 4027TIP3   OH233495   1.924   5.752   5.365  0.0414 -0.1963  0.1856
 4027TIP3    H133496   1.832   5.750   5.392  0.3585  1.7196  1.5220
 4027TIP3    H233497   1.969   5.697   5.429  0.1320  0.6541  0.8614
 4028TIP3   OH233498   4.245   5.861   3.491  0.0461  0.2196 -0.2649
 4028TIP3    H133499   4.328   5.837   3.533  0.5228 -0.5061 -1.5857
 4028TIP3    H233500   4.242   5.957   3.496  0.2098  0.1499  1.1994
 4029TIP3   OH233501   2.729   4.135   5.564 -0.3275 -0.0774  0.3908
 4029TIP3    H133502   2.785   4.190   5.511 -1.1074 -0.6935 -1.1172
 4029TIP3    H233503   2.672   4.196   5.611 -0.1162  0.4558 -0.0440
 4030TIP3   OH233504   0.115   0.562   4.185 -0.1124 -0.3415 -0.2053
 4030TIP3    H133505   0.052   0.554   4.257 -1.2216 -0.0714 -1.1237
 4030TIP3    H233506   0.104   0.652   4.154 -1.1761 -1.0925 -2.0798
 4031TIP3   OH233507   3.076   3.380  13.588 -0.1831 -0.0635 -0.8147
 4031TIP3    H133508   3.137   3.379  13.515  0.9248  1.8245  0.0411
 4031TIP3    H233509   3.038   3.468  13.586 -1.1468 -0.4432  0.0828
 4032TIP3   OH233510   2.349   2.656  15.811 -0.4001 -0.7070 -0.2273
 4032TIP3    H133511   2.426   2.684  15.862 -0.4645 -0.7614 -0.1007
 4032TIP3    H233512   2.306   2.738  15.787 -0.5444 -0.6908  0.0765
 4033TIP3   OH233513   6.045   5.116   0.786 -0.8053  0.5020 -0.7969
 4033TIP3    H133514   5.987   5.107   0.862  1.1221  1.3792  0.8334
 4033TIP3    H233515   6.087   5.030   0.777  0.1672  0.8769  0.1438
 4034TIP3   OH233516   1.588   3.673  17.036  0.0549  0.2342  0.1796
 4034TIP3    H133517   1.500   3.661  17.070 -0.4032  0.2725 -0.9659
 4034TIP3    H233518   1.609   3.590  16.994  0.3079  0.4490 -0.1234
 4035TIP3   OH233519   2.813   3.337   0.025 -0.5903  0.4056 -0.1838
 4035TIP3    H133520   2.791   3.347  -0.068  1.2719  0.6641 -0.6171
 4035TIP3    H233521   2.906   3.311   0.025 -0.6978 -0.0524  1.5861
 4036TIP3   OH233522   3.961   4.035  13.875 -0.7264 -0.5284 -0.7525
 4036TIP3    H133523   4.000   4.065  13.793  0.7005 -1.4515 -0.4244
 4036TIP3    H233524   3.991   3.944  13.884 -0.1968 -0.1810  1.1993
 4037TIP3   OH233525   2.532   4.279   1.172  0.0420 -0.1269  0.7070
 4037TIP3    H133526   2.581   4.228   1.107 -1.5941 -1.0182  0.1351
 4037TIP3    H233527   2.528   4.223   1.249  1.2566  0.5896  1.3061
 4038TIP3   OH233528   2.040   4.936  13.691  0.4256 -0.3815  0.5737
 4038TIP3    H133529   1.952   4.898  13.681 -0.1101  1.3816 -2.0396
 4038TIP3    H233530   2.099   4.869  13.656 -0.0819 -0.6714  0.2645
 4039TIP3   OH233531   5.234   2.466  14.325  0.5428  0.4884  0.0578
 4039TIP3    H133532   5.236   2.395  14.260  0.2490 -0.5984  1.2190
 4039TIP3    H233533   5.156   2.517  14.301  1.1581  0.8523 -1.2224
 4040TIP3   OH233534   3.327   0.390  10.930  0.3563  0.2598  0.2749
 4040TIP3    H133535   3.242   0.344  10.929  0.5627 -0.1453  0.9419
 4040TIP3    H233536   3.385   0.330  10.977  0.2465  1.8972  2.5758
 4041TIP3   OH233537   4.406   5.854  16.230  0.2037  0.1392 -0.2197
 4041TIP3    H133538   4.325   5.814  16.199  0.2455 -0.2553  0.1651
 4041TIP3    H233539   4.382   5.944  16.252 -0.3317 -0.2073  0.6827
 4042TIP3   OH233540   0.711   0.420   5.421 -0.1418 -0.3145  0.2998
 4042TIP3    H133541   0.696   0.374   5.338  0.9961 -0.0978 -0.0282
 4042TIP3    H233542   0.747   0.353   5.479  0.0432 -0.2116  0.3025
 4043TIP3   OH233543   4.415   2.826  15.677  0.2799 -0.2168  0.4391
 4043TIP3    H133544   4.414   2.907  15.728  0.6265  0.3423 -0.4235
 4043TIP3    H233545   4.508   2.806  15.665  0.1949 -0.7633  0.6719
 4044TIP3   OH233546   5.448   5.758  15.371  0.3395 -0.2551  0.1255
 4044TIP3    H133547   5.493   5.827  15.421  1.4535  0.5145 -1.8752
 4044TIP3    H233548   5.364   5.796  15.346 -0.2177 -0.6388  1.3668
 4045TIP3   OH233549   4.785   0.845  17.211 -0.1093  0.7322 -0.4476
 4045TIP3    H133550   4.751   0.805  17.292 -0.8479  1.5484 -0.3524
 4045TIP3    H233551   4.751   0.788  17.141 -0.0275  0.4098 -0.2325
 4046TIP3   OH233552   0.721   5.188  14.740 -0.1378  0.0243  0.3584
 4046TIP3    H133553   0.657   5.242  14.788  0.5700 -0.8056  2.3032
 4046TIP3    H233554   0.799   5.189  14.796  0.9385 -0.4808 -1.1022
 4047TIP3   OH233555   5.439   5.194  16.079 -0.0959 -0.0383  0.1437
 4047TIP3    H133556   5.458   5.123  16.140  1.7220  0.2024 -0.1240
 4047TIP3    H233557   5.361   5.237  16.116 -0.8268 -1.7401  0.6484
 4048TIP3   OH233558   1.066   5.596  14.905  0.4214  0.1036 -0.3916
 4048TIP3    H133559   0.983   5.592  14.857  0.1855 -2.4331  0.1830
 4048TIP3    H233560   1.067   5.684  14.942 -1.6147  0.4647 -1.1021
 4049TIP3   OH233561   6.313   1.480  15.704 -0.7425  0.2758  0.1383
 4049TIP3    H133562   6.367   1.558  15.693 -0.8155  0.2581 -0.3887
 4049TIP3    H233563   6.306   1.468  15.798  1.6968 -0.7752  0.2118
 4050TIP3   OH233564   6.344   1.667   2.676  0.2893  0.0940  0.1975
 4050TIP3    H133565   6.259   1.637   2.641  0.2254  0.7816 -0.2524
 4050TIP3    H233566   6.320   1.726   2.747  0.3981 -0.1457  0.4306
 4051TIP3   OH233567   4.418   5.983  13.644  0.0732 -0.1091  0.3619
 4051TIP3    H133568   4.403   5.921  13.573  2.1794  0.5527 -0.7369
 4051TIP3    H233569   4.394   5.936  13.724 -4.1049 -0.2406 -0.8917
 4052TIP3   OH233570   5.910   4.224  14.354  0.3037 -0.4100 -0.1164
 4052TIP3    H133571   5.851   4.149  14.362  1.1430 -0.9613  1.1877
 4052TIP3    H233572   5.854   4.301  14.356 -0.5649 -1.0015 -1.3899
 4053TIP3   OH233573   2.951   4.029   3.148  0.4506  0.3470  0.5946
 4053TIP3    H133574   2.911   3.954   3.193  0.5069  0.5693  1.0213
 4053TIP3    H233575   2.966   4.093   3.218  1.8852  0.1268  0.4991
 4054TIP3   OH233576   3.669   5.426   2.066 -0.1606 -0.7586  0.0562
 4054TIP3    H133577   3.707   5.345   2.100  2.7848  0.2020 -0.7936
 4054TIP3    H233578   3.706   5.494   2.122  0.8604  0.3773 -1.9691
 4055TIP3   OH233579   3.933   5.813   5.819 -0.3710  0.6693  0.1483
 4055TIP3    H133580   3.880   5.820   5.898 -1.7351  0.3749 -0.7334
 4055TIP3    H233581   3.924   5.897   5.775 -1.0088  0.2402 -0.5580
 4056TIP3   OH233582   2.316   1.375  14.079 -0.0891 -0.0312  0.3422
 4056TIP3    H133583   2.253   1.305  14.098  1.4275 -1.4259  0.3102
 4056TIP3    H233584   2.351   1.354  13.993 -0.3799  1.3686 -0.1428
 4057TIP3   OH233585   3.490   4.128  15.716  0.0047 -0.0421  0.2384
 4057TIP3    H133586   3.506   4.219  15.691  1.4071  0.0566  1.4646
 4057TIP3    H233587   3.415   4.132  15.776 -1.4163  0.0382 -1.5049
 4058TIP3   OH233588   4.374   5.902  13.903 -0.5013 -0.2973 -0.7418
 4058TIP3    H133589   4.287   5.862  13.912  0.1992 -1.6965 -0.0243
 4058TIP3    H233590   4.435   5.829  13.915  0.8270  1.0950  1.2017
 4059TIP3   OH233591   5.565   5.038   5.389  0.3276  0.5791 -0.2376
 4059TIP3    H133592   5.559   4.970   5.457  0.3356  0.0289 -0.7758
 4059TIP3    H233593   5.556   4.989   5.306  0.9851  1.1590 -0.6509
 4060TIP3   OH233594   6.142   4.978  12.924 -0.3725 -0.6088  0.2841
 4060TIP3    H133595   6.150   4.950  13.015 -0.1983 -0.4461  0.3193
 4060TIP3    H233596   6.208   4.928  12.877  0.0959 -0.0944  0.3866
 4061TIP3   OH233597   3.916   4.336  16.365 -0.4296  0.3822 -0.0439
 4061TIP3    H133598   3.925   4.243  16.348 -0.5062  0.7071 -1.9790
 4061TIP3    H233599   3.987   4.357  16.426  1.4155 -0.3922 -1.8690
 4062TIP3   OH233600   1.340   5.682   5.728  0.5231  0.7174  0.6351
 4062TIP3    H133601   1.247   5.666   5.713  0.6204  1.2729 -0.6338
 4062TIP3    H233602   1.376   5.596   5.748 -0.1478  0.4024  0.5004
 4063TIP3   OH233603   3.642   2.630   1.195 -0.9611 -0.1221 -0.0999
 4063TIP3    H133604   3.576   2.561   1.197 -0.2936 -0.7813 -0.5333
 4063TIP3    H233605   3.634   2.673   1.280 -1.4168 -0.7006  0.1531
 4064TIP3   OH233606   2.446   0.803  17.098  0.2326  0.7130 -0.4690
 4064TIP3    H133607   2.529   0.781  17.141  0.8700  3.3598 -0.2145
 4064TIP3    H233608   2.382   0.744  17.137  1.7378 -0.4306  0.3555
 4065TIP3   OH233609   3.523   1.493  16.626  0.0064  0.8547 -0.4816
 4065TIP3    H133610   3.574   1.419  16.592 -1.5550 -0.6926  0.4163
 4065TIP3    H233611   3.536   1.488  16.721 -1.7284  0.4667 -0.2469
 4066TIP3   OH233612   0.243   2.825   5.328 -0.2712  0.0775  0.2957
 4066TIP3    H133613   0.154   2.838   5.359 -1.3207 -3.6664 -0.9301
 4066TIP3    H233614   0.287   2.779   5.399  0.2350  0.4665  0.2402
 4067TIP3   OH233615   5.669   1.934  13.563 -0.3010 -0.2721  0.1187
 4067TIP3    H133616   5.696   1.978  13.483 -1.3157 -0.0827 -0.1375
 4067TIP3    H233617   5.590   1.981  13.591 -0.6018 -1.0456  0.6075
 4068TIP3   OH233618   3.028   4.936   1.423 -0.6421  1.6004 -0.2809
 4068TIP3    H133619   2.956   4.919   1.484 -0.5317  2.4031  0.0806
 4068TIP3    H233620   3.080   5.004   1.465  0.9715  0.2416 -0.0191
 4069TIP3   OH233621   0.127   1.708   5.542 -0.3208 -0.1958  1.1309
 4069TIP3    H133622   0.036   1.718   5.570 -0.3306  1.1947  0.6472
 4069TIP3    H233623   0.171   1.787   5.574  0.2459  0.1328 -0.4218
 4070TIP3   OH233624   2.720   3.590  13.699 -0.1788 -0.3523 -0.1927
 4070TIP3    H133625   2.690   3.678  13.677  1.1859  0.3401  0.6576
 4070TIP3    H233626   2.646   3.550  13.744 -0.7160  0.4551 -0.3574
 4071TIP3   OH233627   0.895   6.690  15.419  0.1106 -0.3396 -0.1494
 4071TIP3    H133628   0.897   6.783  15.440  0.1909 -0.5289  0.7082
 4071TIP3    H233629   0.987   6.663  15.417  0.0489 -0.7609  1.3322
 4072TIP3   OH233630   4.053   1.734   5.719  0.5140 -0.0452 -0.0572
 4072TIP3    H133631   4.032   1.729   5.812 -2.4479  0.8818 -0.6444
 4072TIP3    H233632   3.993   1.672   5.677  1.4058 -0.0073 -1.4327
 4073TIP3   OH233633   2.023   6.785   4.800 -0.0282 -0.3104  0.2051
 4073TIP3    H133634   2.051   6.696   4.820  1.3660 -0.8269 -3.7093
 4073TIP3    H233635   1.935   6.776   4.764 -0.8532  0.1973  2.0072
 4074TIP3   OH233636   2.546   3.508   4.137  0.0384  0.1266 -0.2268
 4074TIP3    H133637   2.625   3.519   4.190  1.1919  0.2572 -1.9284
 4074TIP3    H233638   2.486   3.574   4.170  0.9832  0.6628  0.4575
 4075TIP3   OH233639   4.822   4.696   4.684 -0.6087  1.0113  0.4037
 4075TIP3    H133640   4.731   4.671   4.666 -0.6424  1.4035  0.0292
 4075TIP3    H233641   4.827   4.701   4.780 -0.5752 -0.5296  0.4960
 4076TIP3   OH233642   2.497   0.676   4.226  0.9144  0.6072 -1.1633
 4076TIP3    H133643   2.425   0.626   4.188  0.1956 -0.3438  1.3180
 4076TIP3    H233644   2.575   0.648   4.177  0.4415 -2.6142 -0.2063
 4077TIP3   OH233645   1.661   5.256   5.593 -0.2249 -0.0058 -0.4286
 4077TIP3    H133646   1.700   5.186   5.540  1.9583 -0.2664  1.4489
 4077TIP3    H233647   1.631   5.212   5.672 -1.4609  0.7502 -0.4633
 4078TIP3   OH233648   2.650   1.766   3.656  0.8765 -0.2103 -0.0102
 4078TIP3    H133649   2.574   1.710   3.674  1.7177 -1.7092 -1.0179
 4078TIP3    H233650   2.677   1.798   3.742 -0.8833  0.3528  0.3666
 4079TIP3   OH233651   6.265   3.179  13.375  0.1440  0.2471  0.2912
 4079TIP3    H133652   6.259   3.088  13.406 -4.1391  0.4407  0.2489
 4079TIP3    H233653   6.272   3.171  13.280 -0.2494 -0.0398  0.2865
 4080TIP3   OH233654   6.146   1.226   2.916  0.1256  0.1397  0.1187
 4080TIP3    H133655   6.093   1.157   2.876  0.2124  0.7022 -0.9884
 4080TIP3    H233656   6.221   1.180   2.953  0.9760 -0.2188 -1.9747
 4081TIP3   OH233657   2.378   6.446  14.308  0.1812  0.5281 -0.0764
 4081TIP3    H133658   2.339   6.478  14.226 -1.0326 -0.0013  0.2972
 4081TIP3    H233659   2.307   6.401  14.353  1.1377 -0.1504  0.7679
 4082TIP3   OH233660   3.746   5.482   2.815  0.4893  0.0135  0.1420
 4082TIP3    H133661   3.821   5.480   2.874  1.8786 -0.9571 -1.6369
 4082TIP3    H233662   3.701   5.399   2.829  1.2693 -0.5659 -0.7034
 4083TIP3   OH233663   3.761   0.614  12.441 -0.2285  0.1085  0.1124
 4083TIP3    H133664   3.718   0.550  12.384  0.4149 -1.1838  1.0498
 4083TIP3    H233665   3.850   0.619  12.408  0.1412 -0.6321  0.9725
 4084TIP3   OH233666   6.525   3.877   6.030 -0.3548  0.0329  0.3046
 4084TIP3    H133667   6.512   3.961   5.985 -1.2413 -0.5667 -0.5855
 4084TIP3    H233668   6.482   3.813   5.973  2.0308 -1.3107 -0.0084
 4085TIP3   OH233669   5.054   0.971  14.754  0.1647  0.0999 -0.3518
 4085TIP3    H133670   5.040   0.905  14.686  0.1380 -0.1535 -0.1023
 4085TIP3    H233671   5.107   1.038  14.711  0.3131 -0.1521 -0.5670
 4086TIP3   OH233672   5.195   5.994  12.305 -0.0389  0.0839  0.0066
 4086TIP3    H133673   5.161   6.083  12.319 -0.3020  0.1905 -1.2290
 4086TIP3    H233674   5.285   5.998  12.336 -0.3607  0.5026  0.9090
 4087TIP3   OH233675   5.295   6.232   5.625  0.1458  0.4937 -0.5702
 4087TIP3    H133676   5.264   6.316   5.590 -1.4547  0.3347  0.3720
 4087TIP3    H233677   5.388   6.229   5.603  0.4178  2.8836  0.0899
 4088TIP3   OH233678   5.858   0.807  14.391 -0.1130  0.0784  0.6954
 4088TIP3    H133679   5.920   0.858  14.339 -0.7846 -0.5538 -0.7239
 4088TIP3    H233680   5.775   0.854  14.383 -1.2125 -2.2230 -2.2158
 4089TIP3   OH233681   6.450   5.789  11.249 -0.1058  0.3019 -0.2081
 4089TIP3    H133682   6.410   5.731  11.314  0.1622 -1.7264 -1.7951
 4089TIP3    H233683   6.460   5.734  11.171  3.0694  1.5698 -0.7738
 4090TIP3   OH233684   4.561   1.607   1.035  0.2589 -0.6167  0.4038
 4090TIP3    H133685   4.478   1.587   0.992  0.4369  0.1130 -0.3071
 4090TIP3    H233686   4.536   1.648   1.118 -0.1579  3.0077 -1.4028
 4091TIP3   OH233687   0.809   3.216   3.298 -0.7629  0.1663  0.0163
 4091TIP3    H133688   0.868   3.264   3.241 -0.1577  1.0761  1.3839
 4091TIP3    H233689   0.732   3.198   3.243  0.5212 -0.5161 -1.5824
 4092TIP3   OH233690   3.959   6.152   5.837  0.0946 -0.1978 -0.5981
 4092TIP3    H133691   3.910   6.222   5.880 -0.6223  0.4466 -2.4140
 4092TIP3    H233692   3.982   6.187   5.751  0.7317 -1.7742 -1.1039
 4093TIP3   OH233693   5.218   5.447  11.961  0.4046 -0.0195 -0.1931
 4093TIP3    H133694   5.242   5.460  12.053 -1.0056  0.6658  0.0978
 4093TIP3    H233695   5.204   5.353  11.953  2.7037 -0.3765 -0.2702
 4094TIP3   OH233696   2.030   5.083   3.860 -0.6294  0.2560  0.1931
 4094TIP3    H133697   1.969   5.046   3.924  1.4615 -2.1334  0.8839
 4094TIP3    H233698   2.006   5.042   3.777 -0.2302 -0.3787  0.3892
 4095TIP3   OH233699   1.968   3.922  12.926  0.1587 -0.6720  0.3842
 4095TIP3    H133700   2.048   3.971  12.945  0.2118  0.3208 -2.2101
 4095TIP3    H233701   1.961   3.859  12.997  2.4687  0.2051  1.4240
 4096TIP3   OH233702   5.474   4.831  16.778 -0.4755  0.3433 -0.2648
 4096TIP3    H133703   5.549   4.857  16.831 -1.0612 -0.4281  0.9603
 4096TIP3    H233704   5.487   4.876  16.695  2.6159 -1.7047 -0.9597
 4097TIP3   OH233705   6.517   2.811   2.317 -0.2328  0.0697 -0.2989
 4097TIP3    H133706   6.516   2.727   2.271 -0.8770 -1.1708  1.9555
 4097TIP3    H233707   6.426   2.828   2.339 -0.0109  0.9892 -0.0789
 4098TIP3   OH233708   6.059   1.392   1.781  0.1978  0.5090 -0.6665
 4098TIP3    H133709   5.990   1.350   1.832 -0.6985  2.1007 -0.5492
 4098TIP3    H233710   6.130   1.408   1.843  1.2104 -2.2660 -1.0482
 4099TIP3   OH233711   0.650   0.760   4.973 -0.0813 -0.4848  0.1232
 4099TIP3    H133712   0.602   0.699   5.029  0.9155 -2.8835 -1.5656
 4099TIP3    H233713   0.725   0.710   4.941  0.3289  1.3685 -1.9638
 4100TIP3   OH233714   2.774   2.159   1.876  0.0985  0.0316 -0.3863
 4100TIP3    H133715   2.736   2.186   1.792 -1.6191  1.1526  0.7299
 4100TIP3    H233716   2.866   2.186   1.870  0.3438 -1.0950 -2.3983
 4101TIP3   OH233717   1.679   3.426   5.007  0.5462  0.2711 -0.3084
 4101TIP3    H133718   1.756   3.385   4.969 -1.2444 -0.2807 -3.5288
 4101TIP3    H233719   1.617   3.354   5.019 -0.3703  1.0797 -0.1106
 4102TIP3   OH233720   0.227   4.703  11.555  0.7118  0.1633  0.5021
 4102TIP3    H133721   0.196   4.782  11.600 -1.6474 -0.7262  0.5187
 4102TIP3    H233722   0.270   4.651  11.624 -2.7568 -1.1279  1.8264
 4103TIP3   OH233723   5.574   3.870  17.210 -0.6962  0.5544  0.2281
 4103TIP3    H133724   5.568   3.965  17.209  0.8076  0.6510 -1.1186
 4103TIP3    H233725   5.573   3.847  17.303 -2.1125  1.7943  0.5348
 4104TIP3   OH233726   1.067   4.272   0.484 -0.2222  0.1674  0.0538
 4104TIP3    H133727   1.045   4.198   0.541  0.9436  0.5283  0.9869
 4104TIP3    H233728   1.157   4.296   0.508  0.3609  0.2381 -2.0221
 4105TIP3   OH233729   2.774   1.194   1.620 -0.4462  0.5454  0.1748
 4105TIP3    H133730   2.739   1.247   1.691 -1.3721 -1.1212  0.9833
 4105TIP3    H233731   2.700   1.141   1.591  0.3285  0.0710 -0.9781
 4106TIP3   OH233732   0.975   4.674  14.948 -0.0975 -0.1296  0.5173
 4106TIP3    H133733   0.964   4.623  14.867  1.3136  0.8604 -0.3303
 4106TIP3    H233734   1.047   4.632  14.993 -0.5931 -0.4102  1.0510
 4107TIP3   OH233735   5.559   2.853   0.376  0.5426  0.7659 -0.1489
 4107TIP3    H133736   5.515   2.768   0.366  0.2819  0.8206  0.4709
 4107TIP3    H233737   5.579   2.880   0.287  2.2352 -0.7750 -0.2665
 4108TIP3   OH233738   5.717   2.819  11.741  0.0028  0.2631  0.6470
 4108TIP3    H133739   5.629   2.812  11.704  0.9872  1.8737 -2.1972
 4108TIP3    H233740   5.718   2.904  11.785  0.7376  1.1816 -1.1133
 4109TIP3   OH233741   4.708   6.236  12.785  0.6807  0.2409  0.2041
 4109TIP3    H133742   4.633   6.266  12.733 -0.1640 -0.9667  0.7301
 4109TIP3    H233743   4.683   6.252  12.876  1.6105  1.0734  0.3266
 4110TIP3   OH233744   5.539   0.550  10.724 -0.2774  0.6575 -0.9633
 4110TIP3    H133745   5.504   0.461  10.724  1.7279 -0.1552  0.5787
 4110TIP3    H233746   5.587   0.557  10.641  2.3675 -0.8744  0.3770
 4111TIP3   OH233747   5.222   3.502   3.576  0.1361  0.4428 -0.5671
 4111TIP3    H133748   5.254   3.481   3.488  0.1970  1.5023 -0.8150
 4111TIP3    H233749   5.249   3.429   3.630 -2.3543 -1.5967 -1.9787
 4112TIP3   OH233750   1.190   0.921   5.376  0.0067 -0.7725 -0.1502
 4112TIP3    H133751   1.191   0.836   5.332 -0.0832 -0.3690 -0.9429
 4112TIP3    H233752   1.280   0.951   5.373  0.0407 -0.8481  0.1404
 4113TIP3   OH233753   0.712   3.450  13.219  0.1564  0.3329  0.5229
 4113TIP3    H133754   0.725   3.404  13.302  2.3520 -1.4202 -0.7437
 4113TIP3    H233755   0.637   3.407  13.179  0.2739 -0.0775  0.7428
 4114TIP3   OH233756   3.856   5.401  14.713 -0.0796 -0.7650  0.3843
 4114TIP3    H133757   3.808   5.385  14.632 -0.4837 -0.8868  0.6469
 4114TIP3    H233758   3.940   5.356  14.701  1.0173  1.5378 -1.1023
 4115TIP3   OH233759   3.132   0.956  11.591 -0.2361  0.5458 -0.0455
 4115TIP3    H133760   3.116   0.863  11.571 -2.8291  1.1797 -1.1559
 4115TIP3    H233761   3.221   0.958  11.626  0.3533 -2.1848 -1.2389
 4116TIP3   OH233762   4.704   1.721  15.960 -0.3770  0.6654 -0.0673
 4116TIP3    H133763   4.634   1.743  16.021 -1.2508  0.5997 -1.0180
 4116TIP3    H233764   4.761   1.798  15.959 -0.7374  0.9387  0.2957
 4117TIP3   OH233765   3.517   3.888  12.365 -0.1438  0.3879 -0.2064
 4117TIP3    H133766   3.608   3.879  12.393 -0.8989 -2.2170  1.5868
 4117TIP3    H233767   3.473   3.925  12.441 -0.8805  0.1155 -0.4991
 4118TIP3   OH233768   4.495   4.260  15.795  0.1062  0.5326 -0.1622
 4118TIP3    H133769   4.579   4.280  15.838  0.1384  0.6148 -0.2645
 4118TIP3    H233770   4.430   4.280  15.862  0.0321  2.6500 -0.8317
 4119TIP3   OH233771   5.712   5.748  13.350 -0.1784 -0.7845  0.3129
 4119TIP3    H133772   5.721   5.671  13.406 -0.6753 -1.4235 -0.4848
 4119TIP3    H233773   5.794   5.751  13.300 -0.3815 -1.0943 -0.0352
 4120TIP3   OH233774   1.926   6.540  15.570 -0.3728  0.2056  0.5830
 4120TIP3    H133775   1.914   6.523  15.664 -0.9946  0.9239  0.6442
 4120TIP3    H233776   2.020   6.555  15.560  0.1491 -2.8256  0.5712
 4121TIP3   OH233777   0.499   1.761   0.934  0.5519 -0.1758 -0.1259
 4121TIP3    H133778   0.520   1.669   0.919  1.6415  0.2362 -1.1686
 4121TIP3    H233779   0.435   1.759   1.006  0.7593 -1.7176  0.0404
 4122TIP3   OH233780   2.464   3.770  11.598 -0.5472  0.2106  0.1682
 4122TIP3    H133781   2.553   3.804  11.602 -0.0733 -0.8980 -0.5555
 4122TIP3    H233782   2.427   3.788  11.685  0.6522 -0.0159  0.7342
 4123TIP3   OH233783   6.718   3.694   3.854 -0.0522  0.1664  0.7969
 4123TIP3    H133784   6.804   3.684   3.813 -0.5430  0.5126 -0.3403
 4123TIP3    H233785   6.658   3.703   3.780 -1.1474 -0.7249  1.5724
 4124TIP3   OH233786   0.005   1.849  15.190 -0.7219 -0.3686  0.3039
 4124TIP3    H133787   0.082   1.798  15.217 -0.5901  0.7907  2.2011
 4124TIP3    H233788   0.036   1.903  15.118  0.6810  1.2414  2.0789
 4125TIP3   OH233789   2.120   5.108   4.483  0.5857 -0.6493  0.4392
 4125TIP3    H133790   2.093   5.022   4.515 -0.5888 -0.9568 -1.3326
 4125TIP3    H233791   2.050   5.168   4.509 -0.3451 -0.8885 -1.4037
 4126TIP3   OH233792   5.398   0.891   0.645 -0.3798 -0.2917  0.1882
 4126TIP3    H133793   5.383   0.985   0.650 -3.0056 -0.6146 -0.5374
 4126TIP3    H233794   5.377   0.868   0.554 -1.9804 -1.8656  0.9097
 4127TIP3   OH233795   2.637   2.427   3.752 -0.1158 -0.3958  0.2306
 4127TIP3    H133796   2.611   2.452   3.841  0.7701 -0.4282  0.5003
 4127TIP3    H233797   2.609   2.336   3.743 -2.5476  0.3729 -0.4399
 4128TIP3   OH233798   1.179   4.672   4.999 -0.3435  0.3330  0.5873
 4128TIP3    H133799   1.198   4.677   5.092  0.4880  0.4426  0.4170
 4128TIP3    H233800   1.226   4.746   4.961 -1.2999  0.7386  0.1798
 4129TIP3   OH233801   0.845   4.347  14.666 -0.3065  0.4344 -0.6400
 4129TIP3    H133802   0.762   4.391  14.647  0.2461  1.4508 -0.7194
 4129TIP3    H233803   0.886   4.336  14.580  0.7094  2.0902 -0.3963
 4130TIP3   OH233804   1.152   3.937  13.390 -0.0440  0.0213  0.2008
 4130TIP3    H133805   1.073   3.889  13.416 -0.3934  0.3267 -0.2888
 4130TIP3    H233806   1.153   4.013  13.449  0.1670 -0.2573  0.5551
 4131TIP3   OH233807   3.021   1.323  16.374  0.1383  0.4387  0.2019
 4131TIP3    H133808   2.998   1.416  16.374  0.9653  0.6823  2.2023
 4131TIP3    H233809   2.945   1.280  16.414  0.7598  0.5692  1.5592
 4132TIP3   OH233810   6.284   3.963  13.372 -0.1972 -0.2139  0.3425
 4132TIP3    H133811   6.205   3.979  13.319 -1.1447  1.1957  2.1210
 4132TIP3    H233812   6.295   4.043  13.423  0.7471 -1.5049  2.2205
 4133TIP3   OH233813   5.725   2.493  14.307  0.2389  0.1993 -0.0740
 4133TIP3    H133814   5.655   2.455  14.254 -0.1708 -0.0884  0.6532
 4133TIP3    H233815   5.693   2.580  14.330 -0.5736 -0.4964  1.5259
 4134TIP3   OH233816   0.165   4.859  13.051  0.1615  0.1651  0.3951
 4134TIP3    H133817   0.138   4.936  13.001 -2.5926 -0.7620  0.3733
 4134TIP3    H233818   0.100   4.852  13.121 -0.1710 -2.6199 -0.1296
 4135TIP3   OH233819   5.053   0.292  16.288 -0.0669 -0.0711 -0.2920
 4135TIP3    H133820   4.959   0.294  16.268 -0.4814 -0.8066  1.4541
 4135TIP3    H233821   5.058   0.254  16.376  1.7046  2.1324  0.6296
 4136TIP3   OH233822   5.390   0.022  14.851 -0.6091 -0.5183 -0.3452
 4136TIP3    H133823   5.320   0.078  14.885 -2.5767 -1.2737 -2.9521
 4136TIP3    H233824   5.451   0.083  14.809 -0.7703 -0.0044  0.1615
 4137TIP3   OH233825   2.455   6.465  11.408 -0.3158 -0.1153  0.2928
 4137TIP3    H133826   2.420   6.433  11.325 -1.2054 -0.7992  0.9157
 4137TIP3    H233827   2.389   6.527  11.439  0.1644  0.3720  0.3373
 4138TIP3   OH233828   1.117   3.566  13.416 -0.0304  0.2176 -0.7051
 4138TIP3    H133829   1.034   3.530  13.448 -0.6130  0.8472 -1.4878
 4138TIP3    H233830   1.127   3.530  13.328  0.2373  0.6122 -0.8385
 4139TIP3   OH233831   0.945   3.792  14.474 -0.6019  0.2831 -0.4710
 4139TIP3    H133832   0.956   3.715  14.531 -0.1944  0.9521  0.3701
 4139TIP3    H233833   0.869   3.771  14.421 -0.6250 -0.6202 -0.0992
 4140TIP3   OH233834   2.290   0.706  16.147  0.1345 -0.2977 -0.1906
 4140TIP3    H133835   2.247   0.779  16.101 -0.0855 -0.1532  0.2382
 4140TIP3    H233836   2.317   0.744  16.231 -0.9019 -0.9882  0.4584
 4141TIP3   OH233837   5.819   5.617  14.810  0.3976 -0.3651  0.4223
 4141TIP3    H133838   5.877   5.625  14.886  0.9975  0.5499 -0.1273
 4141TIP3    H233839   5.868   5.563  14.749  0.8209  0.7059 -0.1871
 4142TIP3   OH233840   3.998   1.993   5.619 -0.2723  0.1556 -0.4787
 4142TIP3    H133841   3.999   1.906   5.659  1.8559 -0.9643 -2.7684
 4142TIP3    H233842   4.062   2.043   5.670 -1.5748  0.4194  0.9093
 4143TIP3   OH233843   0.199   6.418  14.606  0.1119 -0.3329  0.3480
 4143TIP3    H133844   0.217   6.512  14.604 -0.6048 -0.2088 -0.9812
 4143TIP3    H233845   0.285   6.378  14.622  0.4690  0.5296  0.6258
 4144TIP3   OH233846   5.646   3.093   4.156 -0.0751 -0.5547 -0.2141
 4144TIP3    H133847   5.711   3.147   4.200  0.6073 -1.7280  0.2545
 4144TIP3    H233848   5.692   3.059   4.079  0.8292 -3.6438  1.5963
 4145TIP3   OH233849   5.596   0.063   0.270 -0.5868 -0.1011  0.0490
 4145TIP3    H133850   5.633   0.108   0.194 -0.8447  1.5265  0.8803
 4145TIP3    H233851   5.514   0.108   0.287 -1.5584 -1.8259  0.0127
 4146TIP3   OH233852   1.614   3.886   2.484  0.0753 -0.2435  0.4384
 4146TIP3    H133853   1.675   3.928   2.424  0.1105  0.3642  0.9013
 4146TIP3    H233854   1.601   3.798   2.447  0.8143 -0.1950  0.0551
 4147TIP3   OH233855   1.901   3.428   5.370  0.3998 -0.3049  0.4858
 4147TIP3    H133856   1.904   3.501   5.308 -0.6308  0.2559  1.0714
 4147TIP3    H233857   1.811   3.395   5.364  0.4500 -0.6086  1.2619
 4148TIP3   OH233858   4.031   2.127   0.249 -0.0079  0.1714  0.3499
 4148TIP3    H133859   4.065   2.186   0.182  1.4723  1.1051  1.8586
 4148TIP3    H233860   4.090   2.141   0.324  0.4904 -3.3589  0.6859
 4149TIP3   OH233861   1.759   1.275   5.026  0.2031  0.2689  0.0168
 4149TIP3    H133862   1.684   1.334   5.018  0.5276  0.8011  0.7741
 4149TIP3    H233863   1.763   1.229   4.943 -0.9669  0.2400 -0.0300
 4150TIP3   OH233864   5.881   0.157  16.712  0.0502  0.1267 -0.1749
 4150TIP3    H133865   5.838   0.109  16.783  0.0140 -0.7475 -0.7735
 4150TIP3    H233866   5.975   0.139  16.725 -0.0620 -1.3875 -1.2874
 4151TIP3   OH233867   2.455   0.367  14.561  0.3534 -0.0960 -0.3655
 4151TIP3    H133868   2.524   0.318  14.607 -0.0493 -0.3289 -0.0045
 4151TIP3    H233869   2.412   0.418  14.630  0.2173  0.1139 -0.6048
 4152TIP3   OH233870   0.371   1.422  13.899 -0.0718 -0.0414 -0.2351
 4152TIP3    H133871   0.328   1.405  13.982  0.7683 -0.1897  0.1751
 4152TIP3    H233872   0.409   1.509  13.908 -0.7577  0.3209 -0.7978
 4153TIP3   OH233873   3.066   6.286   0.635 -0.1682 -0.6330  0.0649
 4153TIP3    H133874   3.067   6.214   0.572 -2.2745 -0.1229 -0.5775
 4153TIP3    H233875   2.997   6.344   0.604  0.0585  0.5844  1.7891
 4154TIP3   OH233876   6.136   6.544   5.885  0.1961 -0.1750 -0.0692
 4154TIP3    H133877   6.149   6.496   5.967  0.9622  0.8024  0.3949
 4154TIP3    H233878   6.163   6.483   5.816  1.7214 -0.1969  0.5390
 4155TIP3   OH233879   5.422   0.826  14.884 -0.0715 -0.4978 -0.0488
 4155TIP3    H133880   5.510   0.796  14.908  0.1617  0.6140  0.5454
 4155TIP3    H233881   5.362   0.768  14.931  0.3446 -1.1899 -0.3682
 4156TIP3   OH233882   6.477   1.415  11.243  0.1855 -0.1878 -0.3677
 4156TIP3    H133883   6.394   1.369  11.241  0.5245 -0.9389  1.6204
 4156TIP3    H233884   6.518   1.395  11.159 -0.2819 -2.3974 -0.0882
 4157TIP3   OH233885   6.563   2.405  13.745 -0.0995  0.0779 -0.2870
 4157TIP3    H133886   6.556   2.312  13.765 -1.0709 -0.1261 -1.5057
 4157TIP3    H233887   6.525   2.414  13.657  0.6951  1.4979 -0.5067
 4158TIP3   OH233888   6.745   1.148   1.143  0.5788  0.5657 -0.4514
 4158TIP3    H133889   6.839   1.162   1.129  0.7021 -0.3783 -0.5911
 4158TIP3    H233890   6.735   1.150   1.238  0.5720  1.7126 -0.4698
 4159TIP3   OH233891   1.251   6.661  16.293  0.1556 -0.1378  0.4270
 4159TIP3    H133892   1.223   6.609  16.368  1.3533  0.5137  1.3497
 4159TIP3    H233893   1.285   6.597  16.230  1.6862 -0.5000  1.5832
 4160TIP3   OH233894   6.197   6.029   5.124 -0.5802 -0.6443 -0.3611
 4160TIP3    H133895   6.237   6.068   5.047 -0.9937 -0.0985 -0.3049
 4160TIP3    H233896   6.105   6.016   5.099 -0.2084 -2.6430 -0.7777
 4161TIP3   OH233897   5.004   2.424  14.949 -0.1558  0.6003  0.4749
 4161TIP3    H133898   5.005   2.336  14.987  0.3172 -0.0420 -1.0009
 4161TIP3    H233899   4.959   2.414  14.865 -0.6209  1.8854  0.5514
 4162TIP3   OH233900   5.966   0.380   0.919 -0.0391 -0.1309 -0.3423
 4162TIP3    H133901   5.986   0.363   1.011 -0.7492  0.5600 -0.0555
 4162TIP3    H233902   5.888   0.327   0.901 -1.8956  2.2998  0.3875
 4163TIP3   OH233903   3.496   5.859  14.854 -0.1464  0.1439  0.3692
 4163TIP3    H133904   3.455   5.827  14.774  1.2080  1.0152 -0.6871
 4163TIP3    H233905   3.506   5.953  14.841  1.4711  0.0579  0.9411
 4164TIP3   OH233906   2.396   6.089   4.613 -0.1206  0.4472 -0.1041
 4164TIP3    H133907   2.377   5.998   4.589 -0.3258 -0.1768  2.2653
 4164TIP3    H233908   2.482   6.106   4.574 -0.4044 -0.5068 -1.1891
 4165TIP3   OH233909   5.888   6.134   6.154  0.1811  0.2430 -0.3610
 4165TIP3    H133910   5.980   6.134   6.127  0.4886 -0.3866  0.6528
 4165TIP3    H233911   5.847   6.067   6.100  0.5872 -0.3527  0.0678
 4166TIP3   OH233912   3.177   2.332  11.135  0.2827 -0.1734 -0.4447
 4166TIP3    H133913   3.163   2.275  11.059  1.4079  0.5329 -1.2160
 4166TIP3    H233914   3.143   2.418  11.107 -0.3422 -0.1856  0.2742
 4167TIP3   OH233915   0.765   0.088   1.726  0.6148 -0.3052  0.5901
 4167TIP3    H133916   0.698   0.150   1.754  0.2313 -0.8030  0.7917
 4167TIP3    H233917   0.793   0.119   1.640 -0.0528 -0.2349  0.3980
 4168TIP3   OH233918   0.930   6.778  16.268 -0.0808  0.0526 -0.5920
 4168TIP3    H133919   1.021   6.774  16.237  0.4875 -0.0424  1.0636
 4168TIP3    H233920   0.932   6.842  16.339 -1.5919  1.0808 -1.4650
 4169TIP3   OH233921   1.193   5.074   0.868 -0.3512  0.1321 -0.7903
 4169TIP3    H133922   1.135   5.065   0.792  0.4986 -0.6423 -1.3544
 4169TIP3    H233923   1.209   5.168   0.876  1.3047  0.0645 -2.8959
 4170TIP3   OH233924   5.804   5.761   3.552  0.0241  0.3781  0.0138
 4170TIP3    H133925   5.815   5.683   3.606  0.2008  1.0210  0.9302
 4170TIP3    H233926   5.729   5.742   3.497 -0.5443 -0.0563  0.9161
 4171TIP3   OH233927   0.027   4.047  15.918 -0.4306  0.1634  0.1225
 4171TIP3    H133928  -0.042   4.107  15.889 -1.0672 -0.4051  0.4465
 4171TIP3    H233929  -0.014   3.996  15.987  0.2640 -0.3096  0.1835
 4172TIP3   OH233930   2.886   2.920   6.588 -0.4176 -0.1757 -0.8069
 4172TIP3    H133931   2.879   2.825   6.590  0.5069 -0.2529  1.8054
 4172TIP3    H233932   2.977   2.937   6.564 -0.3677  0.0154 -0.4928
 4173TIP3   OH233933   3.391   6.732   5.707 -0.1638  0.0462 -0.1505
 4173TIP3    H133934   3.311   6.780   5.728 -0.0615 -0.5722  1.6871
 4173TIP3    H233935   3.461   6.779   5.753  0.1122 -1.1121  0.6439
 4174TIP3   OH233936   3.706   6.263  11.412  0.7898 -0.0308  0.1364
 4174TIP3    H133937   3.736   6.185  11.365 -0.7348 -0.1250 -0.6947
 4174TIP3    H233938   3.625   6.236  11.455 -0.0914  1.2542 -0.6724
 4175TIP3   OH233939   6.060   6.578   4.817 -0.3263  0.1501 -0.5321
 4175TIP3    H133940   6.081   6.628   4.896  0.4670 -2.5903  1.0669
 4175TIP3    H233941   5.982   6.528   4.840 -1.1579  0.7043 -2.1199
 4176TIP3   OH233942   3.471   4.822  12.067 -0.1545 -0.0544 -0.4394
 4176TIP3    H133943   3.504   4.790  11.983 -1.3169 -1.8919 -0.2098
 4176TIP3    H233944   3.479   4.747  12.126 -1.2898  0.6040  0.5609
 4177TIP3   OH233945   0.184   6.608   5.483  0.2482  0.2630  0.3182
 4177TIP3    H133946   0.203   6.696   5.449  2.6809 -0.3242  0.1003
 4177TIP3    H233947   0.095   6.590   5.452  0.5955  1.7171 -1.6501
 4178TIP3   OH233948   2.077   5.911   1.704 -0.4146 -0.0721 -0.7040
 4178TIP3    H133949   2.031   5.939   1.783  1.1617  1.5099 -0.3239
 4178TIP3    H233950   2.037   5.826   1.682 -1.6058 -0.0256  1.1535
 4179TIP3   OH233951   1.841   0.228   1.077 -0.7355  0.0949  0.2565
 4179TIP3    H133952   1.875   0.164   1.015 -2.1887 -0.4901  0.0383
 4179TIP3    H233953   1.766   0.268   1.032 -1.3027  0.2435  1.3029
 4180TIP3   OH233954   1.997   4.830   1.625 -0.0697 -0.5207  0.2575
 4180TIP3    H133955   2.048   4.769   1.679  0.8548 -0.0860 -0.1202
 4180TIP3    H233956   1.908   4.824   1.660  0.8028  0.8376  2.7973
 4181TIP3   OH233957   4.557   4.429   5.640  0.2034 -0.2951  0.1851
 4181TIP3    H133958   4.617   4.455   5.710 -1.2128  0.0476  1.3109
 4181TIP3    H233959   4.520   4.512   5.609 -1.4194 -0.6626  1.1056
 4182TIP3   OH233960   0.884   5.576  14.093  0.0469  0.4005 -0.3445
 4182TIP3    H133961   0.959   5.562  14.035 -0.9360 -0.0931 -1.5243
 4182TIP3    H233962   0.871   5.491  14.136  0.6541  0.7127  0.4764
 4183TIP3   OH233963   5.197   1.615  13.472 -0.4031  0.1346 -0.4502
 4183TIP3    H133964   5.208   1.545  13.536  0.8944 -0.0523 -0.8787
 4183TIP3    H233965   5.115   1.657  13.498 -0.6965 -0.9189  0.3949
 4184TIP3   OH233966   5.584   1.468   3.106 -0.0416 -0.2217  0.1060
 4184TIP3    H133967   5.593   1.433   3.017 -0.7621  0.3650 -0.2002
 4184TIP3    H233968   5.547   1.555   3.095 -0.6345 -0.3478  1.0132
 4185TIP3   OH233969   1.526   4.275   5.923 -0.2520  0.0644  0.4217
 4185TIP3    H133970   1.497   4.242   6.007  2.2969  0.4551  1.5121
 4185TIP3    H233971   1.455   4.332   5.893 -1.6493 -0.9333  1.7784
 4186TIP3   OH233972   5.917   1.387  16.242 -0.2637  0.1132  0.8565
 4186TIP3    H133973   6.010   1.368  16.252 -0.0925 -0.2331 -1.1318
 4186TIP3    H233974   5.874   1.302  16.247 -0.3060  0.0918  0.2281
 4187TIP3   OH233975   1.965   2.059  11.697 -0.3131 -0.4505  0.0519
 4187TIP3    H133976   2.051   2.019  11.682 -0.3108 -1.5342  2.7293
 4187TIP3    H233977   1.929   2.071  11.609  1.4438 -2.4869 -1.0108
 4188TIP3   OH233978   6.523   2.883  12.203  0.1034  0.1291  0.3670
 4188TIP3    H133979   6.454   2.870  12.138  1.0589 -1.9760 -0.2556
 4188TIP3    H233980   6.520   2.805  12.258  0.8915  0.7922  1.3641
 4189TIP3   OH233981   0.835   5.650  16.511  0.2094 -0.0047 -0.5598
 4189TIP3    H133982   0.925   5.680  16.503  0.0103  0.2584 -2.0103
 4189TIP3    H233983   0.781   5.729  16.501 -0.2626 -0.5795 -2.9308
 4190TIP3   OH233984   3.653   4.044  16.840  0.0504  0.0296 -0.0216
 4190TIP3    H133985   3.598   4.017  16.767  0.1739 -0.6811  0.1493
 4190TIP3    H233986   3.613   4.006  16.917  0.1094  0.5022  0.2475
 4191TIP3   OH233987   6.671   6.269   3.725 -0.5712 -1.0372 -0.0744
 4191TIP3    H133988   6.652   6.265   3.818  1.5492 -1.6592  0.3632
 4191TIP3    H233989   6.627   6.192   3.688 -1.1581 -0.9580  0.4560
 4192TIP3   OH233990   4.953   3.907  16.200  0.2214 -0.4884 -0.6579
 4192TIP3    H133991   4.965   3.929  16.108  0.9367 -0.3257 -0.5333
 4192TIP3    H233992   4.954   3.991  16.245  0.0840 -0.5806 -0.4809
 4193TIP3   OH233993   2.650   1.551  15.347 -0.7826 -0.1985  0.4249
 4193TIP3    H133994   2.738   1.573  15.378 -1.8108 -0.8487  4.0306
 4193TIP3    H233995   2.663   1.472  15.293  1.0140  0.6929 -0.4946
 4194TIP3   OH233996   3.630   3.841   5.731  0.1778 -0.2356  0.0342
 4194TIP3    H133997   3.709   3.799   5.764  0.3571 -0.7739 -1.0548
 4194TIP3    H233998   3.562   3.819   5.796  0.5672 -1.0839  0.1532
 4195TIP3   OH233999   6.206   4.333  13.179 -0.5703  0.0524  0.3628
 4195TIP3    H134000   6.162   4.299  13.101  1.1532 -0.6087 -0.3441
 4195TIP3    H234001   6.198   4.262  13.243  0.3944 -0.5299 -0.1324
 4196TIP3   OH234002   3.775   3.315  13.769  0.0894  0.7415 -0.1406
 4196TIP3    H134003   3.816   3.371  13.836 -0.7948  3.8647 -2.0875
 4196TIP3    H234004   3.849   3.274  13.724  0.8280  1.2674  0.5736
 4197TIP3   OH234005   5.420   0.472  11.365  0.1000  0.5174 -0.3908
 4197TIP3    H134006   5.442   0.385  11.398  2.5857  0.9214 -0.9103
 4197TIP3    H234007   5.371   0.513  11.436 -1.0536 -1.2612 -0.1209
 4198TIP3   OH234008   1.052   4.658  10.199  0.4739  0.3530  0.2169
 4198TIP3    H134009   1.126   4.717  10.183  1.3966 -1.2088 -1.5097
 4198TIP3    H234010   1.052   4.598  10.123 -2.4258  0.1851  0.2855
 4199TIP3   OH234011   2.211   2.499  13.572  0.2525  0.6074  0.3722
 4199TIP3    H134012   2.184   2.421  13.523  1.2363  0.9771 -0.7895
 4199TIP3    H234013   2.202   2.474  13.664 -0.9776 -0.3244  0.0021
 4200TIP3   OH234014   0.061   5.375   1.895 -0.1317  0.5481 -0.2239
 4200TIP3    H134015   0.020   5.417   1.970 -1.5942  1.0739 -1.2997
 4200TIP3    H234016   0.107   5.446   1.849  0.2773  0.3360 -0.1484
 4201TIP3   OH234017   6.464   5.938  12.612  0.1844 -0.4826 -0.2933
 4201TIP3    H134018   6.515   5.915  12.690 -0.2626 -0.7783 -0.0834
 4201TIP3    H234019   6.523   5.991  12.559  0.8755 -1.2062 -0.2652
 4202TIP3   OH234020   1.080   4.502   2.848  0.1645  0.2700  0.5177
 4202TIP3    H134021   1.003   4.553   2.823 -0.4508 -0.9705 -0.1744
 4202TIP3    H234022   1.138   4.508   2.772  0.3606  0.4468  0.6810
 4203TIP3   OH234023   2.052   1.491   4.956  0.0362 -0.2728 -0.0222
 4203TIP3    H134024   2.073   1.583   4.938  0.1127 -0.0493  1.2198
 4203TIP3    H234025   1.970   1.494   5.004  0.7528 -0.7778  1.2371
 4204TIP3   OH234026   6.694   0.134   5.740  0.2866 -0.4259  0.2583
 4204TIP3    H134027   6.785   0.158   5.757 -0.0388  0.7198  0.4434
 4204TIP3    H234028   6.665   0.195   5.672  0.6680 -3.0140 -2.2695
 4205TIP3   OH234029   4.832   5.591  12.590 -0.1730 -0.2005  0.2473
 4205TIP3    H134030   4.884   5.597  12.669  0.3325  2.7709 -0.2529
 4205TIP3    H234031   4.888   5.546  12.527  0.3818 -0.2875  0.8026
 4206TIP3   OH234032   5.711   5.219   4.000  0.1214  0.1312  0.3647
 4206TIP3    H134033   5.658   5.169   4.061 -0.3638 -0.2306 -0.3424
 4206TIP3    H234034   5.793   5.170   3.995  0.8227  1.0921  2.0206
 4207TIP3   OH234035   1.368   3.230   3.699 -0.3271  0.0672  0.0437
 4207TIP3    H134036   1.395   3.235   3.791  0.1745  1.6385 -0.1795
 4207TIP3    H234037   1.315   3.309   3.686  0.4684  0.3857 -1.2853
 4208TIP3   OH234038   5.319   5.592  10.490  0.4320  0.3455 -0.5424
 4208TIP3    H134039   5.274   5.668  10.526  1.8024  0.0797  1.8544
 4208TIP3    H234040   5.406   5.625  10.467  0.5094 -0.1349 -0.9318
 4209TIP3   OH234041   5.241   0.522   1.111  0.3078  0.1470  0.1148
 4209TIP3    H134042   5.200   0.520   1.198 -2.0585 -0.0486 -0.9538
 4209TIP3    H234043   5.318   0.576   1.122  0.8979 -1.1263  2.7074
 4210TIP3   OH234044   6.113   5.041   3.008 -0.3997 -0.1256  0.0825
 4210TIP3    H134045   6.046   4.974   3.022  1.0626 -1.4306  1.0686
 4210TIP3    H234046   6.107   5.061   2.914 -2.5018  0.1914  0.2492
 4211TIP3   OH234047   4.026   0.123  12.081  0.4572  0.4501 -0.2860
 4211TIP3    H134048   4.107   0.154  12.120  0.0168  1.2534 -0.0041
 4211TIP3    H234049   4.002   0.047  12.134  0.4000  0.9239  0.3805
 4212TIP3   OH234050   4.071   0.705  11.375 -0.2437  0.8464  0.1929
 4212TIP3    H134051   4.161   0.691  11.346 -0.2679 -0.2867  0.6652
 4212TIP3    H234052   4.043   0.783  11.327 -0.5019 -1.3019 -3.3513
 4213TIP3   OH234053   5.975   0.837   4.142  0.2141 -0.1670 -0.1578
 4213TIP3    H134054   5.951   0.761   4.089 -0.5075 -1.5376  2.0372
 4213TIP3    H234055   5.953   0.912   4.088 -2.6642 -1.4892 -0.9122
 4214TIP3   OH234056   6.372   5.620   1.674 -0.4495  0.0932  0.0316
 4214TIP3    H134057   6.403   5.539   1.633  1.3639  1.4667 -1.3514
 4214TIP3    H234058   6.276   5.612   1.673 -0.2856 -2.1159  0.1096
 4215TIP3   OH234059   0.477   6.011   3.955 -0.5249  0.1153 -0.1094
 4215TIP3    H134060   0.396   5.964   3.938 -0.2182  0.1743 -1.9306
 4215TIP3    H234061   0.451   6.102   3.969 -0.8991 -0.1442  0.8993
 4216TIP3   OH234062   3.613   0.938   1.228 -0.5521  0.2096 -0.2095
 4216TIP3    H134063   3.591   0.845   1.240 -2.5017  0.7964  0.9295
 4216TIP3    H234064   3.638   0.968   1.315 -1.6363  1.1847 -0.2322
 4217TIP3   OH234065   3.561   2.052   2.979  0.8332 -0.3290  0.3839
 4217TIP3    H134066   3.654   2.064   2.959  0.8609  0.3819  0.9404
 4217TIP3    H234067   3.559   1.973   3.034  0.9150 -1.3897 -1.1097
 4218TIP3   OH234068   6.109   6.777  16.723 -0.2044 -0.2989 -0.1837
 4218TIP3    H134069   6.136   6.779  16.815 -1.0362 -1.2595  0.0988
 4218TIP3    H234070   6.174   6.830  16.677 -0.2381  0.8368  1.0736
 4219TIP3   OH234071   5.972   3.096  10.748  0.3202 -0.2860 -0.0419
 4219TIP3    H134072   6.062   3.092  10.714  0.2404  0.2633 -0.3141
 4219TIP3    H234073   5.983   3.093  10.843  0.7840  2.5395  0.0198
 4220TIP3   OH234074   5.031   4.976   3.643  0.2358  0.4207  0.1030
 4220TIP3    H134075   4.985   4.905   3.687 -0.8334  0.4106 -0.9991
 4220TIP3    H234076   5.098   5.004   3.705  1.5939 -2.4757  0.0408
 4221TIP3   OH234077   6.257   2.098   3.365 -0.0721 -0.0899  0.6364
 4221TIP3    H134078   6.165   2.101   3.336 -0.4293  0.3951  1.7847
 4221TIP3    H234079   6.254   2.125   3.456  1.2957  0.4867  0.5210
 4222TIP3   OH234080   6.094   1.080  12.726 -0.3152  0.0371 -0.1558
 4222TIP3    H134081   6.079   1.168  12.692  2.6344  0.5778 -0.1854
 4222TIP3    H234082   6.134   1.094  12.812  2.3933 -1.2207 -1.1581
 4223TIP3   OH234083   5.222   4.359  17.191 -0.3909 -0.2567  0.5135
 4223TIP3    H134084   5.184   4.339  17.105  1.4312 -2.5428  0.1747
 4223TIP3    H234085   5.257   4.275  17.221  0.9461  0.9882  2.5234
 4224TIP3   OH234086   6.223   4.115  17.121 -0.2136  0.2770 -0.0518
 4224TIP3    H134087   6.299   4.081  17.074 -0.4197  0.8070 -0.7838
 4224TIP3    H234088   6.252   4.123  17.212  1.0831  1.8618 -0.5916
 4225TIP3   OH234089   2.651   1.669  13.806  0.6796 -0.7220 -0.0471
 4225TIP3    H134090   2.556   1.676  13.814  0.8771  1.8584  0.3160
 4225TIP3    H234091   2.666   1.639  13.716 -0.3837  1.8699 -1.1323
 4226TIP3   OH234092   5.700   3.839  12.418 -0.1457 -0.1453 -0.1626
 4226TIP3    H134093   5.697   3.889  12.499 -0.0074  0.5291 -0.5660
 4226TIP3    H234094   5.752   3.762  12.439 -1.6701 -0.9029  0.8823
 4227TIP3   OH234095   1.066   2.679   4.130 -0.1079  0.3272 -0.2134
 4227TIP3    H134096   1.053   2.692   4.224  0.1920 -0.4018 -0.0722
 4227TIP3    H234097   1.082   2.586   4.120  0.2832  0.4688 -0.9449
 4228TIP3   OH234098   5.162   2.868   3.831  0.0773  0.5164  0.6415
 4228TIP3    H134099   5.233   2.830   3.779 -1.6687  0.1329 -1.5512
 4228TIP3    H234100   5.143   2.802   3.897 -0.3792 -0.7932 -0.7712
 4229TIP3   OH234101   3.443   0.241   3.542  0.5885 -0.4988  0.5072
 4229TIP3    H134102   3.427   0.194   3.624  0.3830 -0.5294  0.4489
 4229TIP3    H234103   3.500   0.182   3.492 -0.5227 -1.1570 -0.0011
 4230TIP3   OH234104   4.180   5.297   4.728 -0.1850 -0.1060 -0.3732
 4230TIP3    H134105   4.203   5.204   4.734 -0.1181 -0.1069 -0.6359
 4230TIP3    H234106   4.121   5.312   4.802  1.3622  0.0942  0.8406
 4231TIP3   OH234107   1.574   0.858   3.966  0.3971  0.2491 -0.2065
 4231TIP3    H134108   1.562   0.774   3.923  2.4989 -0.3601  0.3627
 4231TIP3    H234109   1.533   0.847   4.052  1.3158 -0.4414  0.1473
 4232TIP3   OH234110   3.606   5.769   3.261 -0.0539 -0.3144  0.3618
 4232TIP3    H134111   3.593   5.677   3.283 -3.0779 -0.1639 -0.4797
 4232TIP3    H234112   3.604   5.815   3.345  0.1429 -0.8861  0.6816
 4233TIP3   OH234113   0.192   1.308  16.899  0.0887  0.1244 -0.0830
 4233TIP3    H134114   0.172   1.262  16.981 -0.0845 -0.8730 -0.6801
 4233TIP3    H234115   0.258   1.372  16.923 -1.7418  1.5291  1.3643
 4234TIP3   OH234116   0.647   1.289  14.567  0.1254 -0.1727  0.2069
 4234TIP3    H134117   0.652   1.335  14.483 -1.0316 -0.0396  0.2050
 4234TIP3    H234118   0.645   1.358  14.633 -4.3249 -0.0484  0.0913
 4235TIP3   OH234119   0.770   6.190   3.765 -0.3414  0.2603  0.2776
 4235TIP3    H134120   0.838   6.189   3.698  0.4905 -1.0141  1.1046
 4235TIP3    H234121   0.689   6.172   3.718  0.3166 -1.2299 -0.3204
 4236TIP3   OH234122   4.883   0.549  14.084 -0.1478  0.1047 -0.1275
 4236TIP3    H134123   4.924   0.618  14.032  0.3187 -1.6027 -2.0707
 4236TIP3    H234124   4.797   0.537  14.045 -0.1585 -0.5621  0.1011
 4237TIP3   OH234125   2.493   2.722   6.872 -0.7563 -0.0918 -0.0292
 4237TIP3    H134126   2.531   2.723   6.960 -1.3410 -1.3474  0.2530
 4237TIP3    H234127   2.409   2.677   6.883  0.5106 -2.9605 -1.7297
 4238TIP3   OH234128   1.082   4.370  10.596  0.2419 -0.6805 -0.1741
 4238TIP3    H134129   1.084   4.275  10.605  0.0795 -0.7902 -1.2540
 4238TIP3    H234130   1.174   4.395  10.582  0.2619 -0.6970 -0.0723
 4239TIP3   OH234131   5.645   3.989  16.911 -0.1541  0.3374  0.2713
 4239TIP3    H134132   5.695   3.914  16.945 -0.2877  0.9204  1.8122
 4239TIP3    H234133   5.682   4.065  16.956 -2.3002  0.7951  1.3450
 4240TIP3   OH234134   4.692   2.297  14.522  0.1246 -0.5614 -0.2354
 4240TIP3    H134135   4.625   2.347  14.476  0.8836 -0.0747 -0.8166
 4240TIP3    H234136   4.653   2.211  14.535 -1.3345  0.2912  1.1223
 4241TIP3   OH234137   5.697   1.099  12.567 -0.5074 -0.6934 -0.4488
 4241TIP3    H134138   5.630   1.132  12.627 -0.1595 -0.7542 -0.0295
 4241TIP3    H234139   5.770   1.161  12.576 -0.5163 -0.6052 -0.9334
 4242TIP3   OH234140   3.756   2.236  13.821  0.1350  0.0287  0.5873
 4242TIP3    H134141   3.740   2.185  13.742  0.6404  2.1045 -0.9139
 4242TIP3    H234142   3.780   2.172  13.888  1.8963 -1.5661 -1.5240
 4243TIP3   OH234143   1.094   3.112  14.314 -0.2964  0.6282  0.6227
 4243TIP3    H134144   1.015   3.163  14.328  0.4183  2.0796 -0.5480
 4243TIP3    H234145   1.077   3.062  14.234 -0.1944  0.6035  0.6156
 4244TIP3   OH234146   2.905   1.545  13.303  0.5345  0.2843 -0.1402
 4244TIP3    H134147   2.918   1.460  13.261  1.4612  0.2751  0.1727
 4244TIP3    H234148   2.868   1.523  13.389 -0.0214  0.2413 -0.3859
 4245TIP3   OH234149   3.263   3.035   2.844  0.6718 -0.4614  0.3323
 4245TIP3    H134150   3.177   3.047   2.885  0.7360 -0.0363  0.3503
 4245TIP3    H234151   3.254   3.074   2.757  0.2017 -2.3725 -0.4959
 4246TIP3   OH234152   4.008   1.441   4.925  0.0598  0.1543 -0.4145
 4246TIP3    H134153   3.916   1.434   4.897 -0.5051  1.3500  1.0500
 4246TIP3    H234154   4.025   1.535   4.926  0.7240  0.0306  1.1021
 4247TIP3   OH234155   4.615   1.310   3.922  0.0181 -0.7495 -0.4985
 4247TIP3    H134156   4.643   1.233   3.972 -1.5717 -1.5825 -0.8528
 4247TIP3    H234157   4.524   1.324   3.948 -0.4286 -0.3905 -2.1815
 4248TIP3   OH234158   1.239   3.930  10.483 -0.2060  0.0172 -0.1502
 4248TIP3    H134159   1.318   3.913  10.433  1.8502  1.5398  2.4688
 4248TIP3    H234160   1.200   3.843  10.497 -0.2117 -0.5376 -3.2803
 4249TIP3   OH234161   2.919   0.859   1.213  0.4402  0.4789  0.3263
 4249TIP3    H134162   2.919   0.894   1.301  0.0261 -1.8242  1.2851
 4249TIP3    H234163   3.009   0.829   1.199  0.5966  1.1719 -0.1856
 4250TIP3   OH234164   1.090   5.898  14.304 -0.7398  0.3162  0.5585
 4250TIP3    H134165   1.171   5.911  14.353 -1.7193 -1.2786  2.6939
 4250TIP3    H234166   1.065   5.807  14.321 -1.9321  0.1804 -1.7007
 4251TIP3   OH234167   5.635   6.441  12.805  0.4889  0.1938  0.1001
 4251TIP3    H134168   5.709   6.477  12.853  1.4782 -1.3660 -0.2162
 4251TIP3    H234169   5.674   6.399  12.728 -0.7160 -0.5416 -0.1256
 4252TIP3   OH234170   4.860   4.715   3.293 -0.2148  0.0700  0.0693
 4252TIP3    H134171   4.793   4.671   3.345  0.0182  0.7109  0.9130
 4252TIP3    H234172   4.867   4.662   3.214 -2.8840  0.9186 -0.7747
 4253TIP3   OH234173   4.876   1.805  14.089  0.0594  1.5838 -0.2799
 4253TIP3    H134174   4.931   1.764  14.155 -1.4094 -0.2471 -0.1495
 4253TIP3    H234175   4.817   1.735  14.060 -0.0663  2.6375 -2.7179
 4254TIP3   OH234176   4.360   4.580  15.187 -0.7327  0.4827 -0.5486
 4254TIP3    H134177   4.347   4.673  15.209  1.9192  0.5585  0.9406
 4254TIP3    H234178   4.444   4.577  15.142 -0.8724 -1.1939 -0.7433
 4255TIP3   OH234179   0.972   5.170  14.483 -0.1195  0.3914  0.7813
 4255TIP3    H134180   1.013   5.128  14.407 -0.5765 -1.2037  1.3856
 4255TIP3    H234181   1.021   5.136  14.558 -1.9341 -0.8436  1.4495
 4256TIP3   OH234182   1.561   2.979   4.782  0.0380  0.8015 -0.7568
 4256TIP3    H134183   1.632   3.042   4.795  0.2407  0.2946  0.6518
 4256TIP3    H234184   1.540   2.948   4.870  1.6943 -3.0231 -1.6136
 4257TIP3   OH234185   6.655   0.847  13.372 -0.1848 -0.1213  0.7397
 4257TIP3    H134186   6.709   0.795  13.312 -2.0449 -1.8547  0.5289
 4257TIP3    H234187   6.616   0.915  13.317  2.2910  1.6082  1.0242
 4258TIP3   OH234188   4.850   1.849  13.172  0.2602 -0.0149  0.9734
 4258TIP3    H134189   4.807   1.858  13.258  0.6167  1.0179  1.0508
 4258TIP3    H234190   4.788   1.800  13.119 -1.1001  1.6125  1.0305
 4259TIP3   OH234191   4.990   1.899  14.460  0.0613  0.4492 -0.7053
 4259TIP3    H134192   5.072   1.854  14.439  0.0582  0.5042 -0.8372
 4259TIP3    H234193   4.931   1.830  14.489 -0.6390  0.0704 -2.9784
 4260TIP3   OH234194   4.790   4.930  15.350 -0.3138 -0.5816  0.1824
 4260TIP3    H134195   4.821   4.932  15.260  1.7215  0.0573  0.8634
 4260TIP3    H234196   4.868   4.910  15.402 -1.3052 -0.2209  1.8485
 4261TIP3   OH234197   5.626   4.700   0.973 -0.0806 -0.5995 -0.1499
 4261TIP3    H134198   5.721   4.701   0.990 -0.2930 -0.6928  1.1317
 4261TIP3    H234199   5.615   4.639   0.900  0.8509 -0.5874 -0.3063
 4262TIP3   OH234200   5.531   5.211   3.441 -0.5354  0.5069  0.7130
 4262TIP3    H134201   5.528   5.244   3.351 -0.1125  0.5519  0.7117
 4262TIP3    H234202   5.479   5.131   3.440 -1.7260  1.2769  0.7551
 4263TIP3   OH234203   4.308   2.663   4.463  0.3083  0.3362 -0.0616
 4263TIP3    H134204   4.233   2.682   4.520  0.4900 -0.3586  0.4047
 4263TIP3    H234205   4.380   2.714   4.501  0.3960 -0.0197  0.2507
 4264TIP3   OH234206   0.682   0.161  13.740 -0.3782 -0.2459  0.1512
 4264TIP3    H134207   0.619   0.209  13.687 -0.8193 -0.0332  0.8507
 4264TIP3    H234208   0.710   0.224  13.807 -1.4144 -1.1134  1.4481
 4265TIP3   OH234209   6.766   1.439   6.003 -0.5830 -0.3484  0.6304
 4265TIP3    H134210   6.758   1.344   6.003 -2.1238 -0.2307  0.8155
 4265TIP3    H234211   6.852   1.456   5.966 -0.3529 -1.8120  0.4755
 4266TIP3   OH234212   3.303   4.443  12.639  0.0469  0.2039 -0.2536
 4266TIP3    H134213   3.249   4.522  12.637  2.1170  1.6448 -0.4813
 4266TIP3    H234214   3.244   4.375  12.672 -1.9217  1.7075 -0.5828
 4267TIP3   OH234215   4.476   6.504  10.983  0.0838  0.1755 -0.3894
 4267TIP3    H134216   4.467   6.422  10.934  0.1713 -0.1652  0.1593
 4267TIP3    H234217   4.563   6.537  10.960  1.2922 -1.4135  1.6781
 4268TIP3   OH234218   6.463   4.799   4.047 -0.0603  0.1982  0.0309
 4268TIP3    H134219   6.449   4.876   4.102 -2.5047 -0.7627  0.8130
 4268TIP3    H234220   6.524   4.829   3.979 -0.1545  2.5204  0.9344
 4269TIP3   OH234221   0.882   3.178  11.822  0.1847 -0.0688  0.2310
 4269TIP3    H134222   0.925   3.153  11.904  0.7493  1.6079  0.4655
 4269TIP3    H234223   0.789   3.165  11.840  0.3277 -0.0958  1.0004
 4270TIP3   OH234224   2.303   6.210  11.709  0.0842 -0.2094  0.0436
 4270TIP3    H134225   2.386   6.167  11.687  0.2117 -0.2243  0.5297
 4270TIP3    H234226   2.252   6.142  11.752 -0.3226 -0.2975 -0.5870
 4271TIP3   OH234227   2.186   1.820  16.538 -0.1891 -0.1299  0.4840
 4271TIP3    H134228   2.221   1.760  16.603 -0.6962  0.5478  1.3858
 4271TIP3    H234229   2.133   1.882  16.588 -0.0759  0.7719 -0.4973
 4272TIP3   OH234230   1.912   0.853   2.083  0.4081 -0.0799  0.3725
 4272TIP3    H134231   1.834   0.799   2.094  1.4269 -1.7978 -0.5903
 4272TIP3    H234232   1.939   0.875   2.172  0.0042 -1.2206  0.7904
 4273TIP3   OH234233   0.895   5.183   0.092  0.0721 -0.2156  0.5751
 4273TIP3    H134234   0.930   5.189   0.181 -1.2653  0.7401  1.0464
 4273TIP3    H234235   0.850   5.267   0.078  0.7525 -0.1299 -1.2063
 4274TIP3   OH234236   2.979   1.082   1.867 -0.0266  0.1835  0.8938
 4274TIP3    H134237   2.904   1.036   1.830  0.3300  0.1138  0.2513
 4274TIP3    H234238   2.953   1.102   1.957 -1.3864  1.4276  0.2531
 4275TIP3   OH234239   6.476   0.592  16.461  0.0532 -0.3114 -0.5125
 4275TIP3    H134240   6.553   0.631  16.501 -1.3037 -0.2245  2.1484
 4275TIP3    H234241   6.506   0.508  16.427  1.0569 -0.9355  1.7990
 4276TIP3   OH234242   4.447   3.051  15.839 -0.2462  0.9145 -0.1276
 4276TIP3    H134243   4.491   3.062  15.755 -1.1932 -2.7507 -1.2197
 4276TIP3    H234244   4.365   3.100  15.829 -0.7769 -0.2367 -1.7353
 4277TIP3   OH234245   0.104   2.167   4.149  0.1141  0.0813 -0.7222
 4277TIP3    H134246   0.070   2.224   4.219 -0.1757  0.5764 -1.2661
 4277TIP3    H234247   0.196   2.192   4.142  0.9895 -2.2462  1.7317
 4278TIP3   OH234248   4.431   0.772   1.551  0.3921  0.2087 -0.1263
 4278TIP3    H134249   4.372   0.754   1.478  1.5776  1.8842 -1.5347
 4278TIP3    H234250   4.376   0.816   1.616  0.4212  3.5103 -2.2139
 4279TIP3   OH234251   6.007   5.291  10.493  0.1382 -0.1427  0.1805
 4279TIP3    H134252   5.974   5.260  10.577  2.3161  0.6590  1.3622
 4279TIP3    H234253   6.069   5.223  10.465 -1.0021 -0.6933 -1.0865
 4280TIP3   OH234254   5.934   0.403   4.428 -0.1316  0.3688 -0.0761
 4280TIP3    H134255   5.951   0.497   4.430  0.6671  0.2944 -1.9643
 4280TIP3    H234256   5.850   0.394   4.383 -0.0732  0.1664 -0.1474
 4281TIP3   OH234257   5.794   1.383   3.496 -0.7245 -0.3338  0.2607
 4281TIP3    H134258   5.785   1.444   3.423 -0.6860 -0.7961 -0.1342
 4281TIP3    H234259   5.732   1.312   3.476 -0.6325 -0.5168  0.6180
 4282TIP3   OH234260   4.010   1.837   0.984 -0.3974  0.0898  0.3787
 4282TIP3    H134261   4.042   1.831   1.074 -0.6988 -1.7621  0.3679
 4282TIP3    H234262   4.012   1.931   0.965  1.4940  0.3353  1.6481
 4283TIP3   OH234263   2.046   6.291  14.691  0.7458  0.3813 -0.0932
 4283TIP3    H134264   2.013   6.296  14.780 -0.0255 -0.1117 -0.3439
 4283TIP3    H234265   2.039   6.198  14.668  0.8626  0.5181 -0.6881
 4284TIP3   OH234266   1.279   1.212   5.547 -0.0102  0.2373 -0.1102
 4284TIP3    H134267   1.215   1.266   5.501  1.6803  1.0624 -1.5841
 4284TIP3    H234268   1.227   1.154   5.602 -1.9763  1.4372 -0.6473
 4285TIP3   OH234269   0.182   3.392  12.422  0.3155  0.0376 -0.0689
 4285TIP3    H134270   0.140   3.425  12.342 -0.7459  1.0729  0.8909
 4285TIP3    H234271   0.140   3.308  12.439 -1.2469  0.9694  0.7666
 4286TIP3   OH234272   1.933   1.027   0.844 -0.0257 -0.0271  0.2375
 4286TIP3    H134273   1.966   1.060   0.928 -0.3632  0.5962  0.1291
 4286TIP3    H234274   1.985   0.948   0.827  1.1089  0.6960  0.2841
 4287TIP3   OH234275   1.391   0.128  16.049 -0.1372 -0.5823 -0.4167
 4287TIP3    H134276   1.354   0.043  16.026  0.1582 -0.3766 -1.6609
 4287TIP3    H234277   1.470   0.135  15.995  0.8890 -0.3386  1.0575
 4288TIP3   OH234278   3.770   0.068   5.962  0.4588 -0.0518 -0.0958
 4288TIP3    H134279   3.685   0.039   5.994  0.7920 -2.1203 -0.9958
 4288TIP3    H234280   3.750   0.113   5.879  0.1021  0.7995  0.4492
 4289TIP3   OH234281   1.538   5.704  16.941 -0.0695  0.4224  0.8976
 4289TIP3    H134282   1.590   5.704  17.021 -0.7153 -0.8551  1.3243
 4289TIP3    H234283   1.580   5.639  16.885  0.7612  1.7713 -0.0626
 4290TIP3   OH234284   3.397   0.158  11.084  0.1281  0.4346  0.3393
 4290TIP3    H134285   3.364   0.074  11.118 -1.4161  0.1366 -1.8223
 4290TIP3    H234286   3.490   0.141  11.066  0.2821 -0.2336  1.6632
 4291TIP3   OH234287   4.897   6.639  11.692 -0.4294  0.2831 -0.1347
 4291TIP3    H134288   4.990   6.615  11.690 -0.2140  1.1392 -1.2752
 4291TIP3    H234289   4.881   6.665  11.783  0.3806 -0.1482  0.1310
 4292TIP3   OH234290   6.033   3.305   1.360  0.5137  0.1782 -0.6431
 4292TIP3    H134291   5.964   3.370   1.345  1.0024  0.8176 -0.1757
 4292TIP3    H234292   5.988   3.233   1.404  0.4694  1.3588  1.3183
 4293TIP3   OH234293   2.262   5.049  12.172 -0.6077  0.1615  0.4109
 4293TIP3    H134294   2.191   5.055  12.107 -0.1441 -1.4183 -0.2748
 4293TIP3    H234295   2.228   5.094  12.249 -1.4484  1.4617 -0.6873
 4294TIP3   OH234296   0.238   0.584  14.653 -0.2876 -0.2986 -0.0960
 4294TIP3    H134297   0.194   0.566  14.570  0.0174 -2.2868  0.1407
 4294TIP3    H234298   0.214   0.674  14.674 -2.1020 -0.4722 -1.2810
 4295TIP3   OH234299   5.833   1.045  15.013 -0.3765  0.6002 -0.2134
 4295TIP3    H134300   5.912   1.079  14.970  0.8005 -2.9878 -1.0405
 4295TIP3    H234301   5.859   1.032  15.104  0.4249 -1.7474 -0.7481
 4296TIP3   OH234302   5.996   1.421  12.237 -0.1854  0.1070  0.4346
 4296TIP3    H134303   5.933   1.390  12.172 -0.7108  2.0234 -0.0247
 4296TIP3    H234304   5.956   1.401  12.321  0.4947 -2.3873  0.1918
 4297TIP3   OH234305   1.182   5.995  14.827 -0.7721 -0.0175  0.6364
 4297TIP3    H134306   1.120   5.952  14.769 -0.1409 -1.8896  1.3089
 4297TIP3    H234307   1.179   5.943  14.908  0.1137  1.1343  1.4290
 4298TIP3   OH234308   6.366   4.650   1.554  0.2449  0.0264  0.2712
 4298TIP3    H134309   6.449   4.602   1.549 -0.1004 -0.4578 -0.9534
 4298TIP3    H234310   6.309   4.607   1.490 -1.9753 -1.6073  3.1823
 4299TIP3   OH234311   2.679   4.878  12.761 -0.2021  0.5089  0.3228
 4299TIP3    H134312   2.633   4.926  12.692  0.6225 -1.4721 -1.6655
 4299TIP3    H234313   2.763   4.855  12.722  0.0778 -1.0861  1.8284
 4300TIP3   OH234314   5.175   3.246  14.870 -0.0705  0.2092 -0.7672
 4300TIP3    H134315   5.242   3.252  14.938 -1.0615 -1.5393  0.3836
 4300TIP3    H234316   5.224   3.251  14.788  1.4031 -0.3795  0.0643
 4301TIP3   OH234317   0.473   3.326  11.057 -0.2408 -0.2676  0.8877
 4301TIP3    H134318   0.497   3.289  11.141 -2.5165  1.2462  2.2790
 4301TIP3    H234319   0.468   3.420  11.073  0.1925  0.1349 -1.1847
 4302TIP3   OH234320   5.653   2.732   6.616 -0.0712  0.0611 -0.4469
 4302TIP3    H134321   5.579   2.725   6.676  0.9785 -0.0336  0.8477
 4302TIP3    H234322   5.636   2.666   6.549 -0.9447 -0.2468  0.0760
 4303TIP3   OH234323   0.112   5.899   6.169  0.0757  0.1154  0.1857
 4303TIP3    H134324   0.195   5.888   6.215  0.8146  0.7923 -0.9585
 4303TIP3    H234325   0.045   5.872   6.232  1.0879  0.7557  1.5434
 4304TIP3   OH234326   2.450   3.542  17.120  0.1657  0.3433  0.0768
 4304TIP3    H134327   2.519   3.598  17.085  0.9726 -1.2347 -0.9047
 4304TIP3    H234328   2.482   3.514  17.205  1.0921 -0.9420 -0.6648
 4305TIP3   OH234329   2.244   5.771   1.892 -0.2475  0.7850  0.1077
 4305TIP3    H134330   2.169   5.753   1.835  0.2878 -1.3610  0.0361
 4305TIP3    H234331   2.210   5.833   1.957 -1.7702  0.7112 -0.5900
 4306TIP3   OH234332   5.566   3.648   0.576  0.0699  0.2939 -0.5456
 4306TIP3    H134333   5.586   3.584   0.508  0.6161  0.0607 -0.1725
 4306TIP3    H234334   5.625   3.625   0.648 -1.0025  0.0817  0.2909
 4307TIP3   OH234335   4.981   0.508   0.571 -0.0078 -0.5842  0.1001
 4307TIP3    H134336   5.038   0.537   0.642 -0.5603 -1.1986  0.8104
 4307TIP3    H234337   5.016   0.550   0.492  1.0017 -0.4130  0.6364
 4308TIP3   OH234338   5.394   5.844   2.511  0.7258 -0.5147 -0.1083
 4308TIP3    H134339   5.344   5.864   2.590  0.7562 -0.6923 -0.0445
 4308TIP3    H234340   5.481   5.820   2.542  0.9432  0.1011 -0.2405
 4309TIP3   OH234341   6.531   4.917   2.221  0.2603 -0.2126  0.2501
 4309TIP3    H134342   6.547   4.876   2.136 -0.3235 -0.7404  0.3823
 4309TIP3    H234343   6.617   4.927   2.260  0.4629 -0.7308 -0.0609
 4310TIP3   OH234344   6.070   5.766  13.854  0.1866 -0.3463  0.3646
 4310TIP3    H134345   6.069   5.671  13.846 -0.8639 -0.4175  1.2477
 4310TIP3    H234346   6.049   5.783  13.946  0.9480  0.7300  0.3621
 4311TIP3   OH234347   4.078   1.475   4.269  0.4286 -0.0604  0.3419
 4311TIP3    H134348   4.127   1.517   4.198  0.0523 -1.3520 -0.7007
 4311TIP3    H234349   4.044   1.394   4.230 -1.5333  0.2312  1.3722
 4312TIP3   OH234350   1.025   3.686   2.271 -0.3791 -0.0987  0.8699
 4312TIP3    H134351   0.948   3.723   2.228 -0.6129 -0.9566  0.5253
 4312TIP3    H234352   1.089   3.676   2.200  0.6793  2.2298  1.4704
 4313TIP3   OH234353   1.608   5.820   2.595  0.1376 -0.9735 -0.7597
 4313TIP3    H134354   1.701   5.840   2.594 -0.4757  2.4076  0.1779
 4313TIP3    H234355   1.576   5.854   2.511 -0.3963 -1.1774 -0.6402
 4314TIP3   OH234356   4.269   3.410  15.535  0.1554  0.0005  0.2792
 4314TIP3    H134357   4.262   3.488  15.589  1.7274 -0.1914  0.7967
 4314TIP3    H234358   4.278   3.338  15.598 -1.3564 -0.6055 -0.1922
 4315TIP3   OH234359   5.174   0.261  12.125  0.2024 -0.2762 -0.1979
 4315TIP3    H134360   5.235   0.307  12.182 -0.1866 -0.5256  0.4255
 4315TIP3    H234361   5.117   0.213  12.185 -1.4331  0.9893 -0.7327
 4316TIP3   OH234362   2.716   3.300   5.380 -0.0537  0.9532  0.3924
 4316TIP3    H134363   2.792   3.358   5.377 -0.3068  1.3745  1.7121
 4316TIP3    H234364   2.664   3.333   5.454 -2.0302  1.2890 -1.1173
 4317TIP3   OH234365   6.438   4.753   0.764 -0.0189 -0.4326  0.2330
 4317TIP3    H134366   6.514   4.782   0.815 -0.3528  0.5836  0.1529
 4317TIP3    H234367   6.467   4.759   0.673  0.6560 -2.4692  0.2907
 4318TIP3   OH234368   2.045   5.597   4.970 -0.7014  0.1950  0.0948
 4318TIP3    H134369   2.028   5.573   4.879 -0.5432  0.8095 -0.1040
 4318TIP3    H234370   2.119   5.542   4.996  0.3185  1.1669 -0.6753
 4319TIP3   OH234371   6.236   0.428  14.762 -0.4632 -0.6012  0.2148
 4319TIP3    H134372   6.321   0.464  14.737 -0.5216 -0.4714  0.2018
 4319TIP3    H234373   6.249   0.333  14.759 -0.7092 -0.6055 -1.1540
 4320TIP3   OH234374   5.934   1.718   4.071  0.3085  0.3208 -0.3723
 4320TIP3    H134375   5.994   1.782   4.111 -0.3560  0.7904 -0.1208
 4320TIP3    H234376   5.858   1.770   4.046  0.2561 -0.1771 -1.2367
 4321TIP3   OH234377   1.202   1.706   5.633  0.2038 -0.7603 -0.6246
 4321TIP3    H134378   1.285   1.720   5.676 -0.2384  0.6152 -0.2155
 4321TIP3    H234379   1.148   1.780   5.658 -0.9539 -1.3269 -1.3654
 4322TIP3   OH234380   1.590   0.825  16.915 -0.3647 -0.0184 -0.6646
 4322TIP3    H134381   1.549   0.883  16.980  0.6684  1.1405 -1.0391
 4322TIP3    H234382   1.521   0.808  16.851 -0.4575  1.4086 -0.9510
 4323TIP3   OH234383   1.063   5.918  15.889  0.2736 -0.1739 -0.0382
 4323TIP3    H134384   1.109   5.973  15.826 -0.0257  0.3669  0.2114
 4323TIP3    H234385   1.028   5.979  15.953 -2.3137 -0.3859 -1.1789
 4324TIP3   OH234386   2.900   0.409  16.699 -0.2628  0.3848 -0.6277
 4324TIP3    H134387   2.806   0.416  16.683 -0.7461 -1.1353  1.3012
 4324TIP3    H234388   2.923   0.322  16.667  1.0616  1.7271 -3.5158
 4325TIP3   OH234389   0.826   4.260  15.147 -0.5962 -0.2390  0.3316
 4325TIP3    H134390   0.899   4.225  15.095 -0.9907  1.2480 -1.2712
 4325TIP3    H234391   0.857   4.257  15.237  0.2136 -2.6215  0.0008
 4326TIP3   OH234392   5.767   3.620  13.490  0.1318 -0.2454  0.2168
 4326TIP3    H134393   5.681   3.581  13.507 -0.0519 -0.2666 -0.7140
 4326TIP3    H234394   5.769   3.699  13.543 -0.2319 -0.5621  0.6962
 4327TIP3   OH234395   0.246   4.187   3.319 -0.3641  0.0304  0.3550
 4327TIP3    H134396   0.227   4.093   3.323 -0.3594 -0.1371 -2.2990
 4327TIP3    H234397   0.322   4.193   3.261 -0.2527  1.6620  0.6530
 4328TIP3   OH234398   5.686   0.438  16.873  0.6897 -0.0285 -0.0931
 4328TIP3    H134399   5.735   0.451  16.792  2.0226  0.2801  0.7515
 4328TIP3    H234400   5.718   0.506  16.932  0.8285 -1.1874  1.2000
 4329TIP3   OH234401   0.895   5.208   0.992  0.6954 -0.3117  0.3263
 4329TIP3    H134402   0.815   5.194   0.942  2.2422 -1.4968 -1.8696
 4329TIP3    H234403   0.920   5.120   1.021  0.5963  0.1933  2.0290
 4330TIP3   OH234404   1.183   3.903   1.034  0.3497  0.3542  0.4885
 4330TIP3    H134405   1.257   3.948   0.994 -0.5058  1.2830 -0.0757
 4330TIP3    H234406   1.119   3.895   0.964 -0.4614  0.4233  1.2120
 4331TIP3   OH234407   5.683   3.472  15.154 -0.7397  0.0831  0.1098
 4331TIP3    H134408   5.736   3.548  15.177 -0.0209 -0.1420 -0.7816
 4331TIP3    H234409   5.742   3.397  15.168 -1.1234 -0.2353  0.0106
 4332TIP3   OH234410   3.856   2.445   5.239 -0.2119 -0.3490  0.3527
 4332TIP3    H134411   3.919   2.379   5.212 -0.8364  0.2938 -3.0050
 4332TIP3    H234412   3.887   2.477   5.323  2.5564 -1.7748 -0.0990
 4333TIP3   OH234413   5.431   0.788   4.460  0.1094 -0.2626  0.0967
 4333TIP3    H134414   5.370   0.830   4.521  0.8835 -0.4991  1.0455
 4333TIP3    H234415   5.462   0.711   4.507  1.3804  0.0261 -0.2591
 4334TIP3   OH234416   1.522   3.671   2.308  0.4763  0.3005 -0.7238
 4334TIP3    H134417   1.501   3.635   2.394  1.8150  2.3259  0.5009
 4334TIP3    H234418   1.563   3.599   2.260  1.3430 -0.3512  0.9761
 4335TIP3   OH234419   0.885   2.575   1.737 -0.3347  1.2121  0.4661
 4335TIP3    H134420   0.875   2.662   1.775  2.4365  1.3572  0.9924
 4335TIP3    H234421   0.973   2.577   1.698 -1.0662 -0.6672 -1.3491
 4336TIP3   OH234422   3.608   6.480   6.363 -0.3437  0.2674 -0.1208
 4336TIP3    H134423   3.703   6.480   6.359 -0.3032  1.0262  0.7085
 4336TIP3    H234424   3.586   6.554   6.420 -1.2732 -2.4766  3.2916
 4337TIP3   OH234425   6.428   2.091  13.290  0.2547  0.3806 -0.6740
 4337TIP3    H134426   6.337   2.065  13.272  0.9156 -0.3736 -3.1057
 4337TIP3    H234427   6.428   2.112  13.383 -1.9146 -1.7781 -0.1098
 4338TIP3   OH234428   2.443   2.016   3.190 -0.2544  0.2270  0.1963
 4338TIP3    H134429   2.472   1.971   3.268 -2.1033 -0.5104  0.4965
 4338TIP3    H234430   2.352   2.041   3.209  0.1163  2.3400 -0.7096
 4339TIP3   OH234431   4.360   4.440   4.089 -0.3836  0.7044 -0.7067
 4339TIP3    H134432   4.445   4.435   4.132 -0.6584 -1.2034 -0.3499
 4339TIP3    H234433   4.299   4.461   4.159 -0.2015  2.2676 -0.9952
 4340TIP3   OH234434   5.363   3.867   4.032 -0.1760 -0.4269  0.0357
 4340TIP3    H134435   5.282   3.877   3.982  0.5624 -0.7031 -1.2387
 4340TIP3    H234436   5.430   3.905   3.976  0.4368  0.7517  1.5457
 4341TIP3   OH234437   0.685   0.322   3.830 -0.4156  0.3299 -0.1693
 4341TIP3    H134438   0.592   0.333   3.813 -0.4967  1.7411  1.0827
 4341TIP3    H234439   0.689   0.294   3.921  0.4221  0.8995 -0.0294
 4342TIP3   OH234440   5.984   4.447   2.499  0.1516 -0.1106  0.6043
 4342TIP3    H134441   6.065   4.411   2.535  0.8237  0.9498  0.2041
 4342TIP3    H234442   5.991   4.430   2.405  1.1748  2.2944  0.1950
 4343TIP3   OH234443   1.205   6.478  10.483  0.4372  0.1091  0.4214
 4343TIP3    H134444   1.199   6.455  10.575  3.5356 -0.7333  0.4648
 4343TIP3    H234445   1.133   6.431  10.441  0.0349 -0.8395  2.1639
 4344TIP3   OH234446   1.717   6.326  13.864  0.7145 -0.7935 -0.4514
 4344TIP3    H134447   1.792   6.308  13.921 -1.3663 -3.0284  1.7201
 4344TIP3    H234448   1.656   6.375  13.919  0.1365  0.1044 -1.8665
 4345TIP3   OH234449   5.223   2.734   5.192 -0.1165 -0.0370 -0.2148
 4345TIP3    H134450   5.273   2.654   5.208  0.1924 -0.3033 -2.3333
 4345TIP3    H234451   5.253   2.763   5.106 -1.8340  1.1592 -0.4195
 4346TIP3   OH234452   1.285   4.426   0.584  0.2230  0.2357 -0.0974
 4346TIP3    H134453   1.231   4.498   0.616  1.6193  0.9370  0.6937
 4346TIP3    H234454   1.360   4.468   0.541  0.5704 -0.7332 -0.4684
 4347TIP3   OH234455   3.450   4.263   4.978  1.1581  0.9369 -0.1093
 4347TIP3    H134456   3.437   4.354   4.950  2.1231  0.4998 -2.0477
 4347TIP3    H234457   3.431   4.211   4.900  0.2389 -0.5744  1.0874
 4348TIP3   OH234458   0.943   4.151   5.697  0.1051 -0.2482 -0.5639
 4348TIP3    H134459   0.906   4.078   5.748  0.3573  1.2303  1.8501
 4348TIP3    H234460   0.884   4.160   5.622 -1.2046 -1.5311  0.2805
 4349TIP3   OH234461   0.068   3.996   5.861  0.0091  0.1479 -0.2782
 4349TIP3    H134462  -0.023   3.988   5.832 -0.8331  2.3084  1.5551
 4349TIP3    H234463   0.066   3.971   5.953  1.3559 -0.1913 -0.3334
 4350TIP3   OH234464   6.274   2.495  14.700  0.0564  0.0822  0.3269
 4350TIP3    H134465   6.191   2.498  14.747 -0.3822 -1.7275 -0.2805
 4350TIP3    H234466   6.309   2.408  14.718  0.4144 -0.2278 -1.7758
 4351TIP3   OH234467   5.637   0.507   3.830  0.2520  0.3899  0.4062
 4351TIP3    H134468   5.701   0.475   3.895  0.2819 -0.6643 -0.1379
 4351TIP3    H234469   5.578   0.562   3.881  2.2855  2.3768  0.7206
 4352TIP3   OH234470   2.630   4.149   4.219  0.0945 -0.1388 -0.4016
 4352TIP3    H134471   2.654   4.171   4.129 -0.3970  0.9357 -0.2844
 4352TIP3    H234472   2.710   4.115   4.258  0.9420  1.5663 -0.5818
 4353TIP3   OH234473   3.933   5.663  12.689 -0.5437  0.3339 -0.2874
 4353TIP3    H134474   3.953   5.755  12.707 -0.1988  0.1522  0.2478
 4353TIP3    H234475   3.879   5.636  12.764  0.4647 -0.2776  0.2157
 4354TIP3   OH234476   4.424   1.165   2.525  0.0476 -0.5512  0.5922
 4354TIP3    H134477   4.345   1.208   2.558  0.4117 -0.5700  1.5182
 4354TIP3    H234478   4.468   1.132   2.604  0.0193 -2.1947 -0.0722
 4355TIP3   OH234479   0.632   1.552  12.985  0.0110  0.0822 -0.2387
 4355TIP3    H134480   0.592   1.573  13.070 -0.5520 -1.5503 -0.0795
 4355TIP3    H234481   0.572   1.489  12.945  1.8521 -1.5832 -0.4647
 4356TIP3   OH234482   4.178   2.630   5.478  0.0981  0.3258 -0.5623
 4356TIP3    H134483   4.137   2.596   5.558 -0.9230  0.8105 -0.8750
 4356TIP3    H234484   4.237   2.698   5.510 -2.1077  2.2301 -0.3728
 4357TIP3   OH234485   4.227   2.395   1.320  0.3239 -0.4286 -0.7147
 4357TIP3    H134486   4.244   2.446   1.241  2.0200 -0.4006 -0.3408
 4357TIP3    H234487   4.189   2.313   1.288 -0.1005  0.0650 -1.4743
 4358TIP3   OH234488   3.854   3.557  14.864 -0.6348  0.2802  0.1022
 4358TIP3    H134489   3.766   3.576  14.833 -0.8737 -0.4532  0.3289
 4358TIP3    H234490   3.881   3.637  14.910 -1.5044  0.1940  0.7762
 4359TIP3   OH234491   1.550   3.975  13.297  0.0720  0.1639  0.0945
 4359TIP3    H134492   1.592   3.898  13.336  0.7928  0.5905  0.1788
 4359TIP3    H234493   1.612   4.005  13.231 -0.7723 -0.0672 -0.8131
 4360TIP3   OH234494   2.667   3.218  10.522 -0.3786  0.4851  0.4449
 4360TIP3    H134495   2.583   3.234  10.565 -1.3832 -0.9909 -0.9267
 4360TIP3    H234496   2.694   3.132  10.553  0.7374  1.0223  1.0086
 4361TIP3   OH234497   2.420   5.391  14.062 -0.1665 -0.1956 -0.9354
 4361TIP3    H134498   2.469   5.394  13.980 -0.0223  1.8047 -0.7984
 4361TIP3    H234499   2.470   5.446  14.122 -1.1788 -0.2449 -0.0252
 4362TIP3   OH234500   6.299   5.951   0.086 -0.1912  0.7612 -0.5954
 4362TIP3    H134501   6.355   6.006   0.032  1.0413  1.7050  1.5561
 4362TIP3    H234502   6.305   5.863   0.048  3.5916  0.6262  0.1607
 4363TIP3   OH234503   5.166   6.506  14.945 -0.2575 -0.1300 -0.0759
 4363TIP3    H134504   5.136   6.425  14.904 -0.9744  0.5665 -0.9670
 4363TIP3    H234505   5.243   6.481  14.996 -0.3277 -1.3172 -0.5449
 4364TIP3   OH234506   6.319   1.424  13.479  0.3467  0.0404  0.1165
 4364TIP3    H134507   6.347   1.463  13.396 -0.4009  1.6001  0.5998
 4364TIP3    H234508   6.247   1.478  13.509  0.0678 -1.0092  1.3936
 4365TIP3   OH234509   4.215   0.491   2.316  0.7206 -0.1637  0.0062
 4365TIP3    H134510   4.274   0.566   2.307  1.1964 -0.3723  1.2196
 4365TIP3    H234511   4.144   0.523   2.371 -0.3370  0.1031 -1.5085
 4366TIP3   OH234512   6.288   3.750  16.471 -0.0887  0.4161 -0.3791
 4366TIP3    H134513   6.215   3.803  16.505 -0.0204 -0.5218  1.2544
 4366TIP3    H234514   6.266   3.660  16.495  1.7341  0.1462  0.3469
 4367TIP3   OH234515   4.561   3.245   6.082  0.0745  0.3896  0.9850
 4367TIP3    H134516   4.498   3.207   6.143  0.5744 -0.2471  1.1098
 4367TIP3    H234517   4.613   3.171   6.051  0.3500  0.8218  0.3992
 4368TIP3   OH234518   5.760   5.846   1.921 -0.0921 -0.2944 -0.3611
 4368TIP3    H134519   5.761   5.938   1.947  0.0099 -0.1860 -0.7395
 4368TIP3    H234520   5.689   5.840   1.858  1.1154 -0.0610 -1.7899
 4369TIP3   OH234521   0.596   4.004  14.109  0.2983  0.1551  0.3335
 4369TIP3    H134522   0.627   4.043  14.027  1.9571 -2.3940 -0.2717
 4369TIP3    H234523   0.664   4.025  14.173 -0.3315  0.9300  0.7694
 4370TIP3   OH234524   1.987   0.626   0.881 -0.0499  0.0482 -0.0866
 4370TIP3    H134525   2.008   0.547   0.832 -0.0834  0.1526 -0.2695
 4370TIP3    H234526   2.053   0.690   0.854 -0.4964  0.3278 -0.5399
 4371TIP3   OH234527   0.241   4.612   5.931  0.4993 -0.5385  0.1797
 4371TIP3    H134528   0.186   4.613   6.009 -0.4964  1.9042 -0.4978
 4371TIP3    H234529   0.311   4.674   5.950  0.9815 -0.9052 -0.3814
 4372TIP3   OH234530   3.558   5.707  16.770 -0.0557 -0.3852 -0.2696
 4372TIP3    H134531   3.606   5.686  16.851  1.1594  1.0594 -0.5865
 4372TIP3    H234532   3.610   5.667  16.701 -1.1232 -1.6619 -0.3505
 4373TIP3   OH234533   1.014   5.961   6.417  0.2322  0.0122 -0.1012
 4373TIP3    H134534   1.026   5.869   6.437  1.4919  0.0471 -0.6318
 4373TIP3    H234535   1.071   6.007   6.478 -1.2542  0.5161  0.9304
 4374TIP3   OH234536   1.825   6.194   0.146  0.1727 -0.2341 -0.0111
 4374TIP3    H134537   1.910   6.208   0.106  1.0818 -1.3069  1.4942
 4374TIP3    H234538   1.844   6.149   0.229 -1.9375 -2.0466 -0.4397
 4375TIP3   OH234539   3.261   3.901  15.729  0.0958 -0.1569 -0.7513
 4375TIP3    H134540   3.310   3.898  15.647 -0.3675  1.7000 -1.1342
 4375TIP3    H234541   3.198   3.829  15.723  0.0481 -0.0144 -2.0400
 4376TIP3   OH234542   3.547   2.124  12.622 -0.9202 -0.6016  1.2645
 4376TIP3    H134543   3.630   2.171  12.633 -1.0834 -0.2172  0.8443
 4376TIP3    H234544   3.550   2.090  12.533 -1.2877 -0.4532  1.1975
 4377TIP3   OH234545   3.317   6.734  11.530  0.6345 -0.1788  0.3465
 4377TIP3    H134546   3.366   6.748  11.611 -1.5186  1.2735  1.4302
 4377TIP3    H234547   3.283   6.645  11.538  0.2264  0.0453  1.1678
 4378TIP3   OH234548   3.555   1.796   3.605  0.2307 -0.3096  0.6146
 4378TIP3    H134549   3.526   1.779   3.695  0.6217  1.8191  1.1697
 4378TIP3    H234550   3.482   1.841   3.564  0.4893 -0.2546  0.2075
 4379TIP3   OH234551   6.057   0.257   4.219 -0.0085 -0.4678  0.5198
 4379TIP3    H134552   6.097   0.332   4.175 -3.5196  0.6238 -1.0295
 4379TIP3    H234553   6.017   0.294   4.298  0.9850 -1.3310  1.4512
 4380TIP3   OH234554   1.298   4.986   2.273  0.1471 -0.7760  0.4643
 4380TIP3    H134555   1.230   4.920   2.259 -0.6949  0.4551 -1.3934
 4380TIP3    H234556   1.376   4.935   2.296 -0.6273 -2.3938 -0.4058
 4381TIP3   OH234557   3.632   5.985  13.783  0.1497 -1.0065  0.9609
 4381TIP3    H134558   3.559   5.992  13.721 -0.4458 -1.1310  1.6277
 4381TIP3    H234559   3.709   5.971  13.729 -0.1066  0.5793  0.1587
 4382TIP3   OH234560   3.734   1.833  14.926 -0.2879  0.1858  0.6947
 4382TIP3    H134561   3.657   1.845  14.982 -0.4071 -0.3838  0.6567
 4382TIP3    H234562   3.780   1.758  14.964 -0.9362 -0.8919 -0.5940
 4383TIP3   OH234563   2.805   5.378   3.434 -0.6337 -0.6478  0.0430
 4383TIP3    H134564   2.872   5.416   3.378 -0.1617 -1.5860 -0.0534
 4383TIP3    H234565   2.852   5.356   3.515 -0.3355 -3.1687 -0.7666
 4384TIP3   OH234566   4.091   4.107  17.148 -0.0350 -0.1303 -0.4100
 4384TIP3    H134567   4.050   4.147  17.071  0.2493 -1.0897 -1.0592
 4384TIP3    H234568   4.076   4.171  17.218 -0.3942  0.6972 -1.2268
 4385TIP3   OH234569   0.165   1.738  12.479  0.2951 -0.1138 -0.4419
 4385TIP3    H134570   0.178   1.647  12.452  0.8083 -0.0622 -0.3756
 4385TIP3    H234571   0.244   1.783  12.450  0.1659  0.2564 -0.2210
 4386TIP3   OH234572   0.312   1.034  12.298 -0.0559  0.3109 -0.0879
 4386TIP3    H134573   0.227   1.067  12.268  1.0008  1.2744 -2.0797
 4386TIP3    H234574   0.371   1.109  12.293  0.9313 -0.3400  1.3464
 4387TIP3   OH234575   1.645   0.031  11.965  0.1611  0.6141  0.7060
 4387TIP3    H134576   1.648  -0.050  11.914  0.9584  0.6988  0.6096
 4387TIP3    H234577   1.610   0.097  11.905  0.7043  0.6197  0.3898
 4388TIP3   OH234578   6.481   5.811  13.570 -0.7142  0.2714 -0.2378
 4388TIP3    H134579   6.532   5.754  13.628  0.3457  1.8312  0.3922
 4388TIP3    H234580   6.452   5.883  13.626 -1.9197  0.4322 -1.0567
 4389TIP3   OH234581   1.834   4.155   0.793 -0.2569 -0.1935 -0.4889
 4389TIP3    H134582   1.798   4.073   0.759 -1.2980 -0.4632  1.2230
 4389TIP3    H234583   1.919   4.131   0.828 -0.1716 -0.3613 -0.8063
 4390TIP3   OH234584   0.156   3.383   2.999 -0.7044  0.2297  0.4322
 4390TIP3    H134585   0.146   3.311   3.061 -0.7736 -1.0844 -1.0992
 4390TIP3    H234586   0.166   3.461   3.055 -0.5077 -0.9615  2.0856
 4391TIP3   OH234587   5.782   1.832  16.628  0.3175  0.3188 -0.2073
 4391TIP3    H134588   5.689   1.847  16.613  0.5265  0.8411 -1.0178
 4391TIP3    H234589   5.821   1.919  16.630  1.3058  0.0390 -3.3884
 4392TIP3   OH234590   3.501   2.617   4.751  0.7189 -0.4519  0.5730
 4392TIP3    H134591   3.533   2.529   4.771 -0.3893 -0.9179  0.3477
 4392TIP3    H234592   3.448   2.641   4.827 -1.0347 -1.0087 -0.4445
 4393TIP3   OH234593   1.345   3.422   2.607 -0.1651 -0.3042  0.5108
 4393TIP3    H134594   1.356   3.347   2.665  0.3723  0.1782  1.0348
 4393TIP3    H234595   1.431   3.463   2.602 -0.0834 -0.6360 -1.0494
 4394TIP3   OH234596   4.006   6.113  14.634  0.5438 -0.2984  0.0974
 4394TIP3    H134597   3.983   6.075  14.549 -1.6393  0.7444  0.1824
 4394TIP3    H234598   3.987   6.044  14.697  1.8464 -0.9580 -0.2076
 4395TIP3   OH234599   5.407   4.671  12.918 -0.3282  0.2734 -0.5824
 4395TIP3    H134600   5.333   4.613  12.902  0.1035  0.2350 -2.5695
 4395TIP3    H234601   5.393   4.746  12.860  0.7366  0.6759 -0.3368
 4396TIP3   OH234602   5.621   1.260  16.902 -0.5733  0.6417 -0.1367
 4396TIP3    H134603   5.601   1.195  16.969  1.8335  1.1495  1.1213
 4396TIP3    H234604   5.578   1.340  16.933 -0.9617  0.4286 -0.1226
 4397TIP3   OH234605   4.148   4.596   2.018 -0.6275 -0.3228 -0.2920
 4397TIP3    H134606   4.225   4.653   2.024 -1.0138  0.3063 -1.1210
 4397TIP3    H234607   4.138   4.580   1.924  0.3556 -2.9759  0.0157
 4398TIP3   OH234608   4.185   1.820  16.243  0.5947  0.3282 -0.1100
 4398TIP3    H134609   4.123   1.883  16.279 -1.9161 -1.4045 -1.2231
 4398TIP3    H234610   4.212   1.767  16.318 -0.7737 -0.0975  0.1100
 4399TIP3   OH234611   5.258   3.588  11.901  0.3361 -0.0827 -0.2375
 4399TIP3    H134612   5.283   3.521  11.837  0.9461 -0.7143  0.6585
 4399TIP3    H234613   5.316   3.573  11.976 -0.7280  0.3194  0.6767
 4400TIP3   OH234614   6.601   0.420   4.242 -0.2461  0.0096 -0.0165
 4400TIP3    H134615   6.559   0.338   4.218 -3.6057  1.7453 -0.4044
 4400TIP3    H234616   6.611   0.416   4.337 -1.8040 -0.2486  0.1464
 4401TIP3   OH234617   2.647   3.879  12.812 -0.2168  0.2127  0.3389
 4401TIP3    H134618   2.735   3.889  12.847  0.1619 -2.4768  0.1851
 4401TIP3    H234619   2.625   3.787  12.824 -2.3454  0.4627 -1.1933
 4402TIP3   OH234620   5.299   3.150   3.309 -0.0830  0.2555 -0.4851
 4402TIP3    H134621   5.365   3.112   3.367  0.3930  1.5175 -0.1688
 4402TIP3    H234622   5.305   3.099   3.228  0.5225 -0.3304 -0.0739
 4403TIP3   OH234623   5.493   6.742  11.108 -0.5102 -0.0212 -0.1535
 4403TIP3    H134624   5.566   6.708  11.057 -0.0144 -0.1389  0.6289
 4403TIP3    H234625   5.415   6.701  11.069 -0.0943 -0.4700 -0.5104
 4404TIP3   OH234626   0.122   3.634  13.465 -0.1173  0.3453 -0.2474
 4404TIP3    H134627   0.063   3.680  13.406  0.1136  1.1459  0.1312
 4404TIP3    H234628   0.205   3.681  13.457  0.4492 -0.7262 -0.7313
 4405TIP3   OH234629   5.217   6.327   5.225 -0.1350  0.3319  0.1815
 4405TIP3    H134630   5.246   6.291   5.308 -0.3924  1.6900  0.8713
 4405TIP3    H234631   5.124   6.303   5.220  0.3248 -1.3862 -0.6163
 4406TIP3   OH234632   5.347   3.916   2.332 -0.3726  0.0542  0.3181
 4406TIP3    H134633   5.429   3.883   2.296 -1.1833  0.3242 -1.8799
 4406TIP3    H234634   5.333   3.999   2.288 -2.6020 -0.7334 -0.5554
 4407TIP3   OH234635   0.334   2.502  14.279 -0.0807  0.5755 -0.5683
 4407TIP3    H134636   0.318   2.596  14.287  0.9087  0.7715 -0.7324
 4407TIP3    H234637   0.262   2.470  14.225 -0.8832  1.0972  0.1902
 4408TIP3   OH234638   5.346   6.445   4.372  0.3001 -0.0245  0.1816
 4408TIP3    H134639   5.350   6.461   4.466 -2.3729 -3.4867  0.9779
 4408TIP3    H234640   5.424   6.394   4.353  1.5542  1.8236  0.2005
 4409TIP3   OH234641   4.330   6.082  14.125 -1.0925  0.0632  0.1575
 4409TIP3    H134642   4.343   6.059  14.033 -0.4239 -0.6881  0.4405
 4409TIP3    H234643   4.388   6.023  14.173 -0.8408  0.9948  1.0130
 4410TIP3   OH234644   3.644   6.337  15.977  0.4019 -0.6893 -0.6930
 4410TIP3    H134645   3.586   6.397  15.930  0.4430  0.9357  1.2341
 4410TIP3    H234646   3.732   6.368  15.956  0.4955 -1.4814 -1.4789
 4411TIP3   OH234647   5.544   0.109  10.578  0.0056 -0.1221  0.4223
 4411TIP3    H134648   5.525   0.058  10.657  0.7512 -2.1101 -0.6620
 4411TIP3    H234649   5.471   0.090  10.519 -0.0585  0.6043  0.2620
 4412TIP3   OH234650   4.430   5.090   1.297  0.1723 -0.8014 -0.6210
 4412TIP3    H134651   4.344   5.090   1.254 -1.0892 -0.1398  1.8486
 4412TIP3    H234652   4.492   5.072   1.226 -1.7952  0.8109 -2.8217
 4413TIP3   OH234653   5.796   0.093  10.825  0.1956 -0.9060 -0.9772
 4413TIP3    H134654   5.803   0.181  10.789  0.3629 -0.3602  0.3507
 4413TIP3    H234655   5.706   0.067  10.806  0.1697 -0.4800 -1.4538
 4414TIP3   OH234656   6.001   3.255   0.255 -0.9585  0.7927 -0.9926
 4414TIP3    H134657   5.968   3.291   0.173  2.1968  1.9682 -1.8387
 4414TIP3    H234658   6.096   3.268   0.250 -0.5042 -0.9048  1.9923
 4415TIP3   OH234659   3.095   0.162   6.363  0.5900 -0.0623  0.3031
 4415TIP3    H134660   3.154   0.197   6.430 -0.2791  1.3347  0.3648
 4415TIP3    H234661   3.008   0.168   6.403  0.1421  0.1855 -0.7069
 4416TIP3   OH234662   5.533   5.619  16.810  0.1634 -0.3399  0.5437
 4416TIP3    H134663   5.510   5.602  16.901 -1.1352  0.1084  0.3131
 4416TIP3    H234664   5.539   5.532  16.770  1.5556 -0.5738  1.2364
 4417TIP3   OH234665   2.967   3.149  15.261  0.4047 -0.1116 -0.0340
 4417TIP3    H134666   2.997   3.237  15.242  0.5143 -0.0719  0.3184
 4417TIP3    H234667   3.047   3.095  15.259  0.2256 -0.3545 -1.1077
 4418TIP3   OH234668   6.706   0.790   1.451 -0.2653 -0.2436  0.4078
 4418TIP3    H134669   6.776   0.842   1.489  0.1991  0.1275 -0.9108
 4418TIP3    H234670   6.746   0.750   1.373 -1.6496  0.3661 -0.6373
 4419TIP3   OH234671   0.831   2.477  16.208 -0.1498 -0.1333 -0.3124
 4419TIP3    H134672   0.798   2.392  16.236  0.7475 -0.6277 -0.7374
 4419TIP3    H234673   0.794   2.539  16.271  2.1761 -1.2551  2.2948
 4420TIP3   OH234674   0.754   6.292  17.215  0.0646 -0.2347 -0.0182
 4420TIP3    H134675   0.849   6.292  17.231 -0.5071  1.4980  4.2950
 4420TIP3    H234676   0.739   6.371  17.164  0.7372  0.8238  1.3702
 4421TIP3   OH234677   0.719   4.602  14.683 -0.4078  0.0119  0.8593
 4421TIP3    H134678   0.657   4.612  14.611  1.2024  0.7336 -0.4881
 4421TIP3    H234679   0.752   4.690  14.699  1.5546 -0.5725  0.3147
 4422TIP3   OH234680   6.005   4.608   2.935 -0.0474  0.0982 -0.8116
 4422TIP3    H134681   6.038   4.659   2.861  1.3933 -1.2877 -1.1658
 4422TIP3    H234682   5.926   4.565   2.900  0.4263 -0.2703 -1.4594
 4423TIP3   OH234683   4.595   5.221   0.711  0.0508 -0.0340 -0.0796
 4423TIP3    H134684   4.593   5.159   0.784 -1.9908 -0.6877 -0.6666
 4423TIP3    H234685   4.651   5.292   0.742  2.9421 -2.4293  0.3787
 4424TIP3   OH234686   2.055   5.131   0.973 -0.0060  0.0975  0.0780
 4424TIP3    H134687   2.018   5.047   0.999  0.5287 -0.3296 -0.5432
 4424TIP3    H234688   2.075   5.175   1.056 -0.5131 -0.2819  0.4022
 4425TIP3   OH234689   3.055   4.083  16.456 -0.1126 -0.5196 -0.4000
 4425TIP3    H134690   3.090   4.151  16.513 -0.3108 -0.2976 -0.5426
 4425TIP3    H234691   2.963   4.108  16.443 -0.1101 -0.6575 -0.6848
 4426TIP3   OH234692   4.370   3.250   4.480  0.0604  0.8811 -0.4903
 4426TIP3    H134693   4.311   3.191   4.526  0.0678  0.0718 -1.4941
 4426TIP3    H234694   4.387   3.321   4.542 -1.1810  0.6200  0.1585
 4427TIP3   OH234695   2.444   0.240   4.128 -0.3465  0.0429  0.3005
 4427TIP3    H134696   2.402   0.283   4.202 -1.5928  0.1593 -0.4724
 4427TIP3    H234697   2.373   0.198   4.080  0.4055  0.2656 -1.0391
 4428TIP3   OH234698   3.599   3.102   2.875 -0.1663 -0.2682  0.0926
 4428TIP3    H134699   3.542   3.035   2.836  0.2832 -1.0016  0.6839
 4428TIP3    H234700   3.649   3.137   2.801 -2.4142  1.4119 -0.6755
 4429TIP3   OH234701   5.047   5.801   3.120  0.3167 -0.6706 -0.2456
 4429TIP3    H134702   5.068   5.867   3.185 -0.5387 -1.7102  1.1117
 4429TIP3    H234703   5.131   5.762   3.096  1.0209  1.9645 -2.2481
 4430TIP3   OH234704   5.554   1.783  14.649 -0.5597 -0.0837  0.1170
 4430TIP3    H134705   5.515   1.700  14.676 -0.0714  0.1841  1.7710
 4430TIP3    H234706   5.566   1.831  14.731  1.3469  0.6490 -0.5468
 4431TIP3   OH234707   4.134   0.347   3.938  0.2645 -0.0985 -0.0515
 4431TIP3    H134708   4.204   0.396   3.894  1.1538 -1.1633  0.1611
 4431TIP3    H234709   4.083   0.308   3.867  0.2069  0.2232 -0.1893
 4432TIP3   OH234710   6.187   3.830  11.442  0.3270 -0.0040  0.2966
 4432TIP3    H134711   6.236   3.852  11.521 -0.5116  0.7722  0.6100
 4432TIP3    H234712   6.110   3.887  11.445 -0.3554 -0.8776 -0.4254
 4433TIP3   OH234713   3.500   1.703  15.746 -0.2416  0.4254 -0.0846
 4433TIP3    H134714   3.538   1.680  15.661 -0.4426  0.0694 -0.0786
 4433TIP3    H234715   3.520   1.629  15.803  1.3718  1.4040  0.6531
 4434TIP3   OH234716   4.913   3.494  16.718  0.0594 -0.3632 -0.7477
 4434TIP3    H134717   4.940   3.585  16.703 -0.7020 -0.4359 -2.8143
 4434TIP3    H234718   4.827   3.501  16.760  0.7814 -0.1470  0.7318
 4435TIP3   OH234719   0.385   5.160  13.589  0.4564 -0.1242 -0.3783
 4435TIP3    H134720   0.310   5.103  13.608 -0.3649  1.6872  2.0668
 4435TIP3    H234721   0.440   5.154  13.667  0.4583  2.2277 -0.1629
 4436TIP3   OH234722   1.847   0.231   4.485  0.3083  0.4732 -0.2819
 4436TIP3    H134723   1.819   0.310   4.531 -0.6862 -0.0209 -0.0323
 4436TIP3    H234724   1.941   0.225   4.503 -0.1671 -0.0329  2.1820
 4437TIP3   OH234725   1.408   3.260  13.429  0.5812 -0.3198 -0.4999
 4437TIP3    H134726   1.372   3.314  13.359  0.2114 -1.8912 -1.5377
 4437TIP3    H234727   1.331   3.216  13.467  0.6366  1.3641  1.6342
 4438TIP3   OH234728   4.079   2.956  11.743  0.2347 -0.1520  0.2323
 4438TIP3    H134729   4.147   2.891  11.761 -0.0034 -0.9595 -1.6494
 4438TIP3    H234730   4.120   3.017  11.682 -0.2836  0.1340  0.1677
 4439TIP3   OH234731   5.888   3.624   4.307  0.3709  0.9112  0.2783
 4439TIP3    H134732   5.855   3.538   4.333 -0.6268  0.2322 -3.0521
 4439TIP3    H234733   5.978   3.607   4.279 -0.2489  0.6916 -1.6270
 4440TIP3   OH234734   1.958   3.107  12.375  0.0720 -0.4716  0.0976
 4440TIP3    H134735   1.870   3.069  12.382 -0.2853  0.5051  1.0719
 4440TIP3    H234736   2.005   3.072  12.451 -0.1250  0.6797  0.7520
 4441TIP3   OH234737   1.438   2.082  13.017  0.0355 -0.2868  0.6075
 4441TIP3    H134738   1.525   2.056  12.986  0.3521 -0.4058  1.5768
 4441TIP3    H234739   1.380   2.011  12.989  0.2764 -0.2835  0.0961
 4442TIP3   OH234740   4.975   4.359   1.131  0.0684  0.0284 -0.3409
 4442TIP3    H134741   4.965   4.316   1.216  1.2434 -1.2792 -0.8427
 4442TIP3    H234742   5.059   4.404   1.137  0.1303 -0.0228 -0.7853
 4443TIP3   OH234743   3.019   2.096   0.711 -0.1740 -0.0604  0.2661
 4443TIP3    H134744   2.929   2.067   0.725 -0.4771  1.2970  1.1981
 4443TIP3    H234745   3.069   2.053   0.780 -0.1742 -0.4926 -0.0027
 4444TIP3   OH234746   3.565   6.618   1.614  0.5940 -0.4591 -0.0391
 4444TIP3    H134747   3.502   6.581   1.552  1.1746  1.5374 -1.9094
 4444TIP3    H234748   3.569   6.711   1.591  1.8992  0.0552  2.1008
 4445TIP3   OH234749   5.743   0.162  16.974  0.4518 -0.3210  0.0765
 4445TIP3    H134750   5.826   0.187  17.015  0.3652 -1.1975  0.7846
 4445TIP3    H234751   5.699   0.246  16.957  1.1853  0.1164  0.3044
 4446TIP3   OH234752   4.350   6.308   5.974 -0.6450  0.3832  0.5583
 4446TIP3    H134753   4.345   6.401   5.997 -4.0973  0.4216 -0.1015
 4446TIP3    H234754   4.369   6.264   6.057 -0.6032  1.5472  1.1747
 4447TIP3   OH234755   6.200   2.801   3.274  0.9331  0.0994  0.1227
 4447TIP3    H134756   6.247   2.719   3.284  1.4239  0.5611  1.6639
 4447TIP3    H234757   6.245   2.862   3.333 -0.3426  1.0767  0.1032
 4448TIP3   OH234758   3.974   3.323  16.218 -0.0468 -0.5015  0.6816
 4448TIP3    H134759   4.070   3.317  16.218  0.0714  0.9840  1.6091
 4448TIP3    H234760   3.948   3.298  16.129  1.2733 -0.1395  0.1748
 4449TIP3   OH234761   1.698   1.951   2.520  0.0969  0.0664 -0.3342
 4449TIP3    H134762   1.654   2.014   2.576 -0.3283  0.4038 -1.0437
 4449TIP3    H234763   1.791   1.970   2.530  0.1396 -1.0034  1.5928
 4450TIP3   OH234764   5.773   4.741  14.753 -0.2097  0.3211 -0.3282
 4450TIP3    H134765   5.680   4.730  14.770 -0.0679 -0.2542  0.1294
 4450TIP3    H234766   5.781   4.826  14.710 -1.0081  0.0845 -0.9467
 4451TIP3   OH234767   0.521   5.111   2.817 -0.1222  0.3247  0.1093
 4451TIP3    H134768   0.592   5.121   2.880 -1.4984  1.4296  1.5470
 4451TIP3    H234769   0.531   5.023   2.783  1.2498  0.0671  1.1410
 4452TIP3   OH234770   5.869   3.836   2.873  0.2960  0.1906 -0.1332
 4452TIP3    H134771   5.923   3.893   2.818  0.7189  0.5742  0.6729
 4452TIP3    H234772   5.868   3.879   2.958 -3.2974  1.4940 -0.7648
 4453TIP3   OH234773   4.165   6.607   1.946 -0.4096  0.1545 -0.0638
 4453TIP3    H134774   4.140   6.664   1.874  0.8417  1.8610  0.8264
 4453TIP3    H234775   4.106   6.631   2.017 -0.0246  0.1814  0.2493
 4454TIP3   OH234776   0.616   5.996  16.205  0.6647 -0.5513  0.3227
 4454TIP3    H134777   0.522   5.983  16.190  0.9032 -0.2508 -1.6198
 4454TIP3    H234778   0.653   6.001  16.117  2.3427  0.4825  1.0709
 4455TIP3   OH234779   4.227   0.675  16.754 -0.0745 -0.1726  0.6719
 4455TIP3    H134780   4.302   0.616  16.759 -0.0096 -0.1504 -0.0543
 4455TIP3    H234781   4.262   0.759  16.726 -0.4811 -0.3815 -0.4872
 4456TIP3   OH234782   2.224   5.272   4.731  0.1841 -0.0676  0.3758
 4456TIP3    H134783   2.225   5.177   4.718 -0.2613  0.1448 -1.2670
 4456TIP3    H234784   2.285   5.286   4.803  3.2198 -1.2328 -1.8493
 4457TIP3   OH234785   1.810   0.950  13.243  0.5231  0.4281 -0.0403
 4457TIP3    H134786   1.758   1.030  13.254 -1.4213 -0.8752  0.4841
 4457TIP3    H234787   1.830   0.947  13.150  0.7737  1.6189 -0.0325
 4458TIP3   OH234788   3.657   0.849  10.787 -0.2874 -0.4639 -0.1012
 4458TIP3    H134789   3.567   0.871  10.809 -0.5574 -1.1321 -0.5252
 4458TIP3    H234790   3.651   0.766  10.741  0.7443 -1.5124  1.6150
 4459TIP3   OH234791   1.664   4.839   4.903  0.2386 -0.1803  0.4902
 4459TIP3    H134792   1.709   4.860   4.821 -0.2972  0.5907  0.3871
 4459TIP3    H234793   1.598   4.775   4.880 -1.2264  1.4821 -0.0576
 4460TIP3   OH234794   3.469   6.579  13.993 -0.0041 -0.1368 -0.5406
 4460TIP3    H134795   3.436   6.623  13.914  2.4595 -0.6168 -1.8933
 4460TIP3    H234796   3.537   6.638  14.027 -0.0876 -0.5880  0.4207
 4461TIP3   OH234797   5.751   5.448  16.984 -0.8298 -0.3679  0.0907
 4461TIP3    H134798   5.717   5.532  17.017 -1.8166 -0.1974 -1.3088
 4461TIP3    H234799   5.772   5.399  17.063 -1.4088  0.7330  0.9578
 4462TIP3   OH234800   2.256   3.584   3.341 -0.7620 -0.0424 -0.8627
 4462TIP3    H134801   2.205   3.539   3.274 -1.2101 -0.9539  0.0781
 4462TIP3    H234802   2.346   3.583   3.308 -1.3950  1.8973 -2.6939
 4463TIP3   OH234803   4.305   6.642   3.814  0.7500 -0.7790 -0.1390
 4463TIP3    H134804   4.210   6.632   3.822  1.2022 -4.2301  2.1086
 4463TIP3    H234805   4.321   6.650   3.720 -1.6642 -1.4158 -0.6283
 4464TIP3   OH234806   5.628   6.028   2.347 -0.4413  0.3839  0.5478
 4464TIP3    H134807   5.594   6.117   2.345 -0.4265  0.3647 -1.5698
 4464TIP3    H234808   5.555   5.975   2.377 -1.0030  0.8778  0.0527
 4465TIP3   OH234809   3.530   5.752  14.392 -0.2005  1.1552 -0.3896
 4465TIP3    H134810   3.509   5.663  14.362 -3.4192  1.9632 -0.7666
 4465TIP3    H234811   3.607   5.741  14.447  0.4886 -1.6301 -1.7983
 4466TIP3   OH234812   2.631   4.250  10.818 -0.3165  0.2208  0.4021
 4466TIP3    H134813   2.591   4.294  10.893  0.2205  0.4506  0.5565
 4466TIP3    H234814   2.616   4.157  10.835 -1.9469  0.3598 -0.2084
 4467TIP3   OH234815   0.330   5.773  16.919 -0.1398 -0.4202 -0.2161
 4467TIP3    H134816   0.378   5.787  16.837  1.2733 -1.1788  0.4513
 4467TIP3    H234817   0.383   5.818  16.986 -2.6456  2.4670 -0.0624
 4468TIP3   OH234818   4.143   6.423  17.158  0.2709 -0.2330 -0.2457
 4468TIP3    H134819   4.203   6.423  17.233 -1.5353  1.6907  1.2603
 4468TIP3    H234820   4.187   6.370  17.092  3.5042  0.8702  0.9197
 4469TIP3   OH234821   6.473   6.249   5.192 -0.1394 -0.2191 -0.0835
 4469TIP3    H134822   6.419   6.280   5.120  0.2224 -0.2097 -0.3529
 4469TIP3    H234823   6.488   6.156   5.173 -0.8721 -0.4581  0.5013
 4470TIP3   OH234824   6.488   0.344  15.949 -0.1833 -0.2968  0.5344
 4470TIP3    H134825   6.472   0.303  16.034 -1.8091  0.4168  0.6019
 4470TIP3    H234826   6.451   0.282  15.886 -0.7777  0.1014  0.4923
 4471TIP3   OH234827   4.284   3.085  11.639 -0.2114  0.8420 -0.1267
 4471TIP3    H134828   4.271   3.165  11.690  1.2322  1.1422 -0.2020
 4471TIP3    H234829   4.326   3.024  11.701  0.8753  0.9592 -0.7393
 4472TIP3   OH234830   0.044   4.271  14.080 -0.2606  0.2264 -0.5685
 4472TIP3    H134831   0.006   4.292  13.995 -2.3829 -0.5750  0.1482
 4472TIP3    H234832  -0.014   4.203  14.116 -0.5907  1.9992  2.3991
 4473TIP3   OH234833   2.709   0.184  16.970 -0.6029 -0.3157 -0.6907
 4473TIP3    H134834   2.772   0.165  16.900 -1.5684  0.7604 -1.8723
 4473TIP3    H234835   2.627   0.202  16.924 -1.3108  0.1624  0.7417
 4474TIP3   OH234836   4.164   6.182  11.073  0.2258  0.2965 -0.0970
 4474TIP3    H134837   4.190   6.215  10.987 -2.9746  0.6401 -1.0098
 4474TIP3    H234838   4.088   6.235  11.097 -0.2559 -1.2654  1.9499
 4475TIP3   OH234839   5.457   1.733  11.502 -0.1291 -0.3545  0.6308
 4475TIP3    H134840   5.411   1.817  11.496  0.0579 -0.3098 -0.2240
 4475TIP3    H234841   5.550   1.756  11.500 -0.0791 -0.6287 -0.3354
 4476TIP3   OH234842   1.144   4.443   4.064 -0.0996 -0.3359  0.3814
 4476TIP3    H134843   1.143   4.527   4.018 -0.8595  0.8668  2.5106
 4476TIP3    H234844   1.130   4.378   3.995  1.1397  1.2201 -1.4012
 4477TIP3   OH234845   0.856   5.702   5.050  0.2552  0.5817 -0.6962
 4477TIP3    H134846   0.885   5.708   5.141 -1.8303  2.3077 -0.1080
 4477TIP3    H234847   0.819   5.614   5.042  2.3339 -0.3454 -0.4879
 4478TIP3   OH234848   4.248   4.097   1.058 -0.6658 -0.0370  0.7487
 4478TIP3    H134849   4.259   4.183   1.016  2.3370 -0.4082  0.6951
 4478TIP3    H234850   4.337   4.069   1.079 -1.5848 -3.3303  0.4496
 4479TIP3   OH234851   1.264   3.678   2.561  0.3942 -0.5870  0.2093
 4479TIP3    H134852   1.265   3.703   2.653 -1.1469  0.2826  0.0127
 4479TIP3    H234853   1.287   3.585   2.561  1.1192 -0.4124  1.4058
 4480TIP3   OH234854   1.715   2.043  12.154 -0.1481  0.0889  0.2566
 4480TIP3    H134855   1.778   1.979  12.188 -0.0571  0.6416  1.1484
 4480TIP3    H234856   1.723   2.036  12.059  1.6588  0.5447  0.3670
 4481TIP3   OH234857   2.602   6.117   1.020  0.2545 -0.2150 -0.1309
 4481TIP3    H134858   2.592   6.025   1.043 -1.5603 -0.4643 -1.7826
 4481TIP3    H234859   2.643   6.116   0.933 -0.0559  0.5099 -0.2950
 4482TIP3   OH234860   1.518   0.837  12.612 -0.0905 -0.1381  0.5315
 4482TIP3    H134861   1.530   0.879  12.527  1.2389 -0.2392  0.6660
 4482TIP3    H234862   1.426   0.810  12.612 -0.1892  0.1592 -0.7327
 4483TIP3   OH234863   5.315   0.438  14.887  0.0315 -0.1138 -0.1403
 4483TIP3    H134864   5.370   0.443  14.965 -0.5329 -0.7766  0.3089
 4483TIP3    H234865   5.292   0.529  14.868  0.0255  0.0400  0.5779
 4484TIP3   OH234866   0.001   6.732   2.406 -0.1979 -0.3381 -0.3694
 4484TIP3    H134867   0.049   6.707   2.486 -1.4583 -1.4525  0.0488
 4484TIP3    H234868   0.043   6.681   2.337 -1.9921 -2.8145  0.2975
 4485TIP3   OH234869   6.468   5.871   1.717  0.0484  0.2330 -0.2224
 4485TIP3    H134870   6.537   5.859   1.653  0.4592  0.9174  0.0931
 4485TIP3    H234871   6.427   5.785   1.724  0.8075 -0.1502 -0.4699
 4486TIP3   OH234872   0.150   3.223  14.835 -0.2357 -0.1474 -0.3091
 4486TIP3    H134873   0.065   3.230  14.791 -0.0248  0.1475 -0.6774
 4486TIP3    H234874   0.143   3.278  14.912 -1.0677 -1.7160  0.7700
 4487TIP3   OH234875   1.767   5.770  13.392  0.1860  0.0405 -0.5458
 4487TIP3    H134876   1.759   5.788  13.486  1.2489  2.7027 -0.9251
 4487TIP3    H234877   1.680   5.790  13.357 -0.0756 -0.4918 -0.2105
 4488TIP3   OH234878   1.669   2.240  16.506  0.0688  0.0109  0.2644
 4488TIP3    H134879   1.708   2.308  16.452 -2.4823  1.5382  0.2555
 4488TIP3    H234880   1.702   2.257  16.594  1.8107 -0.6237 -0.2329
 4489TIP3   OH234881   4.209   0.735   1.393 -0.4552 -0.6573  0.1629
 4489TIP3    H134882   4.151   0.761   1.322 -1.0348 -0.2118  0.7936
 4489TIP3    H234883   4.151   0.710   1.464  0.1142  0.3618  1.0027
 4490TIP3   OH234884   2.331   2.966  11.462  0.2208 -0.3558 -0.8426
 4490TIP3    H134885   2.241   2.990  11.481  1.0283  0.6232  1.9842
 4490TIP3    H234886   2.327   2.873  11.441 -1.4139 -0.3543 -0.6061
 4491TIP3   OH234887   0.739   1.761  15.048  0.2982  0.4855 -0.2300
 4491TIP3    H134888   0.745   1.853  15.073 -0.2246  0.4764 -0.0505
 4491TIP3    H234889   0.779   1.713  15.121  0.9307  0.5902 -0.5054
 4492TIP3   OH234890   5.534   0.306   4.168 -0.6196 -0.4562  0.0636
 4492TIP3    H134891   5.490   0.255   4.100  0.1880  0.6248 -1.2727
 4492TIP3    H234892   5.476   0.381   4.182 -1.0949 -0.9843  1.0345
 4493TIP3   OH234893   5.346   6.728   4.957  0.1079  0.3128 -0.4265
 4493TIP3    H134894   5.253   6.721   4.938 -0.1319 -2.5819  1.4737
 4493TIP3    H234895   5.351   6.746   5.051  1.4585  0.4583 -0.5079
 4494TIP3   OH234896   6.205   6.096  11.546 -0.1509 -0.4396  0.2155
 4494TIP3    H134897   6.241   6.146  11.472  0.7538 -0.8265  0.3907
 4494TIP3    H234898   6.259   6.122  11.621 -1.9297  0.9846  1.0402
 4495TIP3   OH234899   6.437   3.442   3.819 -0.9403  0.2003 -0.3975
 4495TIP3    H134900   6.516   3.389   3.814 -1.9413 -1.2804 -0.5979
 4495TIP3    H234901   6.426   3.460   3.912  1.1802  2.8226 -0.5719
 4496TIP3   OH234902   6.720   2.777  16.792  0.0759  0.5089 -0.5108
 4496TIP3    H134903   6.813   2.759  16.777 -0.0818 -0.8526  0.1328
 4496TIP3    H234904   6.709   2.771  16.886 -0.6294  0.9056 -0.5654
 4497TIP3   OH234905   5.075   1.174  15.200 -0.7823  1.0091 -0.4148
 4497TIP3    H134906   5.135   1.175  15.275 -0.1594  2.0824 -0.9274
 4497TIP3    H234907   4.998   1.127  15.232 -0.1952  0.7619  0.6524
 4498TIP3   OH234908   2.718   4.134   0.416 -0.6188  0.4539  0.6300
 4498TIP3    H134909   2.722   4.038   0.422 -2.6670  0.0518 -2.6907
 4498TIP3    H234910   2.794   4.157   0.362 -0.5225  0.6216  0.8387
 4499TIP3   OH234911   2.931   6.574   3.905  0.3644 -0.1607  0.7427
 4499TIP3    H134912   2.846   6.614   3.925  0.9907  1.3510  0.4997
 4499TIP3    H234913   2.942   6.507   3.972 -1.1642 -0.5962  0.5767
 4500TIP3   OH234914   1.783   6.679  12.817  0.2348  0.5777  0.0513
 4500TIP3    H134915   1.820   6.645  12.899  1.3908  1.5143 -0.0573
 4500TIP3    H234916   1.815   6.770  12.813 -1.3768  1.1271 -0.5036
 4501TIP3   OH234917   3.879   5.988   3.297  0.1503  0.0782  0.5127
 4501TIP3    H134918   3.907   6.069   3.340 -0.2717  1.1766 -1.2235
 4501TIP3    H234919   3.804   5.958   3.347  0.6385  0.4576  1.4877
 4502TIP3   OH234920   2.420   6.355   5.137  0.0028  0.0065 -0.0952
 4502TIP3    H134921   2.498   6.387   5.182  0.3145 -2.4218  1.1467
 4502TIP3    H234922   2.347   6.401   5.179  0.6681  1.8344 -0.8583
 4503TIP3   OH234923   4.466   6.712  14.774 -0.4817  0.2392  0.3644
 4503TIP3    H134924   4.527   6.674  14.711 -0.3491  1.0158  0.0179
 4503TIP3    H234925   4.390   6.736  14.721  0.1980  2.2029  0.2407
 4504TIP3   OH234926   2.164   1.607   0.990 -0.8584  0.0130  0.3473
 4504TIP3    H134927   2.113   1.682   0.959 -1.6315 -0.8627 -0.5337
 4504TIP3    H234928   2.160   1.613   1.085  1.4062  2.6555  0.3312
 4505TIP3   OH234929   1.273   2.755   1.416 -0.0312 -0.2347  0.1569
 4505TIP3    H134930   1.212   2.762   1.343  1.0240  2.2033 -0.5593
 4505TIP3    H234931   1.319   2.673   1.402 -0.0399  0.0778 -1.7571
 4506TIP3   OH234932   1.469   1.763  11.662  0.3605 -0.4999 -0.2666
 4506TIP3    H134933   1.391   1.719  11.696  1.1701 -1.0626  0.9083
 4506TIP3    H234934   1.513   1.697  11.609  0.4950 -0.4618 -0.2044
 4507TIP3   OH234935   1.285   5.986   5.798  0.2293  0.5695 -0.0150
 4507TIP3    H134936   1.214   5.970   5.859 -0.4498 -0.1353 -0.9818
 4507TIP3    H234937   1.364   5.955   5.844 -0.1164  1.0568  0.9232
 4508TIP3   OH234938   6.425   1.889   1.426 -0.2287  0.1651 -0.3892
 4508TIP3    H134939   6.368   1.961   1.398 -0.4395  0.1273 -0.0570
 4508TIP3    H234940   6.399   1.871   1.516 -1.0061 -1.1376 -0.8670
 4509TIP3   OH234941   0.507   6.032  14.658 -0.0553 -0.0732  0.2877
 4509TIP3    H134942   0.428   6.055  14.609 -0.3245  0.9055  1.1610
 4509TIP3    H234943   0.474   5.984  14.734  0.2475 -0.2837  0.2850
 4510TIP3   OH234944   1.875   4.536  11.886 -0.0555 -0.3325 -0.3846
 4510TIP3    H134945   1.968   4.547  11.907 -0.2560  0.1354  0.2817
 4510TIP3    H234946   1.840   4.625  11.883 -0.8107 -0.5641  0.9651
 4511TIP3   OH234947   1.834   2.855  15.448 -1.1287 -0.5446 -0.0762
 4511TIP3    H134948   1.758   2.802  15.470 -0.4125 -1.6716 -0.2472
 4511TIP3    H234949   1.882   2.802  15.384  0.3704 -0.3574  0.8585
 4512TIP3   OH234950   4.829   5.453  13.454  0.0941  0.3570  0.2970
 4512TIP3    H134951   4.777   5.474  13.531  0.0366 -1.7460  0.8596
 4512TIP3    H234952   4.769   5.407  13.395  0.8735 -0.6941  0.2910
 4513TIP3   OH234953   2.692   0.989  13.178  0.1148 -0.1643  0.2740
 4513TIP3    H134954   2.705   1.046  13.102  0.4331 -0.5286  0.0548
 4513TIP3    H234955   2.659   1.048  13.247  0.9577  0.3907  0.2104
 4514TIP3   OH234956   2.034   6.601   4.994  0.5661  0.0310 -0.5484
 4514TIP3    H134957   1.988   6.524   5.029  1.7287 -0.2047  0.5114
 4514TIP3    H234958   2.090   6.630   5.066  0.1849  1.8585 -0.9517
 4515TIP3   OH234959   3.136   2.780   0.645 -0.1468  0.6233  0.0429
 4515TIP3    H134960   3.073   2.787   0.573 -0.1991  0.4253  0.0701
 4515TIP3    H234961   3.218   2.814   0.608 -0.1709  0.5096 -0.1142
 4516TIP3   OH234962   4.325   1.444   3.426  0.3489 -0.6111 -0.4642
 4516TIP3    H134963   4.336   1.349   3.431 -2.2918 -1.1730 -3.5002
 4516TIP3    H234964   4.355   1.467   3.338 -0.7388  1.0869 -0.4149
 4517TIP3   OH234965   1.805   2.678   3.259  0.0052  0.7719  0.2451
 4517TIP3    H134966   1.751   2.746   3.219 -0.2720  0.3800 -0.0586
 4517TIP3    H234967   1.749   2.638   3.325 -0.5471 -0.5304 -0.9913
 4518TIP3   OH234968   4.765   6.774  12.154  0.1028 -0.4634  0.2745
 4518TIP3    H134969   4.712   6.707  12.111 -0.0811  0.2930 -0.7091
 4518TIP3    H234970   4.702   6.826  12.204  0.1514 -0.5957  0.4748
 4519TIP3   OH234971   0.132   2.403   0.145 -0.3090  0.2771  0.6481
 4519TIP3    H134972   0.111   2.315   0.178  0.4330 -0.0266  0.3457
 4519TIP3    H234973   0.113   2.461   0.218 -0.4355 -0.1870  0.9903
 4520TIP3   OH234974   1.387   4.608   2.374 -0.1140  0.3364  0.5276
 4520TIP3    H134975   1.448   4.579   2.442  0.2892  1.5225  0.6887
 4520TIP3    H234976   1.443   4.650   2.309 -0.2814 -2.3618 -1.4424
 4521TIP3   OH234977   5.129   4.116  15.266  0.1470  0.2325  0.2957
 4521TIP3    H134978   5.101   4.075  15.348  0.0381  1.4875  0.8968
 4521TIP3    H234979   5.053   4.110  15.208 -0.0701  0.1497  0.5889
 4522TIP3   OH234980   3.625   3.540  16.548  0.2525 -0.1913 -0.4013
 4522TIP3    H134981   3.693   3.521  16.612  0.8571  0.6742 -0.7696
 4522TIP3    H234982   3.570   3.462  16.546  1.8910 -1.3393 -0.9392
 4523TIP3   OH234983   5.611   4.576  14.989 -0.1506 -0.0712 -0.2165
 4523TIP3    H134984   5.545   4.565  14.921 -1.2575  0.2192  0.7848
 4523TIP3    H234985   5.693   4.553  14.947 -1.2869 -3.6606 -0.5968
 4524TIP3   OH234986   6.685   3.746   6.665 -0.0154  0.3163  0.1206
 4524TIP3    H134987   6.600   3.778   6.635  0.0854  0.4119 -0.0688
 4524TIP3    H234988   6.715   3.688   6.594  1.3126  2.4190 -1.1137
 4525TIP3   OH234989   4.309   4.489   2.883  0.0297  0.4936 -0.2389
 4525TIP3    H134990   4.361   4.540   2.944 -0.0162 -0.0512  0.2600
 4525TIP3    H234991   4.277   4.553   2.819 -1.9125  1.4762  1.6661
 4526TIP3   OH234992   5.817   4.466  12.301 -0.7439  0.3292  0.3602
 4526TIP3    H134993   5.763   4.538  12.334 -0.6074 -0.3208  2.0031
 4526TIP3    H234994   5.873   4.441  12.375  2.3321  1.4462 -1.4770
 4527TIP3   OH234995   1.896   3.491   3.200  0.6345 -0.2814 -0.9029
 4527TIP3    H134996   1.970   3.439   3.169  0.8879 -0.0812 -0.6394
 4527TIP3    H234997   1.920   3.516   3.289 -0.3855 -1.4248 -0.2863
 4528TIP3   OH234998   0.323   2.418  16.885  0.0595 -0.3774  0.3067
 4528TIP3    H134999   0.278   2.490  16.930  1.4641  1.0339 -0.4588
 4528TIP3    H235000   0.396   2.396  16.942 -0.6037 -1.5254  0.7396
 4529TIP3   OH235001   5.377   1.651  13.029  0.7943  0.1337 -0.3852
 4529TIP3    H135002   5.297   1.676  13.074  0.8771  0.7952 -0.5930
 4529TIP3    H235003   5.358   1.565  12.991  1.2551 -1.1988  2.2536
 4530TIP3   OH235004   0.464   6.147  11.032  0.1833  0.1407  0.3265
 4530TIP3    H135005   0.523   6.105  10.970  1.3062  2.1211 -0.0087
 4530TIP3    H235006   0.499   6.236  11.041 -2.1439  1.0289  0.9213
 4531TIP3   OH235007   3.786   2.805   4.537 -0.3386  0.3825 -0.1561
 4531TIP3    H135008   3.716   2.855   4.496 -0.8119  0.2810  0.5280
 4531TIP3    H235009   3.742   2.747   4.599  0.3010 -0.0524 -0.0966
 4532TIP3   OH235010   5.770   3.413  14.600 -0.3139  0.1064 -0.2212
 4532TIP3    H135011   5.776   3.507  14.585 -0.9126 -0.0498 -1.5156
 4532TIP3    H235012   5.711   3.403  14.675  2.4178  0.9009  2.1309
 4533TIP3   OH235013   3.432   2.542  11.605  0.3099 -0.2126 -0.6130
 4533TIP3    H135014   3.514   2.573  11.644 -1.1019  2.7052  0.1951
 4533TIP3    H235015   3.457   2.516  11.516  2.0374  1.1443 -0.5655
 4534TIP3   OH235016   1.765   2.996   0.032 -0.1875 -0.1865 -0.0632
 4534TIP3    H135017   1.805   2.974  -0.053 -1.8370 -0.1438 -0.8714
 4534TIP3    H235018   1.715   3.076   0.015  2.2634  1.8262  1.8170
 4535TIP3   OH235019   2.062   5.452  13.302  0.5041 -0.2040  0.2456
 4535TIP3    H135020   2.077   5.544  13.281  1.5978 -0.5607 -0.6242
 4535TIP3    H235021   2.101   5.404  13.228 -0.8498 -1.3359  0.2434
 4536TIP3   OH235022   2.869   6.273   0.284 -0.3524  0.2366  0.2821
 4536TIP3    H135023   2.942   6.220   0.250  1.1664  2.5554 -0.1954
 4536TIP3    H235024   2.792   6.236   0.241  1.0293  0.3474 -2.4762
 4537TIP3   OH235025   4.769   0.834   5.578  0.1113  0.0320 -0.0703
 4537TIP3    H135026   4.709   0.761   5.596 -0.3247  0.6770  1.0806
 4537TIP3    H235027   4.723   0.912   5.607  1.2245  0.6167  0.1596
 4538TIP3   OH235028   3.086   0.487  12.998  0.0489 -0.1332  0.6169
 4538TIP3    H135029   3.149   0.416  12.986  2.7345  2.2245  0.4163
 4538TIP3    H235030   3.072   0.491  13.093 -0.5361 -1.2712  0.5843
 4539TIP3   OH235031   6.532   5.558  12.705 -0.0691  0.0755  0.1400
 4539TIP3    H135032   6.603   5.594  12.652  1.3687 -1.5345  0.9186
 4539TIP3    H235033   6.479   5.508  12.643  0.0598  0.4160 -0.2525
 4540TIP3   OH235034   2.856   1.741  14.889 -0.0128 -0.0512  0.1409
 4540TIP3    H135035   2.796   1.762  14.961  0.1806 -0.9729  0.5815
 4540TIP3    H235036   2.825   1.794  14.816  0.3361  1.5835  1.1521
 4541TIP3   OH235037   4.569   5.302   0.425  0.2269 -0.1651  0.6144
 4541TIP3    H135038   4.522   5.222   0.445  3.0442 -1.7306  1.2465
 4541TIP3    H235039   4.560   5.356   0.504 -0.9350 -0.2109  0.5164
 4542TIP3   OH235040   2.702   2.703  15.211  0.3616  0.7807 -0.0509
 4542TIP3    H135041   2.790   2.710  15.247  1.1087 -1.9399 -1.1873
 4542TIP3    H235042   2.655   2.648  15.273  0.9012 -1.7400 -1.7653
 4543TIP3   OH235043   1.878   5.622   3.806 -0.3680  0.4428  0.2301
 4543TIP3    H135044   1.825   5.622   3.885 -0.5512 -1.4048  0.1094
 4543TIP3    H235045   1.906   5.531   3.795  0.5697  0.8873 -1.2165
 4544TIP3   OH235046   5.720   0.140   1.185  0.0734  0.0124  0.0361
 4544TIP3    H135047   5.777   0.128   1.261  0.4540  0.3709 -0.1881
 4544TIP3    H235048   5.692   0.232   1.190  1.2547  0.4530 -1.0366
 4545TIP3   OH235049   2.361   0.225   3.383  0.7154 -0.5822 -0.2037
 4545TIP3    H135050   2.294   0.294   3.378  0.3670 -0.9328 -0.3955
 4545TIP3    H235051   2.312   0.144   3.370  1.3578 -0.7561 -1.5947
 4546TIP3   OH235052   2.270   1.641   1.493 -0.0341  0.5948  0.3495
 4546TIP3    H135053   2.273   1.681   1.406 -1.1885  0.1810  0.1150
 4546TIP3    H235054   2.212   1.566   1.484  1.2139 -0.4939  1.0716
 4547TIP3   OH235055   1.095   3.371   5.192 -0.6788  0.3672 -0.2341
 4547TIP3    H135056   1.113   3.448   5.138 -0.3045  0.9217  0.6805
 4547TIP3    H235057   1.019   3.330   5.150 -0.7657  1.1313 -0.8312
 4548TIP3   OH235058   5.115   4.470  14.314  0.1265  0.7186 -0.2060
 4548TIP3    H135059   5.068   4.395  14.278  0.4885  0.1534  0.4967
 4548TIP3    H235060   5.055   4.509  14.378  0.4369  0.2616  0.3663
 4549TIP3   OH235061   1.018   2.305   3.985 -0.5523  0.0669  0.2691
 4549TIP3    H135062   0.933   2.346   3.973 -0.3263  0.7216  0.8346
 4549TIP3    H235063   1.080   2.379   3.986 -0.2131 -0.2114  1.9962
 4550TIP3   OH235064   3.909   4.627  14.699  0.3227 -0.2051  0.4727
 4550TIP3    H135065   3.851   4.552  14.692 -1.4106  1.2525 -1.5382
 4550TIP3    H235066   3.866   4.685  14.762  1.0480 -0.3559  1.1189
 4551TIP3   OH235067   0.528   1.443  16.108  0.1136  0.0337 -0.7193
 4551TIP3    H135068   0.623   1.453  16.102  0.3479 -1.6512  0.0530
 4551TIP3    H235069   0.494   1.527  16.077  1.8478  0.6823 -0.9492
 4552TIP3   OH235070   3.213   2.026   0.310  0.3425  0.5260 -0.0722
 4552TIP3    H135071   3.197   1.943   0.354 -0.3083  1.3722  1.3128
 4552TIP3    H235072   3.141   2.033   0.246  0.4932 -0.0431 -0.3074
 4553TIP3   OH235073   0.191   5.098   3.696  0.0587  0.7449  0.4744
 4553TIP3    H135074   0.247   5.154   3.642 -1.3955 -0.3880 -2.2663
 4553TIP3    H235075   0.204   5.010   3.662 -3.4792  0.4672 -0.3657
 4554TIP3   OH235076   6.320   1.667   3.965  0.0681  0.3286  0.4311
 4554TIP3    H135077   6.244   1.626   3.924 -0.1711  0.7593  0.4371
 4554TIP3    H235078   6.393   1.648   3.906 -0.3194  1.1557 -0.3217
 4555TIP3   OH235079   3.437   0.762  13.318  0.5681  0.0453  0.2993
 4555TIP3    H135080   3.426   0.852  13.289  1.2486  0.4585  1.2768
 4555TIP3    H235081   3.370   0.713  13.271 -0.3325  1.1931  0.3593
 4556TIP3   OH235082   3.745   3.353  15.094  0.1600  0.2066  0.0763
 4556TIP3    H135083   3.718   3.437  15.056  0.4767  0.3234  0.1101
 4556TIP3    H235084   3.840   3.358  15.098  0.3324 -1.0548 -1.9793
 4557TIP3   OH235085   5.497   6.094   1.695  0.4788  0.6621 -0.6398
 4557TIP3    H135086   5.519   6.181   1.728 -1.1879  1.3972 -1.4185
 4557TIP3    H235087   5.499   6.038   1.772  3.7959  0.9190 -0.4740
 4558TIP3   OH235088   2.543   4.687   5.415  0.2226 -0.5297 -0.1486
 4558TIP3    H135089   2.612   4.723   5.471  0.2018 -1.6413  0.6027
 4558TIP3    H235090   2.512   4.762   5.364  1.3348  0.1674  0.1874
 4559TIP3   OH235091   2.838   3.185  14.618 -0.5483 -0.2547  0.0131
 4559TIP3    H135092   2.853   3.177  14.712  1.2715 -1.5414 -0.3571
 4559TIP3    H235093   2.924   3.207  14.582 -0.8627 -1.4249 -1.5109
 4560TIP3   OH235094   0.351   4.381   5.738 -0.3251  0.1234 -0.2740
 4560TIP3    H135095   0.279   4.432   5.777 -2.9665 -1.5893 -2.6471
 4560TIP3    H235096   0.336   4.388   5.643  3.1877  0.3959 -0.8621
 4561TIP3   OH235097   5.772   2.783   0.539 -0.1300  0.1037  0.6234
 4561TIP3    H135098   5.718   2.818   0.468 -0.5537  0.8180  1.2813
 4561TIP3    H235099   5.857   2.766   0.499 -0.5763 -0.1579 -0.2114
 4562TIP3   OH235100   2.141   2.089  13.519  0.2612 -0.1239  0.2281
 4562TIP3    H135101   2.213   2.030  13.540  1.6443  1.0256 -1.1375
 4562TIP3    H235102   2.128   2.140  13.599  0.2210 -1.0825  0.8389
 4563TIP3   OH235103   6.607   1.815  13.583  0.2799  0.0704  0.2964
 4563TIP3    H135104   6.639   1.796  13.671 -0.3400 -1.0881  0.2875
 4563TIP3    H235105   6.639   1.743  13.530 -0.2303  0.2156 -0.2167
 4564TIP3   OH235106   4.338   2.702   0.241 -0.3025 -0.5413 -0.1936
 4564TIP3    H135107   4.392   2.636   0.285 -0.0905 -0.1334  0.1609
 4564TIP3    H235108   4.370   2.702   0.151 -0.3598 -0.9833 -0.2178
 4565TIP3   OH235109   0.405   6.428   3.743  0.1616  0.1014 -0.2676
 4565TIP3    H135110   0.423   6.383   3.826  0.7762 -1.2400 -1.1199
 4565TIP3    H235111   0.491   6.450   3.708 -0.1180  1.3970 -0.1680
 4566TIP3   OH235112   3.948   4.613   6.774 -0.1802  0.4360 -0.6533
 4566TIP3    H135113   4.016   4.567   6.725  1.3065  1.4018  0.4741
 4566TIP3    H235114   3.947   4.701   6.738  0.1769  0.8449  0.3248
 4567TIP3   OH235115   0.859   1.347   0.829  0.0200  0.5602  0.4456
 4567TIP3    H135116   0.937   1.306   0.866 -0.6128 -2.7465 -1.6744
 4567TIP3    H235117   0.888   1.434   0.802  1.8340  1.0210  3.5677
 4568TIP3   OH235118   0.994   3.017  11.141 -0.2724 -0.5994 -0.3346
 4568TIP3    H135119   1.014   3.073  11.066  0.5801  0.0759  0.3955
 4568TIP3    H235120   0.985   3.077  11.214 -1.0638 -1.2660  0.1241
 4569TIP3   OH235121   3.626   4.587   5.817  0.0830  0.0814  0.4491
 4569TIP3    H135122   3.601   4.505   5.859  1.6522 -2.1563 -2.7287
 4569TIP3    H235123   3.720   4.596   5.835  0.6548 -0.6282 -1.9990
 4570TIP3   OH235124   4.234   1.873   3.438  0.7046  0.1998 -0.4532
 4570TIP3    H135125   4.324   1.859   3.410  0.7223 -1.0015  0.1507
 4570TIP3    H235126   4.241   1.897   3.530  0.5214  1.9785 -0.8995
 4571TIP3   OH235127   4.965   1.553   4.576 -0.7002 -0.2369 -0.4757
 4571TIP3    H135128   4.993   1.641   4.552 -2.9662  0.8371  0.6797
 4571TIP3    H235129   4.877   1.546   4.540 -1.1603 -1.4274  0.8671
 4572TIP3   OH235130   2.280   4.283   2.587 -0.4505 -0.2579 -0.3101
 4572TIP3    H135131   2.224   4.360   2.591  0.0479  0.0663  0.7242
 4572TIP3    H235132   2.305   4.276   2.495 -0.6503  0.7129 -0.4445
 4573TIP3   OH235133   0.998   5.966   3.816 -0.4529 -0.0948  0.1576
 4573TIP3    H135134   1.003   5.947   3.722 -0.2853 -1.6099  0.4564
 4573TIP3    H235135   0.907   5.947   3.840 -1.1370  2.6011 -0.1536
 4574TIP3   OH235136   6.236   4.646   3.996  0.0603 -0.0338  0.3282
 4574TIP3    H135137   6.156   4.695   3.977 -0.1546 -0.9248 -1.1642
 4574TIP3    H235138   6.307   4.711   3.987 -0.1829 -0.0529 -2.0369
 4575TIP3   OH235139   1.489   0.364   0.471  0.9926  0.1176  0.2561
 4575TIP3    H135140   1.456   0.275   0.486  0.2578  0.2835 -0.3343
 4575TIP3    H235141   1.416   0.421   0.493  1.7229  0.6271  1.4054
 4576TIP3   OH235142   6.528   2.518   0.016  0.4009  0.7383  0.6805
 4576TIP3    H135143   6.508   2.454  -0.052 -1.7399  2.5741 -0.4945
 4576TIP3    H235144   6.445   2.532   0.062  0.7644  2.7749  0.7904
 4577TIP3   OH235145   3.948   0.749  14.324 -0.2184  0.4927  0.3669
 4577TIP3    H135146   3.949   0.709  14.411  0.0947  2.2010  1.1831
 4577TIP3    H235147   3.859   0.782  14.314 -0.7985 -1.3639 -0.7721
 4578TIP3   OH235148   5.428   3.904  12.426 -0.1153  0.2831 -0.1039
 4578TIP3    H135149   5.378   3.908  12.345 -0.7488  1.7699  0.3368
 4578TIP3    H235150   5.487   3.980  12.422  0.1097  0.1603  0.6633
 4579TIP3   OH235151   1.761   4.016   3.005  0.2513 -0.5289  0.2457
 4579TIP3    H135152   1.788   3.925   3.018 -1.9904 -1.3726 -0.7487
 4579TIP3    H235153   1.764   4.030   2.911  2.0397  0.9219  0.4947
 4580TIP3   OH235154   5.991   4.070   3.418  0.0319  0.1973  0.0743
 4580TIP3    H135155   5.923   4.019   3.460  0.1558 -0.6611 -0.7419
 4580TIP3    H235156   5.957   4.159   3.416 -1.8341 -0.5211 -1.9059
 4581TIP3   OH235157   0.885   2.299  15.646 -0.4479  0.2671 -0.2694
 4581TIP3    H135158   0.850   2.241  15.714 -0.2190  2.4612  1.7748
 4581TIP3    H235159   0.810   2.316  15.589 -0.1406 -3.3183 -1.9060
 4582TIP3   OH235160   1.734   0.164   4.837  0.0121  0.0262  0.2195
 4582TIP3    H135161   1.728   0.178   4.932  1.7528 -1.1039  0.5251
 4582TIP3    H235162   1.812   0.211   4.810  0.3216 -0.8208 -0.4055
 4583TIP3   OH235163   0.458   5.016  12.325  0.5574 -0.8421 -0.2552
 4583TIP3    H135164   0.532   4.979  12.277  0.3646 -1.2924 -0.2075
 4583TIP3    H235165   0.437   5.097  12.279  1.7595 -0.1663  0.3506
 4584TIP3   OH235166   0.368   4.099  10.854  0.3226 -0.4364  0.2569
 4584TIP3    H135167   0.414   4.131  10.933 -1.6829 -0.7075  1.5575
 4584TIP3    H235168   0.295   4.047  10.888 -1.3841  0.5771 -1.7651
 4585TIP3   OH235169   5.496   2.085   0.782 -0.3478 -0.0382  0.2719
 4585TIP3    H135170   5.434   2.069   0.853 -1.3814  0.1493 -0.5795
 4585TIP3    H235171   5.552   2.156   0.814  1.8152 -2.6388  2.5487
 4586TIP3   OH235172   1.536   5.918   3.733 -0.0082 -0.2659  0.1397
 4586TIP3    H135173   1.531   5.846   3.669 -2.9332 -0.3722  0.4422
 4586TIP3    H235174   1.460   5.973   3.714 -0.1602  0.4619  2.6500
 4587TIP3   OH235175   4.931   2.589  12.801  0.0861 -0.6800  0.1324
 4587TIP3    H135176   4.939   2.494  12.811  2.4785 -0.2744  2.9363
 4587TIP3    H235177   5.021   2.621  12.805 -0.6707  1.6835 -1.1057
 4588TIP3   OH235178   0.762   6.131   4.048  0.0641  0.1406 -0.0013
 4588TIP3    H135179   0.680   6.181   4.048 -0.0176  0.0055  0.6941
 4588TIP3    H235180   0.793   6.137   3.957 -0.9692 -0.2315 -0.3864
 4589TIP3   OH235181   4.128   3.065   0.350 -0.0560  0.2217 -0.3385
 4589TIP3    H135182   4.147   3.062   0.444  2.1833  1.2912 -0.7236
 4589TIP3    H235183   4.110   3.157   0.332  1.5761  0.3679 -1.3143
 4590TIP3   OH235184   1.840   0.480   2.097 -0.2392 -0.3583 -0.1125
 4590TIP3    H135185   1.871   0.501   2.009 -1.5096 -1.7561 -0.9213
 4590TIP3    H235186   1.920   0.471   2.149  0.6615 -1.9866 -1.7104
 4591TIP3   OH235187   3.267   1.302  14.024  0.4779  0.4220  0.2449
 4591TIP3    H135188   3.313   1.321  13.943  0.0914  0.9752  0.1551
 4591TIP3    H235189   3.293   1.212  14.046 -2.0968 -1.0430 -2.3409
 4592TIP3   OH235190   2.168   6.432  16.489  0.0079  0.4702  0.0996
 4592TIP3    H135191   2.113   6.426  16.567 -0.8618 -1.6233 -0.6332
 4592TIP3    H235192   2.115   6.481  16.426 -0.5131 -0.4119 -0.1590
 4593TIP3   OH235193   2.013   5.012   2.617  0.1418  0.1781  0.1058
 4593TIP3    H135194   2.019   5.061   2.535  2.5032  0.2384  0.2842
 4593TIP3    H235195   1.938   5.050   2.663  0.8059  2.3675 -0.5866
 4594TIP3   OH235196   3.810   1.472   5.183 -0.3942  0.2499  0.6201
 4594TIP3    H135197   3.831   1.426   5.102 -1.1399  1.3800 -0.2200
 4594TIP3    H235198   3.895   1.480   5.228  0.2112  0.6817 -0.5947
 4595TIP3   OH235199   1.407   3.718  15.777  0.2363  0.2516 -0.0763
 4595TIP3    H135200   1.361   3.801  15.765  0.1754  0.4701  1.6083
 4595TIP3    H235201   1.415   3.708  15.872 -3.2429 -3.5700 -0.0422
 4596TIP3   OH235202   3.804   5.299   2.267 -0.1974  0.3610  0.9728
 4596TIP3    H135203   3.798   5.224   2.326 -0.9096 -0.0485  0.3796
 4596TIP3    H235204   3.737   5.360   2.299 -2.1085 -0.7834 -0.7134
 4597TIP3   OH235205   3.966   3.903   3.261  0.2363  0.5056 -0.2961
 4597TIP3    H135206   3.975   3.969   3.192  0.3773 -0.2731 -1.0250
 4597TIP3    H235207   4.016   3.939   3.335  1.3600  0.6365 -1.1170
 4598TIP3   OH235208   5.287   1.902  13.596 -0.6616 -0.6574  0.0179
 4598TIP3    H135209   5.260   1.928  13.508 -0.6826  0.7712  0.4391
 4598TIP3    H235210   5.342   1.825  13.582 -0.9942 -0.6963 -1.2072
 4599TIP3   OH235211   4.472   5.923  15.036 -0.2033  0.1260 -0.5033
 4599TIP3    H135212   4.419   5.946  15.113  1.5461  0.0471  0.7436
 4599TIP3    H235213   4.417   5.862  14.987 -1.3916  0.2622  0.6239
 4600TIP3   OH235214   1.613   4.548  15.363 -0.2538  0.1457 -0.3725
 4600TIP3    H135215   1.662   4.469  15.385 -0.0899  0.8434  1.8733
 4600TIP3    H235216   1.523   4.519  15.355 -0.4248 -0.0588  1.9265
 4601TIP3   OH235217   2.335   2.295  11.881  0.4412  0.1554  0.5372
 4601TIP3    H135218   2.269   2.304  11.812 -0.4190  0.4114  1.3881
 4601TIP3    H235219   2.378   2.380  11.884  0.5847  0.0944  0.2089
 4602TIP3   OH235220   5.936   0.538   1.527 -0.1835  0.0707  0.4054
 4602TIP3    H135221   5.943   0.611   1.465  0.1856  0.7025  1.1749
 4602TIP3    H235222   6.024   0.500   1.530  0.0494  0.6571  1.2688
 4603TIP3   OH235223   1.886   6.728  12.108 -0.2778  0.0022 -0.0224
 4603TIP3    H135224   1.909   6.639  12.080  2.0449  0.9263 -1.2533
 4603TIP3    H235225   1.812   6.752  12.054 -1.0341 -1.2251  0.4331
 4604TIP3   OH235226   0.856   5.458  13.298  0.4853  0.4971  0.3565
 4604TIP3    H135227   0.871   5.366  13.318  0.8440 -0.0969 -2.5285
 4604TIP3    H235228   0.770   5.459  13.255  0.7532  1.4419 -0.1582
 4605TIP3   OH235229   6.466   5.552  11.119 -0.1390  0.1239  0.0823
 4605TIP3    H135230   6.547   5.544  11.169 -2.4689 -1.3390  3.8425
 4605TIP3    H235231   6.438   5.462  11.104 -1.1488  0.6214 -1.0111
 4606TIP3   OH235232   1.180   6.087  14.507 -0.4209 -0.3909  0.1428
 4606TIP3    H135233   1.262   6.061  14.465  0.1894  1.6912  0.0052
 4606TIP3    H235234   1.146   6.005  14.544  1.1049 -1.5004 -0.8173
 4607TIP3   OH235235   3.818   1.398   1.015 -0.5363 -0.0422 -0.6412
 4607TIP3    H135236   3.766   1.323   1.043  1.2250 -1.5144 -1.2932
 4607TIP3    H235237   3.773   1.430   0.937 -0.7318 -1.0165 -0.9300
 4608TIP3   OH235238   6.050   6.584  17.136  0.8395  0.1874 -0.3815
 4608TIP3    H135239   5.964   6.624  17.132  1.5594  1.7974  0.0271
 4608TIP3    H235240   6.106   6.641  17.085  1.5460 -1.2022 -1.1977
 4609TIP3   OH235241   6.070   5.170   3.921  0.5666  0.2707  0.1785
 4609TIP3    H135242   6.096   5.152   4.012  1.8926  0.1828 -0.2081
 4609TIP3    H235243   6.047   5.263   3.921 -1.3611 -0.1831  1.0364
 4610TIP3   OH235244   4.429   1.236  11.750  0.2244  0.4508 -0.4540
 4610TIP3    H135245   4.474   1.311  11.790 -0.6655 -0.1165  1.6725
 4610TIP3    H235246   4.481   1.161  11.778 -0.5703  0.0197 -0.1496
 4611TIP3   OH235247   3.846   1.984   0.621  0.0546 -0.0568 -0.1102
 4611TIP3    H135248   3.928   2.003   0.668 -0.6502 -0.9914  1.5195
 4611TIP3    H235249   3.841   1.889   0.620 -1.2098  0.0105  0.1058
 4612TIP3   OH235250   4.314   6.316  10.533 -0.4273  0.6093 -0.4678
 4612TIP3    H135251   4.319   6.410  10.553 -1.1082  0.8433 -1.3842
 4612TIP3    H235252   4.405   6.288  10.527 -0.2224  1.2679 -0.4637
 4613TIP3   OH235253   6.769   5.480   1.324  0.1901 -0.4119 -0.7499
 4613TIP3    H135254   6.680   5.500   1.353  0.3906  1.5351 -1.4258
 4613TIP3    H235255   6.758   5.439   1.239 -0.0514 -0.0592 -0.8888
 4614TIP3   OH235256   1.661   6.122   4.409 -0.5666 -0.6643  0.8275
 4614TIP3    H135257   1.613   6.202   4.428 -2.4872 -1.7486  0.6340
 4614TIP3    H235258   1.660   6.073   4.492 -1.7145 -1.6500  0.2574
 4615TIP3   OH235259   4.336   2.052   6.236  0.5607 -0.2628  0.2640
 4615TIP3    H135260   4.250   2.061   6.278  1.1193 -1.0689  1.6398
 4615TIP3    H235261   4.342   1.959   6.212  1.1568 -0.2803  0.4536
 4616TIP3   OH235262   5.514   5.667  13.623 -0.0967 -0.5090 -0.0093
 4616TIP3    H135263   5.601   5.702  13.606  0.2645 -0.8186  1.1038
 4616TIP3    H235264   5.482   5.637  13.538  0.0131  1.5368 -0.7855
 4617TIP3   OH235265   0.328   3.957   5.804  0.6795  0.0038 -0.3514
 4617TIP3    H135266   0.241   3.976   5.839  0.4847 -0.6273 -0.4879
 4617TIP3    H235267   0.311   3.908   5.724  1.1370  0.8904 -0.9949
 4618TIP3   OH235268   5.989   5.727  16.862  0.0095  0.5759 -0.5181
 4618TIP3    H135269   5.898   5.755  16.851  0.3735  2.7241  1.2985
 4618TIP3    H235270   5.984   5.653  16.923 -0.4108  1.9957  1.2194
 4619TIP3   OH235271   4.132   3.432   6.355 -0.7234  0.6399 -0.1940
 4619TIP3    H135272   4.061   3.491   6.377 -1.0561 -0.0007  0.4684
 4619TIP3    H235273   4.088   3.354   6.320 -0.2273  1.6564 -3.2721
 4620TIP3   OH235274   3.373   5.764  14.625  0.0989  0.5258  0.4849
 4620TIP3    H135275   3.281   5.764  14.652  0.2311 -0.9567  0.9702
 4620TIP3    H235276   3.371   5.799  14.536 -0.9724  0.2825  0.4042
 4621TIP3   OH235277   2.694   5.684   2.512 -0.4635  0.1287  0.8201
 4621TIP3    H135278   2.775   5.634   2.511  0.3993  1.5099 -0.6970
 4621TIP3    H235279   2.659   5.671   2.600  1.0680 -0.9839  1.2858
 4622TIP3   OH235280   1.744   3.237   1.864  0.3760 -0.5168  0.7043
 4622TIP3    H135281   1.790   3.157   1.889  1.6333  0.0266  0.1416
 4622TIP3    H235282   1.750   3.240   1.769 -1.6760 -0.9441  0.5510
 4623TIP3   OH235283   3.889   5.012   3.334 -0.0756 -0.0089  0.3266
 4623TIP3    H135284   3.932   5.010   3.248  0.2363 -1.9402  0.5148
 4623TIP3    H235285   3.960   5.020   3.397 -0.0774 -1.5431  0.5473
 4624TIP3   OH235286   6.219   0.475  10.937  0.2113 -0.3291 -0.4095
 4624TIP3    H135287   6.248   0.526  10.861  1.3216 -1.5748 -0.8477
 4624TIP3    H235288   6.241   0.530  11.012  2.5160 -0.6442 -0.8073
 4625TIP3   OH235289   4.717   3.748  15.385 -0.5262 -0.3289 -0.0733
 4625TIP3    H135290   4.688   3.657  15.399 -0.0342 -0.3637  0.7266
 4625TIP3    H235291   4.809   3.740  15.360 -0.3121 -0.0121  0.6114
 4626TIP3   OH235292   1.733   3.232  12.674 -0.1495  0.2532  0.0054
 4626TIP3    H135293   1.733   3.307  12.615  1.0017  1.2449  1.2345
 4626TIP3    H235294   1.796   3.255  12.742 -2.0860 -0.5082  2.1058
 4627TIP3   OH235295   4.262   2.734   2.586 -0.8463 -0.5190  0.3347
 4627TIP3    H135296   4.243   2.800   2.653 -2.9046  0.3139 -1.0219
 4627TIP3    H235297   4.212   2.657   2.612  0.4108 -1.0738  1.1376
 4628TIP3   OH235298   2.512   4.753   2.106  0.2314  0.0487  0.2855
 4628TIP3    H135299   2.433   4.765   2.053 -0.0764  0.2420  0.7878
 4628TIP3    H235300   2.577   4.810   2.066 -0.3830  1.2069  0.9153
 4629TIP3   OH235301   0.564   3.404  14.265  0.7574  0.1229 -0.0217
 4629TIP3    H135302   0.638   3.441  14.215  0.8162  0.1781  0.1075
 4629TIP3    H235303   0.542   3.324  14.218 -0.5082  1.2062 -1.3317
 4630TIP3   OH235304   2.334   5.148   2.652  0.6289 -1.0453 -0.2534
 4630TIP3    H135305   2.264   5.128   2.715 -0.9353  0.1521 -1.5495
 4630TIP3    H235306   2.380   5.066   2.640 -1.5072 -2.2572 -0.4595
 4631TIP3   OH235307   0.426   0.892   0.108 -0.1067  0.2515  0.1188
 4631TIP3    H135308   0.484   0.835   0.158 -1.4172  0.0186  1.4110
 4631TIP3    H235309   0.409   0.967   0.166 -0.2425  0.8409 -0.6636
 4632TIP3   OH235310   2.021   2.714  15.835 -0.4137  0.0095 -0.6983
 4632TIP3    H135311   1.964   2.741  15.906  0.0480 -0.5018 -0.1261
 4632TIP3    H235312   2.085   2.785  15.826  0.4182 -0.5847  0.3836
 4633TIP3   OH235313   3.566   5.612   1.872 -0.0363  0.1046  0.4919
 4633TIP3    H135314   3.624   5.643   1.804 -0.6903 -0.9692 -0.5780
 4633TIP3    H235315   3.619   5.548   1.921  0.8397  1.7937  1.8042
 4634TIP3   OH235316   0.859   2.188  13.358  0.2586  0.2109 -0.9019
 4634TIP3    H135317   0.852   2.100  13.321  1.8019  0.3556 -1.5742
 4634TIP3    H235318   0.953   2.205  13.362  0.0521  1.0111  1.2095
 4635TIP3   OH235319   1.293   4.110  14.677  0.1915 -0.8200  0.4416
 4635TIP3    H135320   1.219   4.066  14.634  2.5723 -1.4661 -3.2373
 4635TIP3    H235321   1.290   4.200  14.643  0.0389 -0.3164  1.7491
 4636TIP3   OH235322   5.946   2.071  14.060 -0.3905  0.0035 -0.2914
 4636TIP3    H135323   5.912   2.160  14.053 -0.2458 -0.0509 -1.8184
 4636TIP3    H235324   5.931   2.032  13.974 -0.4370 -1.4496  0.3566
 4637TIP3   OH235325   1.452   2.603  12.837  0.1014  0.5915 -0.1906
 4637TIP3    H135326   1.412   2.681  12.875  2.5959  1.3928  0.8784
 4637TIP3    H235327   1.508   2.568  12.907  0.1503 -1.3238 -1.1549
 4638TIP3   OH235328   1.422   0.714  10.948  0.4828 -0.2249 -0.1527
 4638TIP3    H135329   1.381   0.794  10.915  0.6156 -0.4784 -0.9530
 4638TIP3    H235330   1.353   0.670  10.997  1.0928  1.5954  2.4574
 4639TIP3   OH235331   5.176   5.556   1.944 -0.1973  0.2896 -0.1209
 4639TIP3    H135332   5.133   5.637   1.970 -0.7350 -0.7564  2.4221
 4639TIP3    H235333   5.114   5.487   1.968  1.0567 -0.9880 -0.4769
 4640TIP3   OH235334   1.041   2.124   4.241 -0.0249  0.1794 -0.1751
 4640TIP3    H135335   1.015   2.181   4.169 -0.0534 -0.4413 -0.6522
 4640TIP3    H235336   1.133   2.105   4.224 -0.2326 -0.5727 -0.4475
 4641TIP3   OH235337   6.607   6.221  15.143 -0.2285  0.4274  0.6014
 4641TIP3    H135338   6.677   6.265  15.191  0.6608 -0.8246  0.4744
 4641TIP3    H235339   6.589   6.142  15.193  0.7560 -0.9347 -1.1281
 4642TIP3   OH235340   4.688   4.288   2.178 -0.0407 -0.2343 -0.4741
 4642TIP3    H135341   4.780   4.277   2.201 -0.0637  0.7668  0.1434
 4642TIP3    H235342   4.643   4.220   2.229  0.2399  0.0248  0.1339
 4643TIP3   OH235343   4.375   1.275  12.406  0.5850 -0.3966 -0.2849
 4643TIP3    H135344   4.357   1.261  12.313  0.6155 -0.3530 -0.2968
 4643TIP3    H235345   4.469   1.296  12.409  0.6899 -0.8656 -0.1941
 4644TIP3   OH235346   6.769   5.190   1.195 -0.0257  0.0026 -0.4198
 4644TIP3    H135347   6.722   5.108   1.179 -1.6788  0.5506  1.3289
 4644TIP3    H235348   6.707   5.258   1.167 -0.4428  0.7557  2.2160
 4645TIP3   OH235349   0.469   4.450   0.894 -0.5718  0.1464  0.3267
 4645TIP3    H135350   0.484   4.518   0.829 -0.0008 -0.2948 -0.0010
 4645TIP3    H235351   0.388   4.407   0.866  0.1678 -0.6447 -0.6050
 4646TIP3   OH235352   2.361   3.671  14.690 -0.6630  0.7782 -0.3568
 4646TIP3    H135353   2.410   3.604  14.738  0.8615  3.0000  1.3012
 4646TIP3    H235354   2.277   3.630  14.670  0.4026 -1.7639  0.2201
 4647TIP3   OH235355   2.533   5.090  17.195 -0.1788 -0.2084 -0.2080
 4647TIP3    H135356   2.452   5.054  17.231 -0.1998 -0.0881 -0.1346
 4647TIP3    H235357   2.568   5.020  17.139  0.1425 -0.6172  0.4905
 4648TIP3   OH235358   6.768   6.359   4.258  0.0500  0.6494  0.0674
 4648TIP3    H135359   6.745   6.432   4.315  0.0113 -0.6325  1.7233
 4648TIP3    H235360   6.794   6.289   4.318 -0.1330 -0.7768 -1.4832
 4649TIP3   OH235361   6.112   1.507  10.732  0.3754  0.1182  0.2832
 4649TIP3    H135362   6.058   1.431  10.712 -0.7240  0.3933  2.0792
 4649TIP3    H235363   6.160   1.525  10.651 -0.1829 -1.7958 -0.4905
 4650TIP3   OH235364   2.419   6.590  13.537 -0.1154 -0.2618  0.1960
 4650TIP3    H135365   2.387   6.673  13.500 -1.1581  0.0709  1.7758
 4650TIP3    H235366   2.413   6.528  13.465 -1.1134  0.6100 -0.4989
 4651TIP3   OH235367   6.461   6.264   4.635  0.4678  0.0405  0.4882
 4651TIP3    H135368   6.408   6.197   4.678  1.4973 -0.8125  0.4493
 4651TIP3    H235369   6.409   6.344   4.641 -1.0721 -0.9007 -0.0557
 4652TIP3   OH235370   2.132   6.403  17.000 -0.3491 -0.9024 -0.4229
 4652TIP3    H135371   2.196   6.361  17.058  0.4482  0.3531 -0.3675
 4652TIP3    H235372   2.134   6.351  16.920  0.3173 -1.2103 -0.2098
 4653TIP3   OH235373   6.595   4.302  15.573 -0.5223 -0.3140 -0.1838
 4653TIP3    H135374   6.536   4.308  15.498 -0.3519  1.8298 -0.1768
 4653TIP3    H235375   6.647   4.224  15.556 -2.3414 -1.4109 -0.9137
 4654TIP3   OH235376   6.463   0.123   3.349 -0.1907  0.1205 -0.1735
 4654TIP3    H135377   6.475   0.168   3.265 -0.0875  0.9353  0.2755
 4654TIP3    H235378   6.539   0.066   3.357  0.3126  0.7904 -0.1599
 4655TIP3   OH235379   4.722   2.802   6.297  1.0390 -0.1443  0.0085
 4655TIP3    H135380   4.766   2.729   6.341 -0.9934 -0.5115  1.5166
 4655TIP3    H235381   4.723   2.779   6.204 -0.5322 -2.6529  0.5552
 4656TIP3   OH235382   6.003   1.079   5.769  0.2295  0.0833  0.5229
 4656TIP3    H135383   6.034   1.160   5.728 -0.0617 -0.2310 -0.3265
 4656TIP3    H235384   6.031   1.009   5.710  2.0282 -0.5971  2.1531
 4657TIP3   OH235385   0.415   5.838  12.066  0.2340 -0.0258 -0.1623
 4657TIP3    H135386   0.442   5.925  12.037 -1.4353  0.2233 -1.0356
 4657TIP3    H235387   0.444   5.779  11.997 -0.5242  0.1083 -0.5957
 4658TIP3   OH235388   1.682   2.093   5.037  0.4468  0.3242  0.3585
 4658TIP3    H135389   1.658   2.178   5.000 -0.3944 -0.6328 -1.3138
 4658TIP3    H235390   1.774   2.081   5.011  0.6036  0.7685  0.6986
 4659TIP3   OH235391   2.460   6.364   4.645 -0.4497 -0.7046 -0.5082
 4659TIP3    H135392   2.441   6.278   4.607 -0.9967 -0.0094 -1.8478
 4659TIP3    H235393   2.384   6.385   4.699 -0.6078 -0.7771 -0.7037
 4660TIP3   OH235394   2.534   5.533  14.648 -0.3563  0.0854 -0.0173
 4660TIP3    H135395   2.552   5.625  14.665  0.3507  0.1021 -0.7791
 4660TIP3    H235396   2.569   5.486  14.724  1.4032  0.2646 -0.6945
 4661TIP3   OH235397   5.734   1.785  11.583 -0.1401  0.3957 -0.8729
 4661TIP3    H135398   5.721   1.725  11.657  1.5226  0.2480 -0.6715
 4661TIP3    H235399   5.748   1.870  11.624  0.5748  0.3513 -1.0215
 4662TIP3   OH235400   2.968   4.101  12.488 -0.1733 -0.5494 -0.2994
 4662TIP3    H135401   2.875   4.080  12.473  0.2775 -0.8728 -2.8554
 4662TIP3    H235402   3.010   4.015  12.500 -0.1234 -0.4230  0.4826
 4663TIP3   OH235403   0.038   5.509  10.734 -0.0559 -0.0846  0.0688
 4663TIP3    H135404   0.053   5.511  10.640 -0.7377  1.5688 -0.0205
 4663TIP3    H235405  -0.014   5.430  10.749 -2.0762  0.9477 -1.2821
 4664TIP3   OH235406   6.298   0.645  11.189 -0.2660 -0.1291  0.3444
 4664TIP3    H135407   6.288   0.738  11.170 -1.5325 -0.5676 -1.1703
 4664TIP3    H235408   6.251   0.632  11.272 -1.2139  0.3188 -0.1206
 4665TIP3   OH235409   2.132   4.967  13.971 -0.1762 -0.7951 -0.0039
 4665TIP3    H135410   2.093   4.905  13.910  0.1601 -0.5483 -0.4680
 4665TIP3    H235411   2.192   5.019  13.918  1.7271 -1.9694  0.9247
 4666TIP3   OH235412   4.790   5.529   1.870  0.1687  0.1666  0.0487
 4666TIP3    H135413   4.861   5.532   1.934  0.9077 -0.8325 -0.7055
 4666TIP3    H235414   4.739   5.452   1.896 -0.2396  0.4703  0.1590
 4667TIP3   OH235415   4.095   0.210  15.094 -0.5897 -0.3572  0.3434
 4667TIP3    H135416   4.021   0.222  15.035  0.7022 -0.8059 -1.4114
 4667TIP3    H235417   4.056   0.201  15.180 -2.6578 -1.6849 -0.7010
 4668TIP3   OH235418   2.024   2.155  12.333  0.4279  0.0381  0.2568
 4668TIP3    H135419   1.991   2.243  12.317 -0.0426 -0.5072 -1.9415
 4668TIP3    H235420   1.966   2.098  12.283  1.9939 -1.3405 -0.0398
 4669TIP3   OH235421   5.493   0.684  12.059 -0.3097  0.9516 -0.0161
 4669TIP3    H135422   5.427   0.678  11.990 -1.0067  0.6365  0.6497
 4669TIP3    H235423   5.442   0.672  12.140  0.7872 -0.8982  0.4256
 4670TIP3   OH235424   1.491   2.200   5.684 -0.7031 -0.0075  0.2853
 4670TIP3    H135425   1.554   2.130   5.700  0.3572  0.4546 -1.7131
 4670TIP3    H235426   1.530   2.277   5.726  0.1054  0.2713 -0.9221
 4671TIP3   OH235427   2.070   5.417   4.108 -0.3060  0.0850 -0.0468
 4671TIP3    H135428   2.101   5.356   4.175 -2.4445 -0.9971  0.0012
 4671TIP3    H235429   2.083   5.372   4.025 -0.7780  0.0620 -0.1077
 4672TIP3   OH235430   0.189   2.061   4.998  0.5105  0.8044  0.4893
 4672TIP3    H135431   0.204   2.019   5.083  1.3706 -0.0411 -0.0618
 4672TIP3    H235432   0.277   2.082   4.967  0.1953  1.1371 -0.1725
 4673TIP3   OH235433   1.555   0.482  13.081 -0.3638 -0.1422 -0.0527
 4673TIP3    H135434   1.598   0.515  13.160 -0.5719 -1.0196  0.4335
 4673TIP3    H235435   1.611   0.410  13.052 -0.2542  0.2199 -0.7463
 4674TIP3   OH235436   5.993   2.270   3.490  0.0562  0.3243 -0.2047
 4674TIP3    H135437   6.017   2.320   3.412  0.5241  2.0356  1.0071
 4674TIP3    H235438   5.903   2.242   3.474  0.3757  0.0794 -1.6406
 4675TIP3   OH235439   2.516   6.537   1.201  0.3053  0.0782 -0.3398
 4675TIP3    H135440   2.562   6.620   1.207  1.7386 -0.7626  0.6700
 4675TIP3    H235441   2.553   6.494   1.124  0.4324 -0.1314 -0.1638
 4676TIP3   OH235442   6.282   3.257   4.490 -0.2356 -0.0097 -0.3827
 4676TIP3    H135443   6.208   3.317   4.486  0.1639  0.4821 -0.5668
 4676TIP3    H235444   6.250   3.176   4.451 -0.5209  0.3694 -0.9571
 4677TIP3   OH235445   1.111   6.699   0.336 -0.1823  0.2077 -0.0438
 4677TIP3    H135446   1.086   6.655   0.255  0.4276  0.0561 -0.1518
 4677TIP3    H235447   1.035   6.751   0.360 -0.1565  0.6962 -1.0220
 4678TIP3   OH235448   0.717   3.945   3.304 -0.0299 -0.0135 -0.1547
 4678TIP3    H135449   0.650   3.952   3.236 -0.0915  2.5823  0.1485
 4678TIP3    H235450   0.780   3.882   3.269 -0.4452  0.7073 -2.2623
 4679TIP3   OH235451   5.130   2.377   5.307  0.2695  0.0367  0.0478
 4679TIP3    H135452   5.223   2.360   5.296  0.3550  0.1058  0.6537
 4679TIP3    H235453   5.115   2.457   5.257  0.2292 -0.7926 -1.2850
 4680TIP3   OH235454   1.796   4.556  11.280 -0.0831 -0.0513  0.5100
 4680TIP3    H135455   1.814   4.629  11.340  1.1879  2.7646 -3.0929
 4680TIP3    H235456   1.880   4.512  11.269 -0.5787 -1.3186  1.7052
 4681TIP3   OH235457   0.006   1.092  14.354 -0.4536 -0.0292  0.9274
 4681TIP3    H135458  -0.054   1.159  14.385 -2.4000 -1.0489 -0.5109
 4681TIP3    H235459  -0.050   1.018  14.330  1.3771 -1.0340 -0.4299
 4682TIP3   OH235460   4.406   4.602  16.624 -0.2747 -0.5829 -0.0952
 4682TIP3    H135461   4.444   4.560  16.701  0.0933 -1.5076 -0.7708
 4682TIP3    H235462   4.312   4.582  16.629 -0.3166 -0.2743  0.3389
 4683TIP3   OH235463   5.044   3.247  11.804  0.0670 -0.3190 -0.5727
 4683TIP3    H135464   5.010   3.333  11.827 -0.9755 -0.3322 -1.9988
 4683TIP3    H235465   5.130   3.242  11.847 -0.0976  1.2161 -0.0623
 4684TIP3   OH235466   0.561   6.173   5.419 -0.1123  0.2869  0.2411
 4684TIP3    H135467   0.598   6.155   5.505 -0.0594 -0.0516  0.1464
 4684TIP3    H235468   0.544   6.267   5.420  1.8542  0.6643 -0.1254
 4685TIP3   OH235469   3.424   6.111  16.058 -0.0877 -0.7809  0.2272
 4685TIP3    H135470   3.473   6.187  16.087 -1.3396 -0.1236  0.6395
 4685TIP3    H235471   3.490   6.055  16.016  0.5512  1.3050 -1.6491
 4686TIP3   OH235472   3.152   4.510  14.745  0.2782  0.1454  0.0687
 4686TIP3    H135473   3.213   4.571  14.705 -0.0357  0.3670 -0.0727
 4686TIP3    H235474   3.081   4.501  14.681  1.6179 -2.4697 -1.1572
 4687TIP3   OH235475   6.712   3.090   6.494  0.0970  0.4612  0.2453
 4687TIP3    H135476   6.789   3.147   6.487 -0.2296  0.8396 -0.3244
 4687TIP3    H235477   6.648   3.143   6.542  0.6688 -0.3694  1.9559
 4688TIP3   OH235478   5.394   3.100   4.578  0.5850  0.2577  0.1810
 4688TIP3    H135479   5.391   3.194   4.598  0.5447  0.5992 -1.3187
 4688TIP3    H235480   5.457   3.093   4.506 -0.8455 -0.5904 -1.0488
 4689TIP3   OH235481   2.201   3.364  14.593  0.1705 -0.0827 -0.2686
 4689TIP3    H135482   2.219   3.388  14.502 -1.7536  0.8966 -0.4253
 4689TIP3    H235483   2.170   3.446  14.633 -0.0297 -0.7649  0.9795
 4690TIP3   OH235484   3.762   5.351   1.795 -0.1757  0.2212  0.3823
 4690TIP3    H135485   3.762   5.381   1.885 -2.2423 -1.4415  0.9659
 4690TIP3    H235486   3.823   5.410   1.750 -0.2088  1.9486  2.5402
 4691TIP3   OH235487   6.321   4.520   1.181 -0.0089 -0.6355  0.2259
 4691TIP3    H135488   6.406   4.542   1.218 -1.4037  2.4284  1.8039
 4691TIP3    H235489   6.332   4.535   1.087  1.0825  0.1352  0.4655
 4692TIP3   OH235490   4.419   2.224  11.351  0.6126 -1.0023 -0.5408
 4692TIP3    H135491   4.335   2.223  11.305  0.0680 -0.9116  0.4381
 4692TIP3    H235492   4.439   2.317  11.362  0.5039 -1.0193 -0.1811
 4693TIP3   OH235493   1.802   5.352   5.219  0.2494 -0.0707 -0.0034
 4693TIP3    H135494   1.755   5.288   5.272  0.9370 -0.2208  0.4412
 4693TIP3    H235495   1.851   5.298   5.156 -0.5011  0.1031 -0.7376
 4694TIP3   OH235496   2.998   3.894   2.126 -0.0739  0.3141 -0.0934
 4694TIP3    H135497   3.068   3.865   2.184 -0.4101 -0.5443 -0.1057
 4694TIP3    H235498   2.990   3.824   2.061 -2.0139 -0.3780  0.8483
 4695TIP3   OH235499   1.620   0.219   1.569  0.3242 -0.1311 -0.0265
 4695TIP3    H135500   1.695   0.161   1.582  0.3994 -0.1334 -0.4319
 4695TIP3    H235501   1.643   0.269   1.490 -0.7543 -1.1783 -1.0174
 4696TIP3   OH235502   6.617   3.519  14.639  0.0211 -0.5473  0.2217
 4696TIP3    H135503   6.532   3.482  14.666 -0.4489  0.6133  0.3692
 4696TIP3    H235504   6.645   3.464  14.567  0.1374 -2.2295  1.5138
 4697TIP3   OH235505   4.525   1.801  16.149 -0.3819 -0.0877 -0.0225
 4697TIP3    H135506   4.457   1.826  16.087 -1.3134 -1.2397  0.5163
 4697TIP3    H235507   4.528   1.873  16.212 -1.3281 -0.1842  0.1346
 4698TIP3   OH235508   1.962   3.374   1.354 -0.3439 -0.2592  0.4806
 4698TIP3    H135509   2.051   3.375   1.317 -0.0100  0.1359  1.2775
 4698TIP3    H235510   1.973   3.407   1.443 -1.1146 -1.2988  0.9731
 4699TIP3   OH235511   4.379   1.255   0.210 -0.0077  0.1885  0.1404
 4699TIP3    H135512   4.292   1.286   0.188 -0.4003 -0.6669  0.4684
 4699TIP3    H235513   4.366   1.194   0.282  0.9677  0.8080  0.8532
 4700TIP3   OH235514   3.580   1.827  16.443 -0.1632  0.4706  0.4985
 4700TIP3    H135515   3.562   1.889  16.513 -2.7026  0.3488 -0.0175
 4700TIP3    H235516   3.531   1.749  16.466 -0.9006  0.3769 -1.3330
 4701TIP3   OH235517   3.395   3.922   4.728  0.5217 -0.5736  0.4530
 4701TIP3    H135518   3.311   3.884   4.749  1.3569 -1.3251  2.4977
 4701TIP3    H235519   3.376   3.985   4.658 -1.8394 -0.1741  1.4079
 4702TIP3   OH235520   5.775   2.632  11.930 -0.3537 -0.4994 -0.7444
 4702TIP3    H135521   5.768   2.657  11.838 -0.7770 -1.0620 -0.8745
 4702TIP3    H235522   5.732   2.703  11.978 -0.6559 -0.4921 -1.0264
 4703TIP3   OH235523   3.531   1.826  16.818  0.7322  0.0901  0.2781
 4703TIP3    H135524   3.465   1.838  16.749  0.1567  0.2519  0.8568
 4703TIP3    H235525   3.519   1.736  16.847  1.7439 -0.3492 -0.6215
 4704TIP3   OH235526   0.937   4.818   3.991  0.0843  0.4874 -0.3334
 4704TIP3    H135527   0.935   4.752   4.060 -1.3045  1.0963  0.2088
 4704TIP3    H235528   0.906   4.899   4.033 -2.4375  0.4750 -2.0543
 4705TIP3   OH235529   6.320   3.196  15.793  0.7019 -0.3503  0.2643
 4705TIP3    H135530   6.242   3.249  15.779  0.0655 -1.4837 -0.5067
 4705TIP3    H235531   6.359   3.232  15.873 -0.6255  0.2074  0.6793
 4706TIP3   OH235532   0.704   1.805  14.495  0.2835  0.8475  0.2620
 4706TIP3    H135533   0.731   1.848  14.576  2.7061  0.9855 -0.5678
 4706TIP3    H235534   0.671   1.875  14.440  0.5760  1.0616  0.3584
 4707TIP3   OH235535   5.898   4.548   5.029  0.2920  0.0775 -0.0210
 4707TIP3    H135536   5.978   4.566   5.079 -0.0980  1.8002  0.0195
 4707TIP3    H235537   5.827   4.563   5.092 -0.0692 -2.3265  0.2072
 4708TIP3   OH235538   0.586   2.771  15.223 -0.1798  0.5077 -0.2466
 4708TIP3    H135539   0.639   2.812  15.291 -1.9190  2.0682  0.2194
 4708TIP3    H235540   0.541   2.699  15.267  1.0678 -0.4411 -0.5029
 4709TIP3   OH235541   0.086   2.322   1.928 -0.0169 -0.5445  0.1490
 4709TIP3    H135542   0.178   2.299   1.920  0.4679  0.7477  1.8313
 4709TIP3    H235543   0.041   2.258   1.873  1.7848 -1.8834  0.1854
 4710TIP3   OH235544   4.024   3.437   3.432  0.4208  0.0865  0.3594
 4710TIP3    H135545   4.094   3.373   3.419  0.4554  0.0952  0.4982
 4710TIP3    H235546   4.020   3.485   3.350 -0.6794 -1.1449 -0.3163
 4711TIP3   OH235547   4.924   0.061  11.946 -0.2701  0.2600  0.0917
 4711TIP3    H135548   4.905   0.116  11.871 -2.7763 -0.4443  0.1723
 4711TIP3    H235549   4.868   0.095  12.016  0.4066 -0.4791  1.0045
 4712TIP3   OH235550   6.642   6.078   4.594  0.1725  0.4674 -0.5990
 4712TIP3    H135551   6.579   6.146   4.618  0.2238  1.0908 -2.1286
 4712TIP3    H235552   6.713   6.087   4.657 -0.5296  0.8441  0.1374
 4713TIP3   OH235553   2.032   0.727  12.344 -0.4799 -0.8394 -0.9177
 4713TIP3    H135554   1.979   0.655  12.312 -0.6094 -1.2458  0.1915
 4713TIP3    H235555   2.083   0.690  12.416 -1.5852  0.4935  0.6128
 4714TIP3   OH235556   2.395   3.233  11.389 -0.1766 -0.1551  0.4098
 4714TIP3    H135557   2.396   3.142  11.419 -0.3010  0.1616  1.3814
 4714TIP3    H235558   2.307   3.246  11.353  0.3505 -0.8821 -1.2023
 4715TIP3   OH235559   3.556   2.554  13.181  0.4375 -0.1090 -0.0745
 4715TIP3    H135560   3.604   2.628  13.143 -0.7774  0.7449  0.0507
 4715TIP3    H235561   3.625   2.499  13.220  1.2702  1.3870  0.5968
 4716TIP3   OH235562   0.185   4.656   4.722  0.1679 -0.0561  0.7121
 4716TIP3    H135563   0.092   4.635   4.717  0.4467 -1.0660 -0.3822
 4716TIP3    H235564   0.189   4.750   4.704 -0.3899 -0.5604 -2.2881
 4717TIP3   OH235565   2.842   2.658   3.520 -0.1720  0.1156  0.3842
 4717TIP3    H135566   2.788   2.584   3.547  0.9397 -0.8295  0.0560
 4717TIP3    H235567   2.781   2.718   3.478 -1.3499  0.1140  2.0474
 4718TIP3   OH235568   1.911   0.732   3.493  0.3808 -0.3201  0.4191
 4718TIP3    H135569   1.971   0.796   3.531  0.2733 -0.0406  0.1161
 4718TIP3    H235570   1.938   0.649   3.532  1.6762 -0.3724 -0.5246
 4719TIP3   OH235571   4.574   5.489  15.227  0.3802  0.0201 -0.2732
 4719TIP3    H135572   4.627   5.567  15.210  1.2982 -0.0983  1.8677
 4719TIP3    H235573   4.620   5.419  15.181 -0.6192  0.7743 -2.4637
 4720TIP3   OH235574   1.625   2.339   2.453 -0.2704 -0.2519 -0.2710
 4720TIP3    H135575   1.547   2.304   2.497 -0.5448 -0.3487 -0.8295
 4720TIP3    H235576   1.600   2.428   2.428 -0.1291 -0.2146 -0.2765
 4721TIP3   OH235577   4.485   2.778   0.911 -0.1610  0.5991  0.0653
 4721TIP3    H135578   4.519   2.689   0.922 -2.7874 -0.1568  3.1079
 4721TIP3    H235579   4.562   2.833   0.898  1.7187 -1.8087  0.7390
 4722TIP3   OH235580   0.206   1.805  11.769  0.1855  0.2043 -0.5016
 4722TIP3    H135581   0.159   1.740  11.717  0.0259 -0.7788  0.8272
 4722TIP3    H235582   0.224   1.877  11.709  0.2383 -1.0184 -1.9585
 4723TIP3   OH235583   3.845   6.578  14.930  0.4511 -0.1918  0.0425
 4723TIP3    H135584   3.811   6.495  14.963  2.4769 -0.8817  0.4391
 4723TIP3    H235585   3.868   6.627  15.009 -0.8244  0.8248 -0.1855
 4724TIP3   OH235586   0.589   4.275   3.668 -0.1151 -0.2263  0.3551
 4724TIP3    H135587   0.624   4.191   3.636  0.1312 -0.1835  0.5092
 4724TIP3    H235588   0.500   4.254   3.696  0.1241 -0.5593  0.8929
 4725TIP3   OH235589   3.637   5.955   1.383  0.0217  0.4233 -0.1071
 4725TIP3    H135590   3.731   5.936   1.381  0.0371  0.6045 -1.3920
 4725TIP3    H235591   3.631   6.049   1.364 -0.4618  0.2360 -0.9168
 4726TIP3   OH235592   6.191   2.190   4.855  0.2300 -0.2951 -0.6503
 4726TIP3    H135593   6.178   2.270   4.805 -2.9208 -1.5417 -1.9472
 4726TIP3    H235594   6.144   2.205   4.937  1.6039  0.0260  0.1035
 4727TIP3   OH235595   0.909   2.531   6.047 -0.3540 -0.6311 -0.4609
 4727TIP3    H135596   0.916   2.438   6.069 -1.9719 -0.7509 -0.4446
 4727TIP3    H235597   0.901   2.575   6.131  0.0617 -0.5010 -0.4880
 4728TIP3   OH235598   3.811   2.572  13.596  0.8863 -0.3969 -0.2522
 4728TIP3    H135599   3.752   2.503  13.566 -1.0959  0.9313  0.4752
 4728TIP3    H235600   3.898   2.532  13.596 -0.5739 -3.7689  2.9261
 4729TIP3   OH235601   2.407   3.228   0.891 -0.0438  0.5416  0.3560
 4729TIP3    H135602   2.361   3.311   0.907 -0.4393  0.2687  0.6325
 4729TIP3    H235603   2.434   3.233   0.799  0.4905  1.2542  0.5476
 4730TIP3   OH235604   6.170   3.689  14.591 -0.4022  0.5298 -0.2630
 4730TIP3    H135605   6.142   3.601  14.614 -0.1066  0.3573 -0.5571
 4730TIP3    H235606   6.202   3.727  14.673  1.1095 -0.2505 -0.4797
 4731TIP3   OH235607   0.186   6.057  13.419  0.3475 -0.3411  0.7843
 4731TIP3    H135608   0.172   6.141  13.376  0.7810 -0.5617  0.2065
 4731TIP3    H235609   0.097   6.026  13.439  0.2080  0.6093  1.7211
 4732TIP3   OH235610   4.437   4.880  12.416 -0.1057 -0.0144  0.3444
 4732TIP3    H135611   4.453   4.803  12.362 -0.1998  0.0474  0.2288
 4732TIP3    H235612   4.473   4.953  12.364 -1.9968  0.3111 -0.5438
 4733TIP3   OH235613   0.702   1.548  16.969  0.0557 -0.1462 -0.4966
 4733TIP3    H135614   0.781   1.512  17.008  0.5627  0.8930 -0.5445
 4733TIP3    H235615   0.683   1.626  17.022 -0.4487  0.0840 -1.0123
 4734TIP3   OH235616   6.528   2.849   4.531 -0.4902 -0.3054 -0.3954
 4734TIP3    H135617   6.468   2.878   4.600 -0.9813 -0.8342 -0.6018
 4734TIP3    H235618   6.535   2.755   4.544  0.8124 -0.1687  0.0375
 4735TIP3   OH235619   0.485   3.589  10.990  0.0583  0.3099  0.0682
 4735TIP3    H135620   0.437   3.613  10.911 -0.3297  1.0332  0.5198
 4735TIP3    H235621   0.559   3.649  10.992 -0.3682  0.8128  0.6770
 4736TIP3   OH235622   0.186   3.353  14.451 -0.1429  0.3327  0.1218
 4736TIP3    H135623   0.224   3.433  14.486 -0.0951  0.5155 -0.3474
 4736TIP3    H235624   0.097   3.350  14.489  1.1778 -1.4253  3.2892
 4737TIP3   OH235625   3.204   4.712  13.320  0.1121  0.2586 -0.5771
 4737TIP3    H135626   3.190   4.673  13.406 -2.6907  0.0513 -1.0678
 4737TIP3    H235627   3.143   4.786  13.318  1.8336  1.6884 -1.5214
 4738TIP3   OH235628   0.489   3.647   1.346 -0.1273 -0.2319  0.1815
 4738TIP3    H135629   0.401   3.654   1.383  0.2849  1.5551  0.9035
 4738TIP3    H235630   0.534   3.583   1.401 -0.2918  0.5631  1.2735
 4739TIP3   OH235631   4.695   4.615  12.898  1.0138 -0.3314 -0.4467
 4739TIP3    H135632   4.675   4.642  12.988  0.1464 -1.6560 -0.2272
 4739TIP3    H235633   4.790   4.610  12.895  1.0465 -0.4198  0.4498
 4740TIP3   OH235634   3.672   6.727  13.745  0.0260  0.1071  0.3318
 4740TIP3    H135635   3.701   6.637  13.727  1.4984  0.7627 -0.6430
 4740TIP3    H235636   3.583   6.717  13.778  0.7888 -1.8538  1.9158
 4741TIP3   OH235637   1.091   4.379  11.960 -0.0126  0.1440  0.0645
 4741TIP3    H135638   1.050   4.461  11.934 -0.9388 -0.9322 -2.0325
 4741TIP3    H235639   1.044   4.352  12.039 -0.0471  1.3714  0.4656
 4742TIP3   OH235640   2.528   6.495   1.956 -0.1017  0.0079  0.2016
 4742TIP3    H135641   2.590   6.488   2.029  0.0487 -1.0802 -0.0172
 4742TIP3    H235642   2.453   6.442   1.984  0.3896 -1.2678 -0.8595
 4743TIP3   OH235643   5.498   4.486   0.821  0.3074 -0.2437 -0.3137
 4743TIP3    H135644   5.478   4.457   0.910  0.2180 -0.8525 -0.5262
 4743TIP3    H235645   5.586   4.451   0.804  1.0729  1.4296  0.1980
 4744TIP3   OH235646   5.891   6.618  12.451  0.0969  0.1173 -0.1602
 4744TIP3    H135647   5.963   6.582  12.399  0.0504  2.2948 -1.8233
 4744TIP3    H235648   5.830   6.654  12.387 -1.2873  0.4978  1.3246
 4745TIP3   OH235649   3.757   1.966   2.073 -0.3091  0.8637  0.2890
 4745TIP3    H135650   3.828   2.027   2.052  0.6561 -0.6211 -0.9265
 4745TIP3    H235651   3.752   1.908   1.997 -1.9430  0.1133  0.9375
 4746TIP3   OH235652   5.141   5.690   5.427  0.0703  0.3829  0.0335
 4746TIP3    H135653   5.088   5.769   5.417 -0.1902  0.2237  0.1576
 4746TIP3    H235654   5.230   5.723   5.442  0.2029  0.6346 -1.2789
 4747TIP3   OH235655   2.621   2.300   5.898  0.0711  0.3691  0.7388
 4747TIP3    H135656   2.623   2.265   5.809  0.8113  1.7193  0.1992
 4747TIP3    H235657   2.713   2.317   5.919 -0.1114  0.1794  1.7130
 4748TIP3   OH235658   5.179   5.021  14.196 -0.0698  0.3261  0.2599
 4748TIP3    H135659   5.258   4.979  14.161  0.0299 -0.0528  0.9307
 4748TIP3    H235660   5.176   5.106  14.151  0.4934  0.1784 -0.0742
 4749TIP3   OH235661   5.435   2.561  11.833 -0.1342 -0.6872 -0.1809
 4749TIP3    H135662   5.477   2.575  11.748 -2.1809 -0.5277 -1.1920
 4749TIP3    H235663   5.406   2.648  11.860 -1.6137 -1.0803 -0.4711
 4750TIP3   OH235664   6.497   2.523   2.270  0.3605  0.1664 -0.3376
 4750TIP3    H135665   6.461   2.445   2.311  0.9656  0.0632 -0.0004
 4750TIP3    H235666   6.525   2.495   2.183 -0.3016  0.2302 -0.5731
 4751TIP3   OH235667   3.158   5.154   2.039 -0.0081 -0.7552  0.8957
 4751TIP3    H135668   3.066   5.157   2.012  0.2554  1.5035  0.1036
 4751TIP3    H235669   3.204   5.206   1.973  1.4068  0.5149  2.8346
 4752TIP3   OH235670   6.555   0.255  17.086  0.5967 -0.0732  0.0582
 4752TIP3    H135671   6.542   0.277  16.994 -1.4219  0.2092  0.3948
 4752TIP3    H235672   6.558   0.159  17.087  2.0023 -0.0528 -0.4531
 4753TIP3   OH235673   4.495   4.672   5.503 -0.1376  0.1344  0.0566
 4753TIP3    H135674   4.421   4.727   5.477 -0.6639  0.2511  1.7026
 4753TIP3    H235675   4.547   4.661   5.424 -1.7232  0.3699 -1.0239
 4754TIP3   OH235676   2.734   4.112   0.690 -0.3552 -1.1572  0.1728
 4754TIP3    H135677   2.756   4.145   0.603  0.8511  1.7289  1.5155
 4754TIP3    H235678   2.639   4.101   0.689 -0.4030 -0.5876 -1.3159
 4755TIP3   OH235679   1.504   3.616   3.314 -0.5017  0.2742  0.2855
 4755TIP3    H135680   1.486   3.607   3.220 -2.7955 -0.9431  0.7987
 4755TIP3    H235681   1.552   3.698   3.322  1.1161 -0.3806 -2.1265
 4756TIP3   OH235682   3.664   3.457   3.085 -0.4838  0.1422  0.3867
 4756TIP3    H135683   3.574   3.442   3.055 -0.2354  0.5112 -0.5674
 4756TIP3    H235684   3.658   3.538   3.137 -0.9286 -0.5411  1.4266
 4757TIP3   OH235685   1.871   4.467  10.416  0.3424  0.4593 -0.3907
 4757TIP3    H135686   1.886   4.518  10.496  0.1973 -2.5733  1.6255
 4757TIP3    H235687   1.779   4.482  10.395 -0.0353  0.0521  0.9188
 4758TIP3   OH235688   1.201   1.733  13.933 -0.4367 -0.2271 -0.2615
 4758TIP3    H135689   1.207   1.761  13.842  0.1420 -0.7145 -0.3772
 4758TIP3    H235690   1.230   1.809  13.984 -4.2299  1.3309 -0.2862
 4759TIP3   OH235691   1.146   2.777   5.949  0.5154 -0.0043 -0.2177
 4759TIP3    H135692   1.238   2.801   5.963  0.7783 -0.5330 -1.0439
 4759TIP3    H235693   1.123   2.727   6.028  1.1310 -0.4321 -0.3058
 4760TIP3   OH235694   3.232   3.565   3.161 -0.0564 -0.3310  0.1269
 4760TIP3    H135695   3.142   3.534   3.172 -0.0730 -0.1986  0.3738
 4760TIP3    H235696   3.262   3.583   3.250 -0.2555  0.9456 -0.0470
 4761TIP3   OH235697   3.514   3.462  14.680 -0.9473 -0.3061 -0.0421
 4761TIP3    H135698   3.588   3.401  14.678  0.7592  1.6299  1.2599
 4761TIP3    H235699   3.483   3.458  14.771 -1.1029  0.4047 -0.0621
 4762TIP3   OH235700   2.577   1.131   3.748 -0.1022 -0.4474 -0.3044
 4762TIP3    H135701   2.624   1.193   3.804  0.0739 -0.6708 -0.2057
 4762TIP3    H235702   2.646   1.076   3.711 -0.1535  0.1381 -1.2833
 4763TIP3   OH235703   3.348   0.502  11.734 -0.5460 -0.6414  0.3153
 4763TIP3    H135704   3.348   0.468  11.824  0.6360 -0.6620  0.3035
 4763TIP3    H235705   3.424   0.559  11.729  0.8547 -2.6064 -1.4099
 4764TIP3   OH235706   1.663   4.170  17.235  0.2805 -0.4073  0.2229
 4764TIP3    H135707   1.628   4.118  17.307 -0.0278 -0.0130  0.3601
 4764TIP3    H235708   1.586   4.211  17.196  0.5578  0.2867  0.3892
 4765TIP3   OH235709   0.301   0.458   0.955  0.2198 -0.0215 -0.2969
 4765TIP3    H135710   0.251   0.539   0.950 -0.5453 -0.2662  2.4779
 4765TIP3    H235711   0.258   0.399   0.893 -1.0405  0.7585 -0.1814
 4766TIP3   OH235712   6.209   4.483   0.017 -0.5420  0.1150  0.3503
 4766TIP3    H135713   6.206   4.578   0.035 -0.9912 -0.1185  1.5695
 4766TIP3    H235714   6.172   4.474  -0.070 -2.1270  0.9006  0.9230
 4767TIP3   OH235715   2.510   1.061   1.615  0.0861 -0.1434 -0.2303
 4767TIP3    H135716   2.504   0.983   1.560  0.6374  0.3902 -1.0656
 4767TIP3    H235717   2.422   1.099   1.614 -0.1646 -0.7202  0.1226
 4768TIP3   OH235718   2.416   3.175   0.636 -0.6242 -0.3085 -0.0707
 4768TIP3    H135719   2.386   3.207   0.550 -0.6356  0.1516  0.1016
 4768TIP3    H235720   2.345   3.121   0.668 -0.6435 -0.4368 -0.3286
 4769TIP3   OH235721   2.101   2.077  11.202 -0.3292 -0.4460  0.4812
 4769TIP3    H135722   2.013   2.101  11.176  0.6400  2.2134 -0.5331
 4769TIP3    H235723   2.155   2.152  11.176  1.9856 -1.3604  2.4400
 4770TIP3   OH235724   6.325   1.523   0.635 -0.3241  0.1170  1.0268
 4770TIP3    H135725   6.295   1.601   0.587 -0.2099 -0.3482  0.1840
 4770TIP3    H235726   6.249   1.464   0.634  0.2948 -0.6796 -0.2867
 4771TIP3   OH235727   5.199   0.930  13.653  0.3132  0.1813 -0.3939
 4771TIP3    H135728   5.153   0.849  13.678  1.7224 -0.7431 -0.7138
 4771TIP3    H235729   5.203   0.927  13.558  2.3534 -0.5232 -0.3081
 4772TIP3   OH235730   4.817   2.209  13.454 -0.4093 -0.0301 -0.5308
 4772TIP3    H135731   4.843   2.244  13.540  2.0500 -1.0022 -0.8544
 4772TIP3    H235732   4.829   2.283  13.394  1.0376 -0.2810 -0.5669
 4773TIP3   OH235733   5.985   5.001   5.736  0.3652  0.6633  0.1044
 4773TIP3    H135734   6.059   4.976   5.680 -1.1295 -0.5184 -1.3890
 4773TIP3    H235735   5.908   4.967   5.691 -1.0061  0.8435  2.2231
 4774TIP3   OH235736   4.803   5.135  14.196 -0.4322 -0.0551  0.2611
 4774TIP3    H135737   4.872   5.197  14.173  0.7219 -0.9631  1.2525
 4774TIP3    H235738   4.735   5.151  14.130  0.1224  1.7950  0.0876
 4775TIP3   OH235739   3.358   5.822   1.756 -0.2529  0.2092 -0.7897
 4775TIP3    H135740   3.351   5.834   1.850  1.1082  1.7224 -0.8614
 4775TIP3    H235741   3.267   5.819   1.725 -0.6842  2.2677  0.2564
 4776TIP3   OH235742   3.567   5.166   4.409 -0.9287 -0.7468 -0.1496
 4776TIP3    H135743   3.635   5.185   4.473  0.3957 -2.6265 -0.9425
 4776TIP3    H235744   3.609   5.109   4.346 -2.7445 -0.4398 -1.6833
 4777TIP3   OH235745   2.760   3.859  14.717  0.0444 -0.1372  0.0993
 4777TIP3    H135746   2.766   3.841  14.623 -1.2275 -1.7878  0.3083
 4777TIP3    H235747   2.715   3.943  14.722  1.2943  0.6138 -0.7825
 4778TIP3   OH235748   3.738   2.666   1.706  0.2650  0.3622 -0.0296
 4778TIP3    H135749   3.649   2.646   1.677  0.6591  1.9300 -2.4513
 4778TIP3    H235750   3.785   2.583   1.695 -0.0593  0.4240 -2.2354
 4779TIP3   OH235751   4.099   3.909  12.655  0.5715 -0.0704  0.5557
 4779TIP3    H135752   4.087   3.980  12.718  3.1172 -0.0456  1.0695
 4779TIP3    H235753   4.091   3.951  12.570  1.7207  0.8071  0.8609
 4780TIP3   OH235754   4.866   4.783  11.841  0.4412 -0.5591  0.4411
 4780TIP3    H135755   4.920   4.739  11.775  0.3489  0.1570 -0.1133
 4780TIP3    H235756   4.804   4.835  11.790  1.2011  1.0110  1.0850
 4781TIP3   OH235757   0.236   1.971  13.220 -0.1673  0.0591 -0.1901
 4781TIP3    H135758   0.288   1.940  13.146  0.7843 -0.0833  0.5313
 4781TIP3    H235759   0.294   1.965  13.295 -0.9797  0.6363  0.5025
 4782TIP3   OH235760   4.245   5.214  17.060  0.3229 -0.4622 -0.4302
 4782TIP3    H135761   4.266   5.302  17.026 -1.1337  0.8909  2.0260
 4782TIP3    H235762   4.329   5.179  17.090  0.8059  0.3802 -0.7835
 4783TIP3   OH235763   4.806   6.066  11.403 -0.1714  0.1069 -0.4129
 4783TIP3    H135764   4.763   6.011  11.338 -0.4257  0.4170 -0.5027
 4783TIP3    H235765   4.822   6.006  11.477 -0.7595 -0.0051 -0.3751
 4784TIP3   OH235766   4.715   1.575   2.985  0.0486 -0.5544  0.1951
 4784TIP3    H135767   4.758   1.579   3.070 -0.9616 -0.6610  0.7264
 4784TIP3    H235768   4.692   1.666   2.965  0.6664 -0.4795 -0.1581
 4785TIP3   OH235769   5.467   6.184  17.095 -0.0659 -0.0937  0.3031
 4785TIP3    H135770   5.493   6.267  17.056 -0.0813 -0.0223  0.4475
 4785TIP3    H235771   5.508   6.184  17.182 -0.3064 -0.1064  0.4174
 4786TIP3   OH235772   5.871   5.050  13.688 -0.6038  0.3659  0.2426
 4786TIP3    H135773   5.814   5.119  13.722 -0.5274 -1.1930  3.7870
 4786TIP3    H235774   5.952   5.060  13.739 -0.0869 -1.4683 -0.1954
 4787TIP3   OH235775   0.803   1.009  11.653 -0.0821  0.6470 -0.3881
 4787TIP3    H135776   0.800   0.999  11.558 -0.5496  0.5670 -0.3686
 4787TIP3    H235777   0.819   0.920  11.686 -0.7931  0.5285 -0.3579
 4788TIP3   OH235778   5.825   2.818  13.681 -0.1246  0.0834 -0.4080
 4788TIP3    H135779   5.842   2.912  13.669 -0.1255 -0.0187 -1.2047
 4788TIP3    H235780   5.904   2.785  13.724  1.4661 -0.2513 -3.4516
 4789TIP3   OH235781   1.676   1.957   2.258 -1.0726 -0.3201  0.0838
 4789TIP3    H135782   1.712   2.024   2.199  1.4455 -2.1393 -0.5446
 4789TIP3    H235783   1.705   1.985   2.345  0.6132 -0.9412 -0.2525
 4790TIP3   OH235784   6.320   5.160  11.709 -0.4120  0.1348  0.2927
 4790TIP3    H135785   6.254   5.226  11.688 -0.4723  0.8557  2.6161
 4790TIP3    H235786   6.401   5.194  11.672 -0.9889  0.0899 -1.0495
 4791TIP3   OH235787   1.185   1.199  12.130  0.4574  0.1944 -0.1236
 4791TIP3    H135788   1.214   1.254  12.203  0.9527  0.0396 -0.1991
 4791TIP3    H235789   1.253   1.211  12.064  0.2560 -0.0417 -0.3721
 4792TIP3   OH235790   0.675   1.928  11.287  0.0130 -0.2942  0.2067
 4792TIP3    H135791   0.763   1.893  11.274  0.0413 -0.0613 -0.2450
 4792TIP3    H235792   0.682   2.021  11.263 -0.6343 -0.5513 -1.0271
 4793TIP3   OH235793   1.060   6.232  15.678 -0.2768  0.2952 -0.3116
 4793TIP3    H135794   1.015   6.257  15.597 -0.3024 -0.9498 -0.6943
 4793TIP3    H235795   1.128   6.172  15.649  0.3624  0.6299  0.4922
 4794TIP3   OH235796   5.524   3.551   4.906  0.0012 -0.3710 -0.4180
 4794TIP3    H135797   5.486   3.635   4.933 -1.1544 -0.7555 -0.7936
 4794TIP3    H235798   5.494   3.489   4.972  0.9434 -0.4685 -0.0833
 4795TIP3   OH235799   5.832   3.136  14.086  0.0832  0.5969  0.1450
 4795TIP3    H135800   5.762   3.154  14.148  0.4388  1.6948  0.2417
 4795TIP3    H235801   5.792   3.146  14.000 -0.7603 -2.2549  0.1353
 4796TIP3   OH235802   2.224   4.861  11.134 -0.2159 -0.4740  0.2314
 4796TIP3    H135803   2.178   4.924  11.078 -1.5765 -0.7301  1.0512
 4796TIP3    H235804   2.194   4.775  11.103  0.2187 -0.6609  0.3330
 4797TIP3   OH235805   3.480   0.970   0.941  0.2955 -0.5724 -0.1889
 4797TIP3    H135806   3.446   0.945   1.027 -0.2189 -5.1920 -1.5928
 4797TIP3    H235807   3.557   0.914   0.929 -0.8251 -1.5154 -3.5062
 4798TIP3   OH235808   5.065   4.583  12.681  0.2272  0.1691 -0.2328
 4798TIP3    H135809   5.121   4.532  12.623  0.7248  1.0806 -0.5645
 4798TIP3    H235810   5.097   4.564  12.769 -1.3733 -2.2586 -0.1229
 4799TIP3   OH235811   6.530   0.868   3.187 -0.3094  0.2984  0.3621
 4799TIP3    H135812   6.485   0.906   3.111  0.7551  0.2240 -0.3137
 4799TIP3    H235813   6.598   0.812   3.149  0.0337  0.0170  1.3710
 4800TIP3   OH235814   4.036   0.954  14.003 -0.1558  0.1949  0.3314
 4800TIP3    H135815   4.044   1.011  14.079  0.0078  0.8479 -0.1736
 4800TIP3    H235816   3.992   0.876  14.036  0.6179  0.1479  1.2620
 4801TIP3   OH235817   4.997   5.705   3.435 -0.0399  0.1643  0.7612
 4801TIP3    H135818   4.907   5.675   3.451 -0.1204 -0.4889 -0.8400
 4801TIP3    H235819   5.051   5.627   3.440 -0.0173 -0.0032 -1.6317
 4802TIP3   OH235820   6.140   1.529  16.136 -0.7314 -0.1013  0.1893
 4802TIP3    H135821   6.076   1.600  16.134 -1.6041 -0.8990 -0.6543
 4802TIP3    H235822   6.216   1.567  16.179 -1.4138  1.1588  0.3137
 4803TIP3   OH235823   1.211   6.185   5.632 -0.3064  0.5833 -0.5316
 4803TIP3    H135824   1.240   6.105   5.678 -0.1759  0.9539  0.0359
 4803TIP3    H235825   1.292   6.230   5.609 -0.3924  0.7896 -0.4286
 4804TIP3   OH235826   1.350   6.198  14.854 -0.4583 -0.4021 -0.4125
 4804TIP3    H135827   1.306   6.255  14.917 -0.8411 -1.3247  0.1592
 4804TIP3    H235828   1.288   6.127  14.838  0.2850 -1.0076 -0.6160
 4805TIP3   OH235829   3.578   0.919   2.493  0.2824  0.6091 -0.3181
 4805TIP3    H135830   3.533   0.841   2.525  0.5667  1.3648  1.9990
 4805TIP3    H235831   3.508   0.978   2.465 -0.1553  1.2689  2.0782
 4806TIP3   OH235832   0.591   5.273   3.853  0.4572  0.1993 -0.5281
 4806TIP3    H135833   0.558   5.344   3.908 -1.0553 -0.5702 -0.4140
 4806TIP3    H235834   0.569   5.193   3.901  1.9844 -0.3651 -0.7370
 4807TIP3   OH235835   5.881   6.168  17.226 -0.0738 -0.2184  0.0210
 4807TIP3    H135836   5.840   6.103  17.169 -2.6916  0.4040  1.1294
 4807TIP3    H235837   5.971   6.138  17.235 -0.7541 -2.6936 -0.9749
 4808TIP3   OH235838   4.827   6.519  12.402  0.4345  0.4994 -0.3574
 4808TIP3    H135839   4.863   6.575  12.334 -1.6881  0.8038 -1.2802
 4808TIP3    H235840   4.791   6.581  12.467  0.6742  0.2064  0.0580
 4809TIP3   OH235841   4.792   6.538  15.397  0.2733  0.3995 -0.1387
 4809TIP3    H135842   4.839   6.477  15.339 -1.0791 -1.6557  0.8677
 4809TIP3    H235843   4.758   6.605  15.339 -2.9179 -2.7775 -2.1199
 4810TIP3   OH235844   4.656   1.280  12.409 -1.0922  0.2737  0.0952
 4810TIP3    H135845   4.742   1.321  12.399 -1.6697  0.9382 -2.5745
 4810TIP3    H235846   4.641   1.277  12.503  2.5444 -1.3209  0.6884
 4811TIP3   OH235847   2.694   5.086  14.292  0.9717  0.2805  0.3612
 4811TIP3    H135848   2.728   5.157  14.238 -1.4203  1.9255  0.9727
 4811TIP3    H235849   2.599   5.097  14.291  0.6593 -1.8484  1.9157
 4812TIP3   OH235850   0.632   2.388  14.977 -0.4406 -0.0195  0.2025
 4812TIP3    H135851   0.711   2.377  15.030 -0.1173  0.9976 -0.0565
 4812TIP3    H235852   0.581   2.454  15.024 -1.7104 -1.5752  1.0227
 4813TIP3   OH235853   1.112   5.228   5.318 -0.4049  0.5026  0.2457
 4813TIP3    H135854   1.145   5.207   5.230 -1.4613 -0.4677  0.0635
 4813TIP3    H235855   1.037   5.169   5.329  1.0360 -0.9380  2.6702
 4814TIP3   OH235856   1.790   5.174   0.599  0.0008  0.8665  0.0252
 4814TIP3    H135857   1.746   5.160   0.683 -0.4279  1.6365 -0.0683
 4814TIP3    H235858   1.883   5.179   0.622  0.0094 -0.2862  0.2797
 4815TIP3   OH235859   2.233   3.764  17.042  0.8601  0.2273  0.5740
 4815TIP3    H135860   2.194   3.681  17.015  1.3112 -0.2943  1.4888
 4815TIP3    H235861   2.272   3.800  16.962  0.6941 -0.4625  0.1841
 4816TIP3   OH235862   0.574   5.271  16.738  0.0059  0.0032  0.2795
 4816TIP3    H135863   0.642   5.326  16.776 -0.2083  1.1071 -0.9086
 4816TIP3    H235864   0.526   5.236  16.813  0.5340  0.9382  1.0503
 4817TIP3   OH235865   5.294   2.657   3.002 -0.2452 -0.1573 -0.1493
 4817TIP3    H135866   5.284   2.594   3.073 -0.5425  1.7679  1.5587
 4817TIP3    H235867   5.209   2.701   2.997 -0.3039 -0.4318 -1.8606
 4818TIP3   OH235868   3.887   3.450  13.986 -0.4784 -0.0636  0.5089
 4818TIP3    H135869   3.842   3.456  14.070 -1.6615 -0.0302 -0.1146
 4818TIP3    H235870   3.895   3.540  13.956  1.6142  0.0772  1.4423
 4819TIP3   OH235871   3.103   5.487  16.809  0.4765 -0.2861 -0.3090
 4819TIP3    H135872   3.186   5.529  16.833 -0.6778  1.4426  0.6854
 4819TIP3    H235873   3.129   5.416  16.750  2.6058  0.6897 -0.5861
 4820TIP3   OH235874   4.937   2.494   4.665 -0.2096 -0.6736 -0.3596
 4820TIP3    H135875   4.991   2.511   4.743 -0.5659 -1.5489  0.0884
 4820TIP3    H235876   4.851   2.474   4.701 -0.8542  0.7730 -1.0804
 4821TIP3   OH235877   0.528   0.939  10.523  0.3209 -0.3391  0.0024
 4821TIP3    H135878   0.499   0.848  10.528 -0.1838 -0.1588  0.4823
 4821TIP3    H235879   0.604   0.943  10.580  0.0092 -0.3391  0.4239
 4822TIP3   OH235880   0.297   2.606  15.169  0.2129 -0.2113  0.7740
 4822TIP3    H135881   0.350   2.546  15.221 -1.5076 -1.0477  1.6035
 4822TIP3    H235882   0.225   2.631  15.226 -1.2156 -0.4248 -0.8775
 4823TIP3   OH235883   0.544   2.258  14.240  0.1455 -0.2427 -0.0210
 4823TIP3    H135884   0.464   2.283  14.286  0.4451 -0.0181  0.3753
 4823TIP3    H235885   0.527   2.279  14.148 -0.9816 -1.9851 -0.2339
 4824TIP3   OH235886   0.032   3.239  13.657  1.0330  0.4817  0.5441
 4824TIP3    H135887   0.116   3.197  13.640  0.4622 -0.0604 -1.0252
 4824TIP3    H235888   0.006   3.275  13.572 -1.5023 -1.5468  0.4029
 4825TIP3   OH235889   2.819   4.828   5.973 -0.5215 -0.2929 -0.4514
 4825TIP3    H135890   2.857   4.814   6.060  1.0373 -0.6144 -1.1799
 4825TIP3    H235891   2.792   4.740   5.944 -2.3498  0.0015  0.2858
 4826TIP3   OH235892   5.171   3.939   1.778 -0.6577  0.9278 -0.6644
 4826TIP3    H135893   5.254   3.987   1.782 -0.0831 -0.0046 -1.3236
 4826TIP3    H235894   5.138   3.955   1.689  0.0777 -0.7794 -1.2609
 4827TIP3   OH235895   1.741   2.314  11.419  0.0630 -0.6084  0.2534
 4827TIP3    H135896   1.804   2.366  11.369 -0.1274  1.5789  2.2089
 4827TIP3    H235897   1.793   2.241  11.454  0.8061 -0.5740 -0.7466
 4828TIP3   OH235898   4.423   1.472  10.897 -0.3462  0.6423  0.3097
 4828TIP3    H135899   4.351   1.413  10.874 -0.8389 -0.1948  3.7502
 4828TIP3    H235900   4.386   1.559  10.884 -0.0352  0.3027 -3.5383
 4829TIP3   OH235901   3.203   2.024  15.340 -0.1354 -0.0160  0.6485
 4829TIP3    H135902   3.275   2.019  15.276  0.9524 -2.6339  2.0065
 4829TIP3    H235903   3.247   2.023  15.425 -1.7437 -0.7310  1.4780
 4830TIP3   OH235904   2.798   6.670   3.328  0.1944  0.2019  0.2558
 4830TIP3    H135905   2.870   6.641   3.385 -0.7201  0.2645  1.4766
 4830TIP3    H235906   2.755   6.590   3.300 -0.9589  0.2461  1.8105
 4831TIP3   OH235907   2.133   3.872   4.215  0.4111 -0.1636 -0.1691
 4831TIP3    H135908   2.205   3.820   4.179 -1.2667 -1.3400 -1.9467
 4831TIP3    H235909   2.091   3.814   4.278  0.1740 -0.0059 -0.1838
 4832TIP3   OH235910   4.117   5.137   2.468  0.8892 -0.7204 -0.1515
 4832TIP3    H135911   4.104   5.049   2.503 -0.5643 -1.4135 -2.3357
 4832TIP3    H235912   4.188   5.128   2.405  0.6525 -0.3729 -0.4720
 4833TIP3   OH235913   3.124   1.308   3.694 -0.7667 -0.5282 -0.0085
 4833TIP3    H135914   3.194   1.335   3.753 -1.5036  0.1753  0.5590
 4833TIP3    H235915   3.086   1.230   3.734 -1.0525 -0.2412  0.2871
 4834TIP3   OH235916   4.289   0.632   6.438  0.3468 -0.0696 -0.0430
 4834TIP3    H135917   4.194   0.632   6.451  0.3318 -1.0135 -0.1118
 4834TIP3    H235918   4.324   0.669   6.519 -0.0839  0.3713 -0.0552
 4835TIP3   OH235919   0.129   4.110   1.457 -0.0006 -0.0339  0.0735
 4835TIP3    H135920   0.083   4.186   1.421 -0.4491 -0.7317 -0.8652
 4835TIP3    H235921   0.215   4.113   1.416 -0.7397 -1.2091 -1.6443
 4836TIP3   OH235922   1.613   6.465   3.496 -0.1723  0.0029 -0.2803
 4836TIP3    H135923   1.532   6.436   3.538  1.8082  0.2192  4.0519
 4836TIP3    H235924   1.665   6.385   3.487  0.2058  0.2690 -0.4849
 4837TIP3   OH235925   5.645   4.073  16.376  0.7744 -0.0586  0.8021
 4837TIP3    H135926   5.617   4.164  16.367  0.2998 -0.5323 -3.0895
 4837TIP3    H235927   5.564   4.024  16.393  0.5695 -0.1630 -0.4470
 4838TIP3   OH235928   0.308   1.798   1.408  0.6937  0.3287  0.1986
 4838TIP3    H135929   0.218   1.830   1.408 -0.0228 -1.5830  0.8600
 4838TIP3    H235930   0.318   1.754   1.493  1.1014 -2.5139 -1.2662
 4839TIP3   OH235931   1.347   3.048  11.750  1.0807  0.5975 -0.5428
 4839TIP3    H135932   1.372   2.967  11.795  0.7902  0.8881  0.1552
 4839TIP3    H235933   1.273   3.023  11.695  0.2292  0.6463  0.5814
 4840TIP3   OH235934   3.848   5.759   1.321 -0.1368 -0.9321 -0.0152
 4840TIP3    H135935   3.878   5.749   1.411 -1.5278 -1.4100  0.4124
 4840TIP3    H235936   3.904   5.701   1.271  0.1195 -1.2796  0.6669
 4841TIP3   OH235937   4.547   0.525  12.160 -0.2942 -0.2203  0.4045
 4841TIP3    H135938   4.486   0.456  12.189  0.5756 -1.2151 -0.1140
 4841TIP3    H235939   4.536   0.528  12.065  0.1401 -0.0839  0.3602
 4842TIP3   OH235940   2.969   0.699  12.019 -0.1004 -0.7898 -0.7605
 4842TIP3    H135941   2.909   0.630  12.047 -0.4828 -0.0662  0.2184
 4842TIP3    H235942   2.958   0.702  11.924 -1.2338 -1.0272 -0.6519
 4843TIP3   OH235943   6.717   0.422   3.164  0.1403  0.1507  0.1333
 4843TIP3    H135944   6.649   0.372   3.119 -0.4905  0.1543  1.0658
 4843TIP3    H235945   6.759   0.472   3.095 -1.9641  1.4750 -0.2484
 4844TIP3   OH235946   1.115   6.241   3.842  0.0389 -0.1782 -0.3851
 4844TIP3    H135947   1.040   6.248   3.783  0.2428 -0.0912 -0.6392
 4844TIP3    H235948   1.099   6.161   3.892 -0.1457 -0.2434 -0.5468
 4845TIP3   OH235949   1.160   2.707  12.860  0.3199  0.2793  0.0224
 4845TIP3    H135950   1.177   2.615  12.839 -0.1390 -0.0620  1.1055
 4845TIP3    H235951   1.109   2.704  12.940  1.2659  1.5278  0.6862
 4846TIP3   OH235952   5.594   4.577   4.433  0.3775 -0.4404  0.3877
 4846TIP3    H135953   5.580   4.642   4.502  1.2788  0.3160 -0.1203
 4846TIP3    H235954   5.588   4.628   4.352 -0.3842 -1.2714 -0.0818
 4847TIP3   OH235955   0.889   0.369   3.670 -0.4490 -0.1989 -0.3933
 4847TIP3    H135956   0.821   0.342   3.732 -0.4499 -0.3137 -0.4436
 4847TIP3    H235957   0.905   0.461   3.690  0.7225 -0.6544  0.8867
 4848TIP3   OH235958   6.684   3.879   4.886  0.2174 -0.0201 -0.1848
 4848TIP3    H135959   6.641   3.858   4.968  2.7015 -1.2741  0.8644
 4848TIP3    H235960   6.721   3.967   4.900  0.1212  0.0203 -0.1843
 4849TIP3   OH235961   5.214   1.141  12.125  0.3111  0.2319  0.0386
 4849TIP3    H135962   5.246   1.196  12.196 -0.2239 -1.0621  1.3000
 4849TIP3    H235963   5.129   1.108  12.156 -0.3704  0.3875 -1.5828
 4850TIP3   OH235964   4.521   5.696   0.382 -0.2005  0.4830 -0.5774
 4850TIP3    H135965   4.594   5.683   0.443 -0.2366  2.3729 -0.0995
 4850TIP3    H235966   4.443   5.682   0.435 -0.2086  0.7886 -0.5047
 4851TIP3   OH235967   3.001   2.342  15.121 -0.0672 -0.2216 -0.1308
 4851TIP3    H135968   2.934   2.399  15.082  0.0374  0.7185  1.0274
 4851TIP3    H235969   3.068   2.336  15.053 -1.6071 -1.7368 -1.5772
 4852TIP3   OH235970   6.512   5.579   1.363  0.1363  0.0436  0.2411
 4852TIP3    H135971   6.447   5.510   1.361 -1.9162  1.9437 -0.6754
 4852TIP3    H235972   6.513   5.608   1.454 -1.3877  0.9796 -0.0237
 4853TIP3   OH235973   1.057   0.985  11.378 -0.0716  0.3246 -0.4787
 4853TIP3    H135974   1.044   0.914  11.314 -2.6088  0.9316 -0.6990
 4853TIP3    H235975   1.063   0.940  11.462 -3.1561 -0.1288 -0.4369
 4854TIP3   OH235976   4.341   1.815  16.767 -0.2854  0.0343 -0.1206
 4854TIP3    H135977   4.412   1.879  16.762  0.7310 -1.1515 -1.3655
 4854TIP3    H235978   4.382   1.736  16.802 -1.2808 -0.2632  0.3931
 4855TIP3   OH235979   1.338   1.106   0.212 -0.3950 -0.1096 -0.4693
 4855TIP3    H135980   1.290   1.163   0.272 -0.0351  0.9520 -1.1666
 4855TIP3    H235981   1.346   1.023   0.259  0.6991  0.9715  1.3553
 4856TIP3   OH235982   3.043   0.613   6.067 -0.8582 -0.3079 -0.2310
 4856TIP3    H135983   3.101   0.684   6.093 -1.3281  0.8851 -2.3437
 4856TIP3    H235984   2.999   0.645   5.988 -1.9567 -2.4709 -0.5424
 4857TIP3   OH235985   0.725   5.369   0.111 -0.0878  0.2481 -0.1732
 4857TIP3    H135986   0.662   5.354   0.182  0.6105 -1.5787  0.0890
 4857TIP3    H235987   0.681   5.432   0.053 -1.3882  0.4139  0.9608
 4858TIP3   OH235988   4.402   3.464  12.021 -0.0230 -0.4525  0.2370
 4858TIP3    H135989   4.459   3.514  12.080  0.6679 -3.4523  2.1816
 4858TIP3    H235990   4.443   3.474  11.935  0.7162  1.3648  0.7626
 4859TIP3   OH235991   3.818   3.437   1.951  0.1588 -0.2264  0.2584
 4859TIP3    H135992   3.808   3.367   2.015 -0.7245  0.3983  0.8113
 4859TIP3    H235993   3.733   3.481   1.949  0.9500  1.3634  0.5377
 4860TIP3   OH235994   2.100   4.715   0.349  0.2378  0.0574 -0.3129
 4860TIP3    H135995   2.122   4.806   0.370  0.2733 -0.3460  1.4489
 4860TIP3    H235996   2.008   4.707   0.374 -0.0378 -0.1369 -1.3699
 4861TIP3   OH235997   4.078   0.380  10.906  0.3623  0.9980 -0.0265
 4861TIP3    H135998   4.045   0.460  10.947 -0.9912  0.0906  0.6896
 4861TIP3    H235999   4.015   0.312  10.932  2.3231 -0.6070  0.6497
 4862TIP3   OH236000   4.972   4.940   6.737  0.4270 -0.1205  0.3566
 4862TIP3    H136001   4.979   4.851   6.772  0.2722  0.0470  0.8291
 4862TIP3    H236002   4.903   4.980   6.790  1.3073  0.6495  0.9369
 4863TIP3   OH236003   2.409   6.186   5.760  0.0062  0.2673  0.1714
 4863TIP3    H136004   2.323   6.154   5.730  0.2323 -0.1982  0.0177
 4863TIP3    H236005   2.390   6.271   5.800 -0.4999  0.2581 -0.0423
 4864TIP3   OH236006   6.489   2.416  10.749  0.2420  0.2336 -0.0857
 4864TIP3    H136007   6.403   2.450  10.725  0.2199  2.5825  2.9961
 4864TIP3    H236008   6.550   2.483  10.718  0.7001  0.0532  0.4296
 4865TIP3   OH236009   5.141   4.506   6.652 -0.0620  0.5631  0.0053
 4865TIP3    H136010   5.226   4.464   6.659 -0.3770 -0.0359  0.2709
 4865TIP3    H236011   5.161   4.599   6.638  0.6382  0.2826 -0.9259
 4866TIP3   OH236012   6.125   2.934  12.043  0.3952 -0.6740  0.1837
 4866TIP3    H136013   6.055   2.884  12.086 -2.0692  2.2683 -0.2722
 4866TIP3    H236014   6.145   3.005  12.104 -1.5475  2.2200 -2.3999
 4867TIP3   OH236015   4.142   1.531   2.072 -0.1482  0.0795 -0.1655
 4867TIP3    H136016   4.203   1.549   2.143  1.0863 -0.4387 -1.0746
 4867TIP3    H236017   4.060   1.573   2.099 -0.2621 -1.7217  2.4164
 4868TIP3   OH236018   6.277   6.099   3.184 -0.0334  0.3669 -0.0733
 4868TIP3    H136019   6.202   6.125   3.237  0.4987  1.5230  0.1352
 4868TIP3    H236020   6.257   6.130   3.096 -0.7941 -1.3104 -0.5198
 4869TIP3   OH236021   6.145   4.996   0.491 -0.2225 -0.1127 -0.6914
 4869TIP3    H136022   6.059   4.986   0.532 -1.1596  0.9287 -2.3360
 4869TIP3    H236023   6.195   5.050   0.553 -2.1232  2.7297 -1.5517
 4870TIP3   OH236024   3.514   5.755   2.289 -0.0070 -0.2509 -0.0156
 4870TIP3    H136025   3.595   5.786   2.249  0.5476 -1.1220  0.4184
 4870TIP3    H236026   3.533   5.750   2.383 -1.4351  2.1963  0.4309
 4871TIP3   OH236027   5.987   0.054  15.400 -0.0258 -0.0199  0.7069
 4871TIP3    H136028   5.896   0.077  15.419 -0.3890 -0.1214 -0.8596
 4871TIP3    H236029   6.030   0.138  15.385  1.3317  0.4648  6.2380
 4872TIP3   OH236030   3.889   1.676   6.572  0.2658 -0.0373 -0.5119
 4872TIP3    H136031   3.982   1.689   6.591  0.5785 -0.6725 -1.5518
 4872TIP3    H236032   3.855   1.764   6.556  0.7273  0.1813 -0.3030
 4873TIP3   OH236033   1.538   0.526   1.900 -0.3072  0.2835 -0.4215
 4873TIP3    H136034   1.451   0.487   1.900 -0.5867  0.9010 -1.1724
 4873TIP3    H236035   1.544   0.573   1.984 -0.5572 -0.0410 -0.2210
 4874TIP3   OH236036   0.187   4.285  16.436  0.2795  0.1800 -0.1251
 4874TIP3    H136037   0.182   4.364  16.491  0.3275 -0.3491  0.6458
 4874TIP3    H236038   0.178   4.318  16.347  0.1071  1.0436  0.2035
 4875TIP3   OH236039   6.400   5.511  16.964  0.7326  0.1131  0.5465
 4875TIP3    H136040   6.409   5.516  16.869  0.5894 -1.0303  0.4699
 4875TIP3    H236041   6.308   5.531  16.980  0.9420  1.1350  0.5141
 4876TIP3   OH236042   2.255   6.210   0.978 -0.0521  0.3409 -0.4690
 4876TIP3    H136043   2.311   6.191   1.054 -0.1174 -1.1316 -0.7747
 4876TIP3    H236044   2.276   6.141   0.915 -0.8356  0.8877 -1.3395
 4877TIP3   OH236045   6.521   3.280   0.067 -0.0050  0.2831  0.0485
 4877TIP3    H136046   6.581   3.333   0.013  1.8176 -0.6792  1.0850
 4877TIP3    H236047   6.538   3.308   0.156 -0.0053 -1.0949  0.4870
 4878TIP3   OH236048   4.416   2.111   3.964 -0.0719 -0.1070  0.5616
 4878TIP3    H136049   4.390   2.189   4.013  0.5732  1.1849 -1.1347
 4878TIP3    H236050   4.334   2.075   3.931 -0.1562  1.2518 -0.7339
 4879TIP3   OH236051   0.460   2.897   1.142  0.1535  0.7234  0.1560
 4879TIP3    H136052   0.541   2.879   1.095 -0.6712 -0.5601 -0.8373
 4879TIP3    H236053   0.461   2.836   1.216 -0.0863  0.4202 -0.0884
 4880TIP3   OH236054   4.296   3.405   2.640 -0.1281 -0.3480 -0.3030
 4880TIP3    H136055   4.207   3.409   2.674  0.3992 -1.5572  1.2654
 4880TIP3    H236056   4.344   3.469   2.691  0.1992 -0.6499 -0.2318
 4881TIP3   OH236057   4.279   4.071  15.377 -0.0344  0.3727 -0.0586
 4881TIP3    H136058   4.345   4.106  15.436 -0.4747  0.5902  0.3033
 4881TIP3    H236059   4.295   4.117  15.294  0.1190  0.5908  0.0905
 4882TIP3   OH236060   5.916   5.941  11.149 -0.6425  0.9012  0.4551
 4882TIP3    H136061   5.946   6.021  11.105 -1.3664  0.9859  0.1044
 4882TIP3    H236062   5.994   5.885  11.154 -0.5285  0.9374 -0.8474
 4883TIP3   OH236063   3.000   4.726  14.131 -0.2145  0.3990  0.3647
 4883TIP3    H136064   2.942   4.791  14.092 -0.0066  1.2416  1.4305
 4883TIP3    H236065   3.066   4.778  14.179  1.6887 -0.5090 -1.1878
 4884TIP3   OH236066   2.665   1.395   2.268  0.2197  0.8740  0.0421
 4884TIP3    H136067   2.588   1.363   2.314  0.0881  1.7967  0.4852
 4884TIP3    H236068   2.724   1.425   2.337  0.9910  0.1358 -0.2931
 4885TIP3   OH236069   4.766   5.145  16.202 -0.0123 -0.4608  0.6692
 4885TIP3    H136070   4.841   5.166  16.146  0.3820 -0.4788  1.1784
 4885TIP3    H236071   4.699   5.209  16.177 -0.2784 -1.2673 -0.6814
 4886TIP3   OH236072   5.710   3.897   6.884 -0.0894  0.1649 -0.4174
 4886TIP3    H136073   5.646   3.968   6.889  1.0988  1.0700  2.6086
 4886TIP3    H236074   5.793   3.941   6.865  0.2475 -0.6743 -0.9035
 4887TIP3   OH236075   5.287   0.185   0.970 -0.2088  0.1731 -0.1793
 4887TIP3    H136076   5.197   0.196   0.941 -0.2251  1.5282  0.3766
 4887TIP3    H236077   5.280   0.166   1.064 -0.0196 -1.8055 -0.5356
 4888TIP3   OH236078   4.685   1.736  16.860 -0.7199 -0.2087  0.2979
 4888TIP3    H136079   4.745   1.676  16.816 -1.2330  0.0371 -0.7794
 4888TIP3    H236080   4.629   1.769  16.789 -1.8305 -0.1029  1.2059
 4889TIP3   OH236081   4.339   1.726  10.809  0.3468  0.0469 -0.2492
 4889TIP3    H136082   4.301   1.663  10.747 -3.2703  0.3648  1.5179
 4889TIP3    H236083   4.318   1.812  10.772  0.9035  0.2474 -0.1130
 4890TIP3   OH236084   1.255   3.333   3.192  0.6532  0.8754 -0.2908
 4890TIP3    H136085   1.260   3.392   3.267  2.6788 -1.1782  1.2648
 4890TIP3    H236086   1.294   3.382   3.119 -0.5497  2.5719  0.1915
 4891TIP3   OH236087   6.609   5.002   1.112  0.0163 -0.7146 -0.2351
 4891TIP3    H136088   6.561   5.031   1.034 -1.9989 -3.3306 -0.0190
 4891TIP3    H236089   6.541   4.969   1.171  1.7652 -1.0666  1.6376
 4892TIP3   OH236090   4.676   3.052   0.643 -0.4177  0.3592  0.9743
 4892TIP3    H136091   4.745   3.117   0.630 -1.2577  1.5283  2.1904
 4892TIP3    H236092   4.701   3.006   0.722  0.2265 -0.8963  0.0602
 4893TIP3   OH236093   3.624   4.934   4.843  0.4495  0.1783 -0.1057
 4893TIP3    H136094   3.554   4.972   4.789  0.4891  0.0347 -0.2589
 4893TIP3    H236095   3.679   5.009   4.866  0.4460  0.2377 -0.2841
 4894TIP3   OH236096   1.154   4.563  15.131 -0.0905 -0.1075  0.3078
 4894TIP3    H136097   1.118   4.551  15.219  0.8977  1.3039  0.9211
 4894TIP3    H236098   1.227   4.501  15.126 -0.8112 -0.9474  0.0876
 4895TIP3   OH236099   1.404   3.658  16.068 -0.7157 -0.3956 -0.4707
 4895TIP3    H136100   1.423   3.570  16.103  1.2926 -0.8060 -2.4939
 4895TIP3    H236101   1.469   3.714  16.110 -0.8158 -0.1911 -0.5928
 4896TIP3   OH236102   6.025   2.127  10.926  0.3413 -0.1510  0.7270
 4896TIP3    H136103   6.030   2.174  11.009  2.9808 -1.1502  1.1732
 4896TIP3    H236104   6.078   2.178  10.865 -1.0388  0.2174 -0.1950
 4897TIP3   OH236105   5.712   4.914   0.452 -0.3414  0.2691 -0.2807
 4897TIP3    H136106   5.757   4.857   0.514  0.0156  1.0490  0.1871
 4897TIP3    H236107   5.713   5.000   0.493  0.7042  0.9974 -1.7610
 4898TIP3   OH236108   0.440   3.758  14.073 -0.2380  0.3890 -0.3935
 4898TIP3    H136109   0.519   3.811  14.087 -0.7593  1.2781 -0.7447
 4898TIP3    H236110   0.380   3.787  14.142 -0.5692  0.3297 -0.6586
 4899TIP3   OH236111   3.449   1.192   6.506  0.2543 -0.4661 -0.2699
 4899TIP3    H136112   3.485   1.214   6.420  1.2612 -2.2271 -0.3089
 4899TIP3    H236113   3.487   1.257   6.565 -1.0425  1.2335 -1.2493
 4900TIP3   OH236114   1.177   2.807   5.370  0.7395  0.6925  0.4868
 4900TIP3    H136115   1.153   2.718   5.394 -0.4434  0.4158 -1.5643
 4900TIP3    H236116   1.260   2.796   5.323 -0.3159  0.4106 -1.3781
 4901TIP3   OH236117   1.453   2.936  15.431  0.5400 -0.0697 -0.6215
 4901TIP3    H136118   1.540   2.897  15.439  0.7830  0.6430  0.3518
 4901TIP3    H236119   1.393   2.861  15.434  1.0123 -0.4075  1.0649
 4902TIP3   OH236120   4.996   2.695   2.550  0.2684  0.2575  0.6174
 4902TIP3    H136121   5.001   2.791   2.552 -1.8370  0.5142 -2.8401
 4902TIP3    H236122   5.059   2.669   2.482 -0.2780 -0.6876  0.4662
 4903TIP3   OH236123   2.799   5.693  11.577 -0.3458 -0.2636 -0.5713
 4903TIP3    H136124   2.807   5.733  11.490 -0.2125  0.0451 -0.4190
 4903TIP3    H236125   2.789   5.768  11.636  0.2103 -0.4463 -0.2492
 4904TIP3   OH236126   4.361   4.034  11.064  0.5426 -0.2673  0.0861
 4904TIP3    H136127   4.447   4.061  11.033 -0.0465  1.8752  0.2286
 4904TIP3    H236128   4.299   4.084  11.010 -0.7256 -3.7439 -1.8471
 4905TIP3   OH236129   3.293   2.681   4.123  0.8244 -0.2440 -0.3192
 4905TIP3    H136130   3.238   2.642   4.055  1.6208 -2.4046  0.2349
 4905TIP3    H236131   3.266   2.773   4.127  0.8267 -0.0606 -3.6048
 4906TIP3   OH236132   3.096   3.090   0.581 -0.1342 -0.4263  0.4655
 4906TIP3    H136133   3.046   3.023   0.535  0.5071 -2.0149  2.0166
 4906TIP3    H236134   3.032   3.157   0.603 -0.4206  0.4668 -2.8464
 4907TIP3   OH236135   5.066   5.867   2.329 -0.2180  0.3328  0.2433
 4907TIP3    H136136   5.162   5.870   2.329 -0.1631  0.0826  3.7419
 4907TIP3    H236137   5.039   5.946   2.376 -1.7308  0.0142 -0.0441
 4908TIP3   OH236138   1.137   2.596   1.626  0.1273  0.3574 -0.2440
 4908TIP3    H136139   1.197   2.668   1.608  0.4035 -0.0929 -1.1289
 4908TIP3    H236140   1.147   2.536   1.552 -2.3151  0.8615 -1.0484
 4909TIP3   OH236141   1.924   6.089   1.128 -0.2292  0.9619  0.6384
 4909TIP3    H136142   1.981   6.166   1.135 -0.4671  0.9439  2.9420
 4909TIP3    H236143   1.982   6.014   1.138  0.1114  0.7703 -2.3050
 4910TIP3   OH236144   0.395   1.482  16.940  0.6642 -0.0486  0.1571
 4910TIP3    H136145   0.384   1.469  16.846 -1.5797  1.3389  0.2010
 4910TIP3    H236146   0.489   1.501  16.951  0.8371  0.3444 -1.8773
 4911TIP3   OH236147   0.326   1.720  16.451  0.1445  0.3586  0.1305
 4911TIP3    H136148   0.297   1.771  16.527  0.9792  2.1229 -0.7053
 4911TIP3    H236149   0.402   1.767  16.418 -0.6669  0.0523 -2.2644
 4912TIP3   OH236150   4.261   2.569   1.098 -0.1550  0.0907 -0.2511
 4912TIP3    H136151   4.254   2.660   1.070  1.5463 -0.0895 -1.3547
 4912TIP3    H236152   4.220   2.519   1.027  0.1478 -0.0950 -0.2953
 4913TIP3   OH236153   5.460   3.345   1.192 -0.3112  0.1832 -0.0882
 4913TIP3    H136154   5.537   3.386   1.152  0.4865 -1.3440 -0.1674
 4913TIP3    H236155   5.401   3.418   1.210 -0.5191  0.9954 -3.6553
 4914TIP3   OH236156   4.170   4.343   4.316  0.6610 -0.2643 -0.3378
 4914TIP3    H136157   4.245   4.284   4.320 -0.2043 -1.3337  0.3490
 4914TIP3    H236158   4.105   4.303   4.373 -0.7509  0.2051 -1.5855
 4915TIP3   OH236159   5.536   1.694   5.625  0.3241  0.4166 -0.1823
 4915TIP3    H136160   5.626   1.700   5.594  0.1803 -1.2386 -0.9965
 4915TIP3    H236161   5.541   1.638   5.702 -0.1621 -0.7880 -1.0052
 4916TIP3   OH236162   3.643   5.717   4.393  0.6389 -0.1419 -0.3269
 4916TIP3    H136163   3.624   5.790   4.335 -0.2223 -0.0158  0.1140
 4916TIP3    H236164   3.684   5.652   4.336 -0.3538 -0.0866 -1.1213
 4917TIP3   OH236165   6.322   5.910   2.018 -0.1664  0.7225  0.2812
 4917TIP3    H136166   6.258   5.888   1.951  1.7690 -0.7282 -1.1544
 4917TIP3    H236167   6.313   6.004   2.032 -2.9795  0.4468  0.5408
 4918TIP3   OH236168   0.074   3.661   5.909  0.5997  0.2155 -0.2405
 4918TIP3    H136169   0.097   3.747   5.873  0.0881  0.6522  0.4586
 4918TIP3    H236170   0.015   3.681   5.982  1.2224 -0.6841  0.5120
 4919TIP3   OH236171   6.128   5.552  15.482  0.2977  0.1980 -0.2395
 4919TIP3    H136172   6.094   5.554  15.571 -1.0609 -0.5964 -0.7169
 4919TIP3    H236173   6.121   5.642  15.451  2.0384  0.7379  0.9029
 4920TIP3   OH236174   4.796   3.204  11.549  0.2393  0.2986 -0.3080
 4920TIP3    H136175   4.875   3.238  11.590 -0.2510  1.2746 -0.1398
 4920TIP3    H236176   4.790   3.252  11.466 -0.5319  0.7288 -0.0110
 4921TIP3   OH236177   2.655   3.112  13.401 -0.1953  0.2756 -0.5630
 4921TIP3    H136178   2.712   3.110  13.323 -1.2059 -0.0538 -1.3044
 4921TIP3    H236179   2.707   3.157  13.467  1.5403 -1.3228 -0.7637
 4922TIP3   OH236180   1.938   0.022   0.936 -0.2705  0.3344 -0.2963
 4922TIP3    H136181   1.987  -0.048   0.980 -1.6724 -0.6994 -0.3360
 4922TIP3    H236182   1.973   0.022   0.846 -1.6323 -1.7035 -0.8757
 4923TIP3   OH236183   1.733   5.865  12.742  0.4367 -0.0756  0.4496
 4923TIP3    H136184   1.663   5.803  12.720  1.6102 -2.6662  3.6131
 4923TIP3    H236185   1.734   5.867  12.837  2.0044  3.1120  0.4289
 4924TIP3   OH236186   1.898   4.899  11.237 -0.0099 -0.3210 -0.0095
 4924TIP3    H136187   1.949   4.884  11.157 -0.6238 -0.1655 -0.4370
 4924TIP3    H236188   1.963   4.910  11.306  0.5820  1.5844 -0.8443
 4925TIP3   OH236189   0.371   3.578  12.091  0.3918  0.0014  0.1299
 4925TIP3    H136190   0.351   3.669  12.114 -0.9293 -0.2032 -0.1706
 4925TIP3    H236191   0.353   3.573  11.997 -0.5013 -0.8149  0.3376
 4926TIP3   OH236192   3.536   5.336  13.360 -0.0132 -0.0937 -0.4185
 4926TIP3    H136193   3.584   5.283  13.425  0.2056 -1.0638 -1.3689
 4926TIP3    H236194   3.461   5.283  13.336 -0.3498  0.4712 -0.6240
 4927TIP3   OH236195   2.287   6.696  15.224  0.2897  0.0277 -0.2702
 4927TIP3    H136196   2.352   6.743  15.172 -0.2928  2.1838  0.8788
 4927TIP3    H236197   2.214   6.682  15.164  0.4689  0.6023 -0.6267
 4928TIP3   OH236198   6.159   3.696  13.384  0.6397 -0.3442 -0.1650
 4928TIP3    H136199   6.238   3.644  13.403  1.3747  0.0993 -1.9066
 4928TIP3    H236200   6.191   3.787  13.382 -0.3106  0.0371  1.0875
 4929TIP3   OH236201   2.652   3.193  16.743 -0.0481 -0.0375  0.7031
 4929TIP3    H136202   2.666   3.134  16.817 -2.4108  0.1589  1.3240
 4929TIP3    H236203   2.620   3.275  16.782 -3.7140 -0.7302 -0.6335
 4930TIP3   OH236204   1.420   5.897   0.148 -0.1262 -0.1514 -0.4173
 4930TIP3    H136205   1.462   5.967   0.197 -1.6461  0.7419 -0.3303
 4930TIP3    H236206   1.449   5.911   0.057  3.4738 -2.4082  0.3004
 4931TIP3   OH236207   6.300   4.536   0.875 -0.2200 -0.0090 -0.1542
 4931TIP3    H136208   6.345   4.614   0.844  0.4992 -0.0528  0.7504
 4931TIP3    H236209   6.321   4.469   0.810  1.8176 -0.2693  0.7231
 4932TIP3   OH236210   5.780   3.373   1.559  0.4873  0.8364 -0.9299
 4932TIP3    H136211   5.781   3.431   1.483 -1.4876  1.6305 -0.3826
 4932TIP3    H236212   5.696   3.391   1.601  0.4012 -1.5035 -0.0443
 4933TIP3   OH236213   5.579   4.692  14.336  0.4614 -0.0620 -0.3853
 4933TIP3    H136214   5.599   4.774  14.380  1.3702  0.1603 -1.2120
 4933TIP3    H236215   5.498   4.661  14.379 -0.8880  2.1312 -1.2605
 4934TIP3   OH236216   2.007   0.144  15.095  0.1719 -0.2604  0.1371
 4934TIP3    H136217   1.942   0.095  15.147  0.1230  2.1417  2.4363
 4934TIP3    H236218   1.957   0.179  15.021 -0.5001 -0.9074  0.2747
 4935TIP3   OH236219   3.042   4.295   5.316  0.0784 -0.1750 -0.0656
 4935TIP3    H136220   2.951   4.326   5.322  0.2926  0.8378 -1.7670
 4935TIP3    H236221   3.064   4.302   5.223  1.9379 -0.2979  0.3457
 4936TIP3   OH236222   5.241   0.671   1.399  0.2922  0.0607 -0.9401
 4936TIP3    H136223   5.297   0.594   1.403  0.9600  0.5654 -0.4181
 4936TIP3    H236224   5.176   0.658   1.467  1.0801  0.4738 -0.0971
 4937TIP3   OH236225   0.985   0.139  13.226 -0.1859 -0.7562  0.2270
 4937TIP3    H136226   1.007   0.209  13.164  2.7439 -0.8685  1.0349
 4937TIP3    H236227   0.891   0.126  13.216 -0.3463  1.5658 -1.7429
 4938TIP3   OH236228   3.673   1.691  14.705 -0.0343 -0.0498  0.2012
 4938TIP3    H136229   3.682   1.743  14.784  1.3572 -0.2301  0.1677
 4938TIP3    H236230   3.761   1.661  14.685  0.0367  1.9794 -2.7872
 4939TIP3   OH236231   0.986   1.106   5.407 -0.0337  0.5159 -0.6412
 4939TIP3    H136232   1.063   1.053   5.388 -0.2779 -0.1753  0.2345
 4939TIP3    H236233   0.918   1.069   5.350 -0.0906  0.1706 -0.3516
 4940TIP3   OH236234   5.163   0.273   0.680 -0.4617 -0.0796 -0.3800
 4940TIP3    H136235   5.080   0.227   0.674 -0.4834 -0.3445  1.7235
 4940TIP3    H236236   5.151   0.336   0.751  0.7820  0.6187 -0.7665
 4941TIP3   OH236237   2.781   3.086   0.534  0.3761 -0.1108 -0.1152
 4941TIP3    H136238   2.710   3.035   0.495  0.1061  0.9272 -1.0043
 4941TIP3    H236239   2.738   3.162   0.572  1.1941  1.6518 -2.5708
 4942TIP3   OH236240   1.450   1.023  15.343  0.0308 -0.3365 -0.3299
 4942TIP3    H136241   1.435   1.040  15.436 -0.3539 -0.1319 -0.4320
 4942TIP3    H236242   1.441   0.928  15.335  1.9982 -0.5804  0.2002
 4943TIP3   OH236243   1.410   1.425   0.443 -0.2449  0.1792 -0.0241
 4943TIP3    H136244   1.369   1.344   0.474  4.0569 -2.4879 -0.8189
 4943TIP3    H236245   1.427   1.408   0.350  0.0532  2.2861 -0.3620
 4944TIP3   OH236246   6.294   4.207  13.491  0.0933  0.6077  0.4368
 4944TIP3    H136247   6.365   4.268  13.511 -1.2672  2.2806  0.2787
 4944TIP3    H236248   6.246   4.198  13.573 -0.6669  1.0538  0.0518
 4945TIP3   OH236249   2.939   3.411  15.978 -0.9165  0.0792  0.0494
 4945TIP3    H136250   2.861   3.466  15.983  0.5109  2.3279 -1.3350
 4945TIP3    H236251   2.956   3.385  16.068 -2.0532  1.3282  0.6415
 4946TIP3   OH236252   3.202   0.735   2.583  0.5497 -0.2774 -0.0876
 4946TIP3    H136253   3.297   0.730   2.596  0.6537  0.5694 -0.4804
 4946TIP3    H236254   3.169   0.773   2.664  0.3362 -2.2462  0.7780
 4947TIP3   OH236255   0.753   5.706   1.622 -0.3098 -0.0983  0.4870
 4947TIP3    H136256   0.831   5.711   1.677  0.6934  0.7660 -0.9823
 4947TIP3    H236257   0.765   5.625   1.571  0.5538  0.9628 -1.0551
 4948TIP3   OH236258   3.705   2.299  15.614  0.3474 -0.0062 -0.0634
 4948TIP3    H136259   3.647   2.320  15.541  1.4156  0.2727 -0.8455
 4948TIP3    H236260   3.753   2.221  15.586 -0.0019 -0.5235  0.7765
 4949TIP3   OH236261   0.133   4.131   2.341 -0.6198  0.4362 -0.4730
 4949TIP3    H136262   0.174   4.200   2.289 -0.7999  1.2214  0.4112
 4949TIP3    H236263   0.175   4.138   2.427 -1.9012  0.6088  0.1525
 4950TIP3   OH236264   5.901   0.584   2.711  0.6712  0.3924  0.3464
 4950TIP3    H136265   5.826   0.533   2.679  0.4250  1.0386 -0.0997
 4950TIP3    H236266   5.954   0.520   2.759  1.0569 -0.5956 -1.3387
 4951TIP3   OH236267   1.053   0.541  12.678  0.4633 -1.2788  0.0470
 4951TIP3    H136268   1.022   0.467  12.731 -0.7383 -0.4314  0.5568
 4951TIP3    H236269   0.979   0.564  12.623  1.0653 -0.8997 -0.6129
 4952TIP3   OH236270   5.956   2.127   0.559 -0.0360 -0.6656  0.5119
 4952TIP3    H136271   6.009   2.188   0.611 -0.3404 -1.0210  1.2457
 4952TIP3    H236272   5.873   2.172   0.545 -0.0610 -0.6874  0.5899
 4953TIP3   OH236273   6.635   2.526   5.709  0.1373  0.0508  0.4946
 4953TIP3    H136274   6.652   2.584   5.635  0.0532  0.3590  0.7169
 4953TIP3    H236275   6.562   2.566   5.755  0.7882  0.3540  1.2728
 4954TIP3   OH236276   3.701   3.469   0.177  0.1673  0.4476 -0.3624
 4954TIP3    H136277   3.727   3.426   0.095 -2.2383  2.9359 -2.5293
 4954TIP3    H236278   3.619   3.425   0.201 -0.1561  1.0513 -0.3667
 4955TIP3   OH236279   5.145   1.266   3.791 -0.5543 -0.2518  0.1340
 4955TIP3    H136280   5.193   1.303   3.864  1.2469  0.6586 -1.4813
 4955TIP3    H236281   5.138   1.337   3.728 -0.2097 -1.6109 -1.4698
 4956TIP3   OH236282   1.584   1.072   4.408  0.3695  0.0983  0.1129
 4956TIP3    H136283   1.657   1.122   4.372  0.3667 -1.0051 -1.4507
 4956TIP3    H236284   1.598   1.074   4.503  2.3178  0.0488 -0.1622
 4957TIP3   OH236285   3.258   1.055  12.759 -0.3565 -0.1664 -0.2491
 4957TIP3    H136286   3.237   1.033  12.668  1.3105 -0.1055 -0.6599
 4957TIP3    H236287   3.275   1.149  12.758 -0.0091 -0.2243  0.0535
 4958TIP3   OH236288   0.416   3.064  12.195 -0.2237  0.5054 -0.1752
 4958TIP3    H136289   0.349   2.996  12.206 -1.1371  1.4319  0.0504
 4958TIP3    H236290   0.383   3.120  12.126  0.7456  0.4867 -0.6674
 4959TIP3   OH236291   4.660   1.818   0.471  0.2008 -0.0568 -0.2597
 4959TIP3    H136292   4.663   1.723   0.481  1.5862  0.1718  1.8291
 4959TIP3    H236293   4.571   1.837   0.441 -0.5349 -1.8947  0.7301
 4960TIP3   OH236294   0.068   0.015  10.788  0.1379 -0.4871 -0.3437
 4960TIP3    H136295  -0.005  -0.009  10.731 -0.6866 -0.4261  0.6607
 4960TIP3    H236296   0.087   0.106  10.765 -0.1846 -0.4629 -0.5187
 4961TIP3   OH236297   4.330   2.086  16.242 -0.6731  0.0350 -0.3702
 4961TIP3    H136298   4.316   2.179  16.225  0.0274 -0.0893 -1.6878
 4961TIP3    H236299   4.347   2.048  16.156  4.0841 -0.4453  0.6421
 4962TIP3   OH236300   0.633   3.794   2.455 -0.2183 -0.4603 -0.4066
 4962TIP3    H136301   0.679   3.845   2.389 -0.4726  1.2680  0.7390
 4962TIP3    H236302   0.545   3.781   2.418 -0.4046  0.6241 -0.3548
 4963TIP3   OH236303   3.248   0.097   2.015 -0.6681 -0.0943  0.1805
 4963TIP3    H136304   3.156   0.071   2.020 -0.5500 -0.4231  0.6939
 4963TIP3    H236305   3.263   0.148   2.095 -0.7492  1.0870 -0.5445
 4964TIP3   OH236306   4.352   6.590  10.641 -0.6312 -0.1178  0.0186
 4964TIP3    H136307   4.288   6.650  10.601 -1.1841 -0.7904 -0.1234
 4964TIP3    H236308   4.415   6.648  10.683 -1.0398  0.5731 -0.2923
 4965TIP3   OH236309   0.659   2.810   2.389  0.2256 -0.2890  0.0040
 4965TIP3    H136310   0.711   2.798   2.469 -1.6091 -2.5108  0.9321
 4965TIP3    H236311   0.627   2.900   2.393  2.3438  0.4537  0.4141
 4966TIP3   OH236312   0.012   3.480   1.903 -0.1154  0.1897 -0.8216
 4966TIP3    H136313  -0.055   3.548   1.892  0.4666  1.0677  0.9139
 4966TIP3    H236314  -0.033   3.399   1.880 -1.5960  0.8391 -0.3061
 4967TIP3   OH236315   4.018   4.874  11.767 -0.3580 -0.3882 -0.2900
 4967TIP3    H136316   4.108   4.900  11.750 -0.9165  1.8054  0.0511
 4967TIP3    H236317   4.026   4.800  11.827  1.2124 -0.1666 -0.2063
 4968TIP3   OH236318   6.706   2.553   0.787 -0.8126 -0.3289 -0.5339
 4968TIP3    H136319   6.673   2.604   0.713  1.3065  2.8979  0.6300
 4968TIP3    H236320   6.801   2.550   0.774 -0.3531  0.7071  2.2578
 4969TIP3   OH236321   6.087   3.603   0.913  0.2709 -0.0255 -0.1029
 4969TIP3    H136322   6.135   3.602   0.996 -2.2431 -0.0209  1.4014
 4969TIP3    H236323   6.113   3.522   0.870 -0.1715 -1.2121  1.7792
 4970TIP3   OH236324   3.523   3.212   4.624 -0.0155 -0.0068  0.6085
 4970TIP3    H136325   3.492   3.284   4.679 -2.4791 -0.0373 -0.6720
 4970TIP3    H236326   3.618   3.222   4.622 -0.2742  2.8312  0.9562
 4971TIP3   OH236327   0.600   3.931   3.026  0.1069  0.4428  0.2023
 4971TIP3    H136328   0.655   3.959   2.953 -0.5893 -0.4675 -0.6967
 4971TIP3    H236329   0.511   3.952   2.998 -0.2658 -0.9435  0.2857
 4972TIP3   OH236330   6.431   5.054  13.480  0.5228  0.2501 -0.1272
 4972TIP3    H136331   6.425   4.961  13.456 -1.0761 -0.5038  2.8351
 4972TIP3    H236332   6.344   5.089  13.458  0.7254  0.7435 -0.1269
 4973TIP3   OH236333   5.464   5.849  16.511 -0.0352 -0.0129  0.1238
 4973TIP3    H136334   5.446   5.882  16.599 -0.3695  1.3221 -0.4323
 4973TIP3    H236335   5.558   5.832  16.511 -0.2081 -1.0315  1.0653
 4974TIP3   OH236336   2.167   0.816   0.867 -0.0283  0.1603  0.1654
 4974TIP3    H136337   2.206   0.855   0.789 -0.6310  0.4982  0.0282
 4974TIP3    H236338   2.202   0.868   0.940  1.3168 -0.7866  0.2067
 4975TIP3   OH236339   1.340   4.247  16.105  0.0663  0.3939 -0.0891
 4975TIP3    H136340   1.327   4.340  16.124  0.8796  0.7327 -1.1068
 4975TIP3    H236341   1.415   4.246  16.046  0.0487 -0.9140 -0.0891
 4976TIP3   OH236342   6.628   6.109  12.410 -0.1244 -0.1254 -0.9022
 4976TIP3    H136343   6.541   6.099  12.371  1.4517  0.6883 -4.8765
 4976TIP3    H236344   6.620   6.187  12.466 -2.0132 -0.2342 -0.9727
 4977TIP3   OH236345   6.640   1.075  15.355  0.1774 -0.3178  0.1136
 4977TIP3    H136346   6.546   1.087  15.340  0.0896 -1.3361 -0.2056
 4977TIP3    H236347   6.683   1.119  15.282  0.0011  1.3219  0.9749
 4978TIP3   OH236348   1.318   2.630  15.816  0.0168 -0.3057  0.3015
 4978TIP3    H136349   1.316   2.617  15.911  1.5592 -0.5915  0.3233
 4978TIP3    H236350   1.377   2.705  15.803 -0.5001 -0.0200 -0.4021
 4979TIP3   OH236351   0.002   3.696  12.246 -0.5221 -0.1878 -0.5915
 4979TIP3    H136352  -0.063   3.745  12.297 -0.8478  0.4523 -1.6115
 4979TIP3    H236353   0.074   3.681  12.308 -0.4736  1.4690 -0.2069
 4980TIP3   OH236354   1.313   2.289  11.528 -0.1378  0.2826 -0.6346
 4980TIP3    H136355   1.255   2.266  11.455 -2.3076 -1.4473  1.5634
 4980TIP3    H236356   1.260   2.272  11.606  2.6197  0.7782  1.3775
 4981TIP3   OH236357   6.545   6.710  16.075  0.0771 -0.3284 -0.2052
 4981TIP3    H136358   6.495   6.711  15.994 -1.0180 -0.6407  0.4528
 4981TIP3    H236359   6.480   6.692  16.143  1.2352 -1.7382  0.5612
 4982TIP3   OH236360   5.044   4.456  14.995 -1.0082 -0.1902  0.8383
 4982TIP3    H136361   4.975   4.407  14.950 -0.3670 -0.3865  0.0537
 4982TIP3    H236362   5.123   4.438  14.943 -0.6596  1.2148  0.8730
 4983TIP3   OH236363   5.416   6.615  14.139  0.1606 -0.7102 -0.0287
 4983TIP3    H136364   5.347   6.558  14.172  0.7023 -0.5051  1.4667
 4983TIP3    H236365   5.399   6.620  14.045 -1.1192 -1.6609  0.1339
 4984TIP3   OH236366   1.023   0.356  16.173 -0.0118 -0.4307 -0.0411
 4984TIP3    H136367   0.972   0.416  16.119 -0.0961 -1.5212 -1.1856
 4984TIP3    H236368   0.975   0.351  16.256 -0.9290 -0.2600 -0.5565
 4985TIP3   OH236369   6.587   2.417  16.644  0.1361 -0.1937  0.6607
 4985TIP3    H136370   6.551   2.500  16.675 -1.0042 -0.5469  0.2758
 4985TIP3    H236371   6.615   2.372  16.724  0.3614  0.3759  0.9012
 4986TIP3   OH236372   3.965   2.830  16.911  0.4049  0.4928 -0.1781
 4986TIP3    H136373   4.026   2.791  16.972  0.7093 -0.6223 -1.1826
 4986TIP3    H236374   4.011   2.908  16.878 -0.3595  1.9833  2.1048
 4987TIP3   OH236375   6.025   3.116  15.349  0.4456 -0.0581  0.2512
 4987TIP3    H136376   5.980   3.044  15.304 -1.7235  1.7039 -0.5101
 4987TIP3    H236377   6.087   3.149  15.284 -0.7447  0.7136 -0.5254
 4988TIP3   OH236378   5.783   1.278  16.661 -0.0639  0.1116  0.2787
 4988TIP3    H136379   5.858   1.337  16.654 -0.0881  0.0344 -0.6776
 4988TIP3    H236380   5.741   1.302  16.743  0.7655  0.4413  0.6061
 4989TIP3   OH236381   1.183   2.183  16.943  0.9738  0.7753 -0.4496
 4989TIP3    H136382   1.278   2.176  16.946  0.9562  1.0602  2.3453
 4989TIP3    H236383   1.162   2.257  17.001 -1.0365 -0.7232  0.8342
 4990TIP3   OH236384   0.091   2.999   2.784 -0.1981  0.3038 -1.1435
 4990TIP3    H136385   0.158   2.995   2.716  0.1776  0.3026 -0.7810
 4990TIP3    H236386   0.138   2.977   2.865 -0.4863  1.0100 -0.7819
 4991TIP3   OH236387   1.438   0.069   1.417  0.3962 -0.1669  0.4370
 4991TIP3    H136388   1.479   0.137   1.470  0.2821 -0.7245  1.2520
 4991TIP3    H236389   1.346   0.097   1.409  0.4421 -0.0178  0.4279
 4992TIP3   OH236390   2.788   3.201   1.144  0.6143  0.4272 -0.5399
 4992TIP3    H136391   2.870   3.229   1.105  0.7093 -1.9411 -2.0934
 4992TIP3    H236392   2.790   3.106   1.141 -1.7342  0.2993  0.3411
 4993TIP3   OH236393   3.943   0.015  14.765  0.4261 -0.2842 -0.1201
 4993TIP3    H136394   3.932  -0.070  14.808  0.6072 -0.5013 -0.5051
 4993TIP3    H236395   3.858   0.032  14.724 -0.6007  1.1260  2.4711
 4994TIP3   OH236396   6.224   0.620  16.322 -0.2282  0.3445  0.0466
 4994TIP3    H136397   6.274   0.591  16.399  2.0859  1.8363 -0.8372
 4994TIP3    H236398   6.284   0.608  16.249 -1.6247  1.0343 -1.2363
 4995TIP3   OH236399   5.219   3.600  16.826  0.4322  0.2460  0.4408
 4995TIP3    H136400   5.246   3.662  16.759 -0.2817  0.8643  0.7166
 4995TIP3    H236401   5.260   3.632  16.906  1.0076 -0.2987  0.3707
 4996TIP3   OH236402   0.081   1.834   1.085 -0.2596  0.3872  0.0445
 4996TIP3    H136403   0.129   1.770   1.033 -0.0238  0.8514 -0.3215
 4996TIP3    H236404   0.027   1.881   1.021 -1.2869 -0.2091  0.4696
 4997TIP3   OH236405   2.773   0.978   3.627  0.1603 -0.5948 -0.1837
 4997TIP3    H136406   2.832   0.974   3.703 -0.0392  0.5331  0.0445
 4997TIP3    H236407   2.825   1.018   3.558 -0.7815  1.8360  0.4725
 4998TIP3   OH236408   4.143   5.305   1.821 -0.2959 -0.6216  0.3962
 4998TIP3    H136409   4.214   5.365   1.796 -0.6049 -1.0270 -1.5913
 4998TIP3    H236410   4.086   5.357   1.877  0.8747  0.1190  0.9106
 4999TIP3   OH236411   0.399   2.532   2.617 -0.0602  0.0073 -0.2657
 4999TIP3    H136412   0.478   2.513   2.565 -0.4411 -0.7733 -0.5808
 4999TIP3    H236413   0.422   2.505   2.706 -0.1212 -0.6602 -0.4462
 5000TIP3   OH236414   4.201   2.709  12.729 -0.4549  0.5244  0.1853
 5000TIP3    H136415   4.111   2.676  12.727 -0.8549  1.6324 -1.7630
 5000TIP3    H236416   4.245   2.655  12.794 -2.2986 -0.6458  0.5042
 5001TIP3   OH236417   3.681   1.491   2.226  0.0906 -0.3268 -0.5373
 5001TIP3    H136418   3.705   1.440   2.304 -0.7561  0.0955  0.0047
 5001TIP3    H236419   3.645   1.426   2.166 -1.0845 -0.3582  0.1946
 5002TIP3   OH236420   1.514   0.463   3.521  0.3792 -0.0077  0.7800
 5002TIP3    H136421   1.551   0.551   3.521  2.2128 -0.7729  1.8609
 5002TIP3    H236422   1.433   0.472   3.470  1.1061  2.0524 -0.0672
 5003TIP3   OH236423   2.930   3.187   1.600 -0.4361 -0.6076 -0.4034
 5003TIP3    H136424   2.985   3.202   1.677  0.6529 -0.1588 -1.2553
 5003TIP3    H236425   2.986   3.136   1.541 -0.6957  0.4643 -1.5694
 5004TIP3   OH236426   1.774   0.272  17.018 -0.6294 -0.2301  0.0794
 5004TIP3    H136427   1.771   0.180  16.993 -1.7230 -0.1471 -0.1005
 5004TIP3    H236428   1.743   0.274  17.108 -2.2597  0.1608 -0.4806
 5005TIP3   OH236429   2.915   4.165   2.211  0.1046 -0.0380 -0.4063
 5005TIP3    H136430   2.999   4.180   2.168 -0.1660 -0.4410 -1.0784
 5005TIP3    H236431   2.881   4.086   2.171 -0.7321  0.2824 -0.3390
 5006TIP3   OH236432   5.872   5.138  16.757  0.1233 -0.0441  0.0480
 5006TIP3    H136433   5.807   5.083  16.713  2.9148 -0.2120 -4.1496
 5006TIP3    H236434   5.911   5.080  16.822 -1.3984 -1.0242  0.1310
 5007TIP3   OH236435   5.776   1.771   3.346 -0.0066  0.0961 -0.3190
 5007TIP3    H136436   5.766   1.848   3.290 -1.4030  0.4912  0.4471
 5007TIP3    H236437   5.751   1.801   3.433 -3.1495 -1.8536 -0.4597
 5008TIP3   OH236438   0.160   2.224  14.795 -0.3445  0.8676  0.1725
 5008TIP3    H136439   0.090   2.215  14.730 -1.2163 -0.5555  1.3098
 5008TIP3    H236440   0.147   2.312  14.831 -0.4033  1.3229 -0.9443
 5009TIP3   OH236441   1.717   1.030  15.246 -0.9427  0.2080 -0.2918
 5009TIP3    H136442   1.628   1.043  15.278 -0.7685 -0.0153  0.2933
 5009TIP3    H236443   1.772   1.082  15.306 -0.7333  0.7979 -0.9908
 5010TIP3   OH236444   5.445   6.657  11.649 -0.0154 -0.1069 -0.1816
 5010TIP3    H136445   5.468   6.736  11.699 -1.4810  0.9969 -1.2198
 5010TIP3    H236446   5.525   6.635  11.602  0.6777  0.2227  0.8195
 5011TIP3   OH236447   0.026   0.291   4.772 -0.1047  0.2559  0.2388
 5011TIP3    H136448   0.076   0.225   4.821 -0.5377  0.8151  1.4596
 5011TIP3    H236449   0.084   0.367   4.769 -0.1695  0.2986  0.0647
 5012TIP3   OH236450   0.140   5.519  14.777  0.6182  0.6140 -0.1730
 5012TIP3    H136451   0.211   5.568  14.818 -0.8891  2.0671  0.8132
 5012TIP3    H236452   0.122   5.447  14.837  1.2383  0.2797 -0.3948
 5013TIP3   OH236453   1.241   1.891   6.054  0.1287  0.1819 -0.0852
 5013TIP3    H136454   1.282   1.899   6.140 -0.3242  1.7014  0.0159
 5013TIP3    H236455   1.178   1.819   6.063  0.6645 -0.1994  0.6142
 5014TIP3   OH236456   0.315   2.888   4.538  0.2309  0.3713 -1.1433
 5014TIP3    H136457   0.282   2.938   4.613 -0.5054  0.9151 -1.8160
 5014TIP3    H236458   0.342   2.955   4.475  0.2765 -0.0837 -1.6051
 5015TIP3   OH236459   6.128   6.403  16.267 -0.4573 -0.0657 -0.1715
 5015TIP3    H136460   6.085   6.488  16.275  0.2387  0.4121 -1.3271
 5015TIP3    H236461   6.117   6.362  16.353 -0.8698  1.1521  0.3683
 5016TIP3   OH236462   4.548   3.582  12.213  0.2208 -0.4402  0.2930
 5016TIP3    H136463   4.618   3.603  12.151  1.1007 -0.5064  1.2526
 5016TIP3    H236464   4.594   3.561  12.295 -1.0014  0.9401  1.3415
 5017TIP3   OH236465   0.478   4.416   5.064 -0.6547 -0.2051  1.0977
 5017TIP3    H136466   0.447   4.352   5.000 -0.5069  0.4929  0.3077
 5017TIP3    H236467   0.564   4.384   5.090 -2.4829 -2.8341  4.2620
 5018TIP3   OH236468   3.420   2.438   0.788  0.3090 -0.1296  0.1075
 5018TIP3    H136469   3.387   2.459   0.875  1.0604 -2.2214  0.9126
 5018TIP3    H236470   3.343   2.442   0.731 -0.0673  1.9046  0.7054
 5019TIP3   OH236471   5.247   4.592   3.882 -0.4164  0.1314  0.3396
 5019TIP3    H136472   5.259   4.543   3.963 -0.1151  0.6842  0.6306
 5019TIP3    H236473   5.306   4.666   3.890  0.6831 -0.5710 -0.9988
 5020TIP3   OH236474   6.603   5.698  10.667 -0.2442  0.0474 -0.0964
 5020TIP3    H136475   6.567   5.610  10.662  1.0953 -0.4036 -2.1973
 5020TIP3    H236476   6.698   5.685  10.668 -0.0369  1.4584 -0.1144
 5021TIP3   OH236477   3.411   0.329  13.854  0.3855  0.2055  0.6748
 5021TIP3    H136478   3.398   0.303  13.763 -3.5070 -0.9586  1.4817
 5021TIP3    H236479   3.451   0.416  13.849 -0.6005  0.5309 -2.1389
 5022TIP3   OH236480   3.678   1.192  12.454  0.1108 -0.0506 -0.1522
 5022TIP3    H136481   3.677   1.236  12.369 -2.8885  0.8891  0.3092
 5022TIP3    H236482   3.736   1.117  12.442 -0.9692 -0.4308 -3.2710
 5023TIP3   OH236483   1.964   1.473   2.385  0.0698  0.1914 -0.1056
 5023TIP3    H136484   1.879   1.516   2.374 -0.4661 -1.1355 -1.2753
 5023TIP3    H236485   1.989   1.492   2.475 -0.4535  2.3997 -0.3924
 5024TIP3   OH236486   2.933   6.239  13.673 -0.4863 -0.2526  0.0806
 5024TIP3    H136487   2.856   6.182  13.669 -1.0058  0.2823  1.7744
 5024TIP3    H236488   2.977   6.227  13.589 -0.0653 -3.8092  0.7619
 5025TIP3   OH236489   5.101   6.079  12.942 -0.6725 -0.0569  0.2516
 5025TIP3    H136490   5.041   6.089  12.868 -0.1701  1.5426  0.0407
 5025TIP3    H236491   5.097   5.986  12.963 -0.6897 -0.5704 -1.8993
 5026TIP3   OH236492   1.905   0.955   2.355  0.0053  0.7083  0.3012
 5026TIP3    H136493   1.917   1.049   2.372  0.0822  0.7082  0.2449
 5026TIP3    H236494   1.853   0.925   2.429 -0.4734  0.9036  0.0428
 5027TIP3   OH236495   6.505   1.672  15.711 -0.5513  1.0629 -0.4043
 5027TIP3    H136496   6.539   1.760  15.723  0.7066  0.7170 -1.3584
 5027TIP3    H236497   6.561   1.616  15.764 -1.1808  0.7891 -0.0114
 5028TIP3   OH236498   4.018   2.276  13.355  0.0933 -0.5115 -0.0459
 5028TIP3    H136499   3.996   2.183  13.358  0.4666 -0.5917  0.2046
 5028TIP3    H236500   4.112   2.279  13.370 -0.0730 -0.0208  0.8940
 5029TIP3   OH236501   5.913   4.792   5.324 -0.5741  0.0381  0.4615
 5029TIP3    H136502   5.824   4.766   5.300 -0.3628  1.1169 -1.5653
 5029TIP3    H236503   5.963   4.711   5.321 -1.1469 -0.3073 -0.0244
 5030TIP3   OH236504   0.077   5.271  11.849 -0.5968  0.1605 -0.4483
 5030TIP3    H136505   0.099   5.363  11.864  0.3123 -0.0598 -0.3784
 5030TIP3    H236506   0.114   5.251  11.763 -1.7592  0.1540 -0.9627
 5031TIP3   OH236507   1.364   1.335  15.364  0.3080  0.2868  0.3449
 5031TIP3    H136508   1.331   1.402  15.425  1.7778  1.5484 -0.2192
 5031TIP3    H236509   1.366   1.255  15.416  1.0104  1.2368  1.8126
 5032TIP3   OH236510   5.444   1.038  10.248  0.4333  0.7452 -0.5451
 5032TIP3    H136511   5.396   1.026  10.329  2.8043 -0.8654  0.6661
 5032TIP3    H236512   5.390   1.099  10.197 -2.4445 -0.3570  1.0659
 5033TIP3   OH236513   1.945   0.234   2.469  0.3073 -0.6826  0.6360
 5033TIP3    H136514   1.859   0.218   2.507 -0.0084  1.2947  0.8047
 5033TIP3    H236515   2.003   0.242   2.545  0.7408 -2.4820  0.5090
 5034TIP3   OH236516   5.915   4.855   5.023  0.0775 -0.3326  0.1981
 5034TIP3    H136517   5.852   4.817   5.085  0.6342 -1.0889  0.3102
 5034TIP3    H236518   5.873   4.844   4.937  0.2491 -1.2602  0.2232
 5035TIP3   OH236519   0.044   0.146   6.415  0.0719 -0.5154  0.4491
 5035TIP3    H136520  -0.016   0.092   6.363  0.7802 -2.9788  2.1017
 5035TIP3    H236521  -0.007   0.171   6.493  0.0745  0.4123  0.1671
 5036TIP3   OH236522   3.250   1.294  15.389 -0.1280 -0.2335 -0.9845
 5036TIP3    H136523   3.258   1.274  15.296 -0.6286  1.0286 -1.3055
 5036TIP3    H236524   3.156   1.289  15.407 -0.1875  1.0277 -0.8989
 5037TIP3   OH236525   1.473   2.888   4.046  0.0340 -0.3648 -0.2476
 5037TIP3    H136526   1.402   2.861   3.987 -0.0224 -2.0147  0.5575
 5037TIP3    H236527   1.428   2.920   4.124  0.0835  2.5688 -1.3383
 5038TIP3   OH236528   4.395   0.186   2.598  0.4478  0.0377  0.0865
 5038TIP3    H136529   4.485   0.201   2.568  1.0901  1.3807  2.5878
 5038TIP3    H236530   4.343   0.186   2.517  2.2275  2.9092 -1.1612
 5039TIP3   OH236531   4.212   6.487   2.572 -0.8116 -0.0408 -0.4606
 5039TIP3    H136532   4.127   6.525   2.551 -1.4899 -1.7531 -0.9316
 5039TIP3    H236533   4.196   6.432   2.649 -0.8344 -2.7840 -2.3707
 5040TIP3   OH236534   4.398   4.518   3.510 -0.5236  0.0503  0.6087
 5040TIP3    H136535   4.466   4.547   3.570  0.4845 -1.4873  0.2530
 5040TIP3    H236536   4.405   4.422   3.510 -0.9670 -0.0205 -1.3778
 5041TIP3   OH236537   4.894   1.531  17.107  0.4847  0.1033  0.0495
 5041TIP3    H136538   4.832   1.509  17.037 -1.7920  0.9802  1.7366
 5041TIP3    H236539   4.945   1.451  17.119 -1.3599 -1.1714 -0.3366
 5042TIP3   OH236540   2.482   6.634   3.905 -0.1669  0.2417  0.2326
 5042TIP3    H136541   2.422   6.560   3.903  0.1212  0.0476 -2.3143
 5042TIP3    H236542   2.438   6.702   3.854  0.9417  0.7480 -0.0634
 5043TIP3   OH236543   1.684   6.020  13.865  0.5562 -0.1326  0.4400
 5043TIP3    H136544   1.590   6.021  13.844  0.8901 -2.2570 -1.2511
 5043TIP3    H236545   1.718   6.099  13.824 -0.1032 -0.5269 -0.8941
 5044TIP3   OH236546   4.587   1.529  15.165 -0.4867 -0.8537  0.2699
 5044TIP3    H136547   4.643   1.479  15.107 -0.7935  0.1167 -0.8716
 5044TIP3    H236548   4.636   1.609  15.183 -0.4008 -1.1338  1.3370
 5045TIP3   OH236549   6.553   2.799  13.897 -0.5111 -1.0143  0.4071
 5045TIP3    H136550   6.458   2.802  13.885 -0.6424  1.7300  1.6324
 5045TIP3    H236551   6.584   2.880  13.857  0.7818  0.2989  3.8659
 5046TIP3   OH236552   4.086   2.526   1.599  0.5344  0.2513 -0.3545
 5046TIP3    H136553   4.177   2.533   1.571  0.1820 -0.9287 -1.8602
 5046TIP3    H236554   4.035   2.550   1.522 -0.4458  0.8775  0.4697
 5047TIP3   OH236555   2.943   4.962  14.390 -0.4632 -0.2817 -0.4746
 5047TIP3    H136556   2.943   5.057  14.379 -1.2627 -0.1462  0.6282
 5047TIP3    H236557   2.903   4.928  14.309  1.7017  0.1819 -1.7810
 5048TIP3   OH236558   6.471   0.550   2.466 -0.4070 -0.7712  1.2379
 5048TIP3    H136559   6.503   0.523   2.552 -2.8270  1.0558  2.8021
 5048TIP3    H236560   6.509   0.637   2.452  0.7171 -1.4362  0.0048
 5049TIP3   OH236561   2.874   6.374   5.505 -0.4570 -0.7365 -0.2207
 5049TIP3    H136562   2.873   6.287   5.546 -1.3426 -0.4200  0.4524
 5049TIP3    H236563   2.917   6.430   5.570  0.1227 -0.6615 -0.6604
 5050TIP3   OH236564   3.428   6.478  13.506  0.2491  0.3951  0.3015
 5050TIP3    H136565   3.372   6.442  13.437  1.0642  1.1531 -0.7725
 5050TIP3    H236566   3.440   6.405  13.568  0.9858 -0.8611 -1.2806
 5051TIP3   OH236567   1.280   3.743  10.690 -0.0435 -0.7756 -0.3642
 5051TIP3    H136568   1.309   3.653  10.698 -0.4851 -0.8551  0.4040
 5051TIP3    H236569   1.189   3.737  10.659 -1.2448 -0.7169  2.9842
 5052TIP3   OH236570   3.745   4.511  12.492  0.2502  0.4115 -0.5653
 5052TIP3    H136571   3.751   4.576  12.422 -0.0567  0.9404 -0.1055
 5052TIP3    H236572   3.835   4.480  12.504  0.4224  0.8571 -0.6883
 5053TIP3   OH236573   6.294   4.347   5.367  1.1494 -0.2574  0.4217
 5053TIP3    H136574   6.268   4.261   5.399  1.7494 -0.3814  0.5925
 5053TIP3    H236575   6.213   4.388   5.339  0.7978 -0.6975  0.7851
 5054TIP3   OH236576   1.565   6.546   5.964 -0.3971 -0.3087 -0.2748
 5054TIP3    H136577   1.514   6.489   6.021  0.4498 -0.0100  0.8024
 5054TIP3    H236578   1.520   6.631   5.969 -1.0393 -0.5911 -1.0444
 5055TIP3   OH236579   0.133   2.143  12.226 -0.9889 -0.2296 -0.3092
 5055TIP3    H136580   0.050   2.105  12.196 -0.2819 -2.2850  0.2979
 5055TIP3    H236581   0.134   2.126  12.320 -0.3511  0.7519 -0.1284
 5056TIP3   OH236582   4.245   2.758   1.510  0.0338  0.0866  0.0594
 5056TIP3    H136583   4.238   2.790   1.599 -2.3070 -0.0276 -0.0614
 5056TIP3    H236584   4.301   2.681   1.517  1.0416  0.9110  1.1982
 5057TIP3   OH236585   1.355   4.162  16.462 -0.2975 -0.0297  0.2119
 5057TIP3    H136586   1.331   4.076  16.428  0.6754  0.4061 -1.6273
 5057TIP3    H236587   1.448   4.171  16.442 -0.0006  0.7534  1.9192
 5058TIP3   OH236588   0.032   4.315   5.268 -0.0301 -0.3483 -0.4485
 5058TIP3    H136589  -0.051   4.344   5.229  1.0487  3.6437 -0.0560
 5058TIP3    H236590   0.032   4.354   5.355  1.4647 -1.8491  0.2479
 5059TIP3   OH236591   6.370   2.746   1.658  0.5782 -0.3591 -0.5446
 5059TIP3    H136592   6.377   2.766   1.564  0.1211  0.8998 -0.3080
 5059TIP3    H236593   6.332   2.658   1.660  1.9249 -0.9978 -1.5615
 5060TIP3   OH236594   0.155   3.604   4.118 -0.7619  0.1726  0.0696
 5060TIP3    H136595   0.207   3.650   4.052 -0.1832  0.0105  0.4059
 5060TIP3    H236596   0.156   3.513   4.090  0.9805 -0.2022  1.2349
 5061TIP3   OH236597   2.550   6.004   3.889  0.1306  0.5296 -0.4941
 5061TIP3    H136598   2.506   5.919   3.888  1.6065 -0.2578 -1.5490
 5061TIP3    H236599   2.483   6.067   3.863 -0.8189 -0.4136 -0.3376
 5062TIP3   OH236600   2.342   0.533   0.497  0.2239 -0.8715  0.0788
 5062TIP3    H136601   2.333   0.549   0.591  2.0328  0.0491  0.1212
 5062TIP3    H236602   2.282   0.595   0.456  0.7217 -0.0514  0.5671
 5063TIP3   OH236603   3.909   2.860  12.604 -0.9044 -0.6764 -0.1647
 5063TIP3    H136604   3.856   2.820  12.535 -2.3479  0.6162  0.1710
 5063TIP3    H236605   3.850   2.867  12.679 -0.4908  1.4094  0.0062
 5064TIP3   OH236606   4.589   0.968  13.736  0.9778 -0.4824  0.3143
 5064TIP3    H136607   4.668   1.006  13.776  1.2726  0.0142 -0.7125
 5064TIP3    H236608   4.520   1.031  13.756  1.2506  0.0770 -0.4713
 5065TIP3   OH236609   1.028   0.902  14.220  0.0149  0.6265  0.2595
 5065TIP3    H136610   1.029   0.859  14.134  0.0521 -0.3838  0.7658
 5065TIP3    H236611   1.078   0.844  14.277 -1.6062  0.3339  1.4295
 5066TIP3   OH236612   4.184   3.171   2.523 -0.4566  0.1063  0.4983
 5066TIP3    H136613   4.110   3.199   2.469 -1.0951  2.8106  2.6904
 5066TIP3    H236614   4.230   3.252   2.544  1.5446 -1.2611  1.4475
 5067TIP3   OH236615   6.406   0.128  14.253  0.0971 -0.0562 -0.0314
 5067TIP3    H136616   6.402   0.075  14.333  1.3889 -1.2769 -0.7436
 5067TIP3    H236617   6.499   0.150  14.244 -0.3193  1.7361 -0.1456
 5068TIP3   OH236618   3.259   2.332  12.482 -0.0248  0.0301 -0.0541
 5068TIP3    H136619   3.303   2.258  12.443 -1.5505 -0.1103 -1.5550
 5068TIP3    H236620   3.316   2.407  12.464  1.8081 -0.8081  1.9745
 5069TIP3   OH236621   0.669   0.183  14.665  0.0976  0.3392 -0.2720
 5069TIP3    H136622   0.583   0.190  14.706  0.6150  0.8248  0.7444
 5069TIP3    H236623   0.689   0.273  14.639  0.0785  0.1441 -0.9730
 5070TIP3   OH236624   1.154   5.816  15.342  0.5517 -0.4078  0.1952
 5070TIP3    H136625   1.062   5.806  15.368  0.8014 -0.5779  1.0586
 5070TIP3    H236626   1.195   5.860  15.417  1.3807 -1.2560  0.2584
 5071TIP3   OH236627   6.728   6.744  16.696  0.2088  0.1295  0.0596
 5071TIP3    H136628   6.728   6.679  16.626 -3.0272 -0.4952  0.5355
 5071TIP3    H236629   6.764   6.699  16.772  0.6636 -0.2118 -0.3610
 5072TIP3   OH236630   0.899   0.463  14.954 -0.1236  0.8816 -0.2190
 5072TIP3    H136631   0.816   0.418  14.942 -0.6847  2.0359 -0.8597
 5072TIP3    H236632   0.898   0.532  14.886  1.1831  1.1335  0.0048
 5073TIP3   OH236633   0.175   1.892  16.896  0.1101  0.1362 -0.0053
 5073TIP3    H136634   0.183   1.988  16.890 -1.9297  0.2127 -2.3055
 5073TIP3    H236635   0.138   1.866  16.812  1.6689 -2.8303  0.1980
 5074TIP3   OH236636   4.270   4.703  14.658 -0.1492 -0.0247  0.0627
 5074TIP3    H136637   4.324   4.715  14.736  1.8638 -0.6823 -1.2019
 5074TIP3    H236638   4.229   4.617  14.670  0.8203 -0.4964 -0.0050
 5075TIP3   OH236639   5.610   6.019  11.481 -0.1253 -0.6250  0.6149
 5075TIP3    H136640   5.568   5.943  11.521  0.1266 -1.0274  0.1335
 5075TIP3    H236641   5.538   6.076  11.455 -0.5282 -2.2234 -2.0026
 5076TIP3   OH236642   2.725   4.039  11.531  0.0047  0.4952  0.1263
 5076TIP3    H136643   2.814   4.066  11.511  0.8851  0.0876  3.2461
 5076TIP3    H236644   2.731   3.944  11.547 -0.5157  0.8302  2.5548
 5077TIP3   OH236645   2.401   4.725   2.364 -0.0882  0.6160  0.3488
 5077TIP3    H136646   2.425   4.741   2.272 -0.9010 -1.1356 -0.1837
 5077TIP3    H236647   2.482   4.740   2.413  1.3342 -2.0758 -1.0655
 5078TIP3   OH236648   5.849   0.131  11.978 -0.1506 -0.2104 -0.0578
 5078TIP3    H136649   5.770   0.097  11.937 -0.0600 -0.2547 -0.1930
 5078TIP3    H236650   5.837   0.113  12.072  0.0004 -0.8186 -0.1537
 5079TIP3   OH236651   1.024   3.578   4.357  0.1300  0.3142 -0.1801
 5079TIP3    H136652   1.074   3.500   4.334 -0.6162  0.2685 -1.7427
 5079TIP3    H236653   1.009   3.571   4.451 -0.0938 -1.5269 -0.3486
 5080TIP3   OH236654   4.676   2.191  13.763  0.4233  0.1352 -0.6886
 5080TIP3    H136655   4.721   2.107  13.770 -0.3168 -0.3393 -1.5105
 5080TIP3    H236656   4.746   2.255  13.747  0.9567 -0.3627 -0.3570
 5081TIP3   OH236657   3.345   2.237   6.229 -0.0881 -0.3060 -0.2440
 5081TIP3    H136658   3.349   2.304   6.160 -0.9350  0.3451  0.3267
 5081TIP3    H236659   3.252   2.214   6.235  0.0168 -0.5558  0.4874
 5082TIP3   OH236660   1.726   5.601   5.806 -0.3131  0.4380  0.3651
 5082TIP3    H136661   1.799   5.628   5.862  1.6200 -2.0662 -0.8667
 5082TIP3    H236662   1.666   5.556   5.865  0.4291  0.1456  0.9119
 5083TIP3   OH236663   3.620   5.270   2.959  0.4005 -0.5709 -0.0220
 5083TIP3    H136664   3.589   5.329   3.027  0.2507 -0.4181 -0.2211
 5083TIP3    H236665   3.541   5.233   2.920  0.4780 -0.5622 -0.1932
 5084TIP3   OH236666   1.556   1.254   2.401  0.1581  0.3965 -0.2165
 5084TIP3    H136667   1.600   1.299   2.329  3.1641 -1.8150  0.1689
 5084TIP3    H236668   1.555   1.162   2.376 -4.1774  0.3101 -0.1113
 5085TIP3   OH236669   6.567   2.988  11.435 -0.0954  0.2648  0.0585
 5085TIP3    H136670   6.656   2.978  11.402 -0.6455 -1.6029 -0.9775
 5085TIP3    H236671   6.565   3.074  11.477  2.5338 -0.2074  1.2184
 5086TIP3   OH236672   1.764   4.330   5.244  0.5114  0.1889 -0.1369
 5086TIP3    H136673   1.712   4.405   5.217 -1.1595 -0.1588  1.9268
 5086TIP3    H236674   1.846   4.367   5.276  0.5239  0.9546 -1.0413
 5087TIP3   OH236675   1.160   3.419  17.030  0.0200  0.4602 -0.6106
 5087TIP3    H136676   1.198   3.460  16.952  2.3979 -0.0172  0.2745
 5087TIP3    H236677   1.066   3.415  17.011 -0.1111  4.7342 -1.4599
 5088TIP3   OH236678   5.799   5.705   3.141  0.0409  0.3405 -0.0121
 5088TIP3    H136679   5.889   5.707   3.174  0.4349  0.1594 -1.0532
 5088TIP3    H236680   5.746   5.683   3.218  0.8463  0.7829  0.6804
 5089TIP3   OH236681   0.361   1.131  10.986  0.4092 -0.2221  0.1212
 5089TIP3    H136682   0.361   1.218  10.948 -2.7380  0.1359  0.8692
 5089TIP3    H236683   0.393   1.144  11.075  0.3334  0.0979  0.1023
 5090TIP3   OH236684   0.120   2.719   4.979 -0.1335 -0.5290  0.1155
 5090TIP3    H136685   0.153   2.667   5.053  1.3317 -2.1562 -1.6358
 5090TIP3    H236686   0.186   2.709   4.911 -1.2901  1.2360 -1.3221
 5091TIP3   OH236687   6.198   0.651  15.431  0.1988  0.0036 -0.3317
 5091TIP3    H136688   6.185   0.729  15.377 -0.2663  0.1784  0.0257
 5091TIP3    H236689   6.218   0.686  15.518 -0.7119 -0.2725 -0.0072
 5092TIP3   OH236690   6.348   2.509  15.105  0.4463 -0.4138  0.1077
 5092TIP3    H136691   6.321   2.421  15.077  1.7526 -0.7057 -0.2527
 5092TIP3    H236692   6.386   2.495  15.192 -0.2159 -0.0576  0.4575
 5093TIP3   OH236693   5.208   6.104  17.039  0.0817  0.0349  0.2137
 5093TIP3    H136694   5.301   6.127  17.040  0.0465  0.2139 -0.4883
 5093TIP3    H236695   5.196   6.057  16.956 -0.9974  2.2570 -0.9287
 5094TIP3   OH236696   4.777   0.812   4.289 -0.6048  0.2882 -0.2685
 5094TIP3    H136697   4.822   0.894   4.310  0.1725  0.3851 -2.2552
 5094TIP3    H236698   4.779   0.807   4.194  0.5168 -2.6799 -0.1341
 5095TIP3   OH236699   2.271   5.877  14.868 -0.1424 -0.1962 -0.1802
 5095TIP3    H136700   2.186   5.834  14.877  0.0258 -0.3951  0.4841
 5095TIP3    H236701   2.257   5.966  14.902 -0.5482  0.3537 -1.7621
 5096TIP3   OH236702   5.278   4.860  15.781  0.4164  0.5211 -0.5808
 5096TIP3    H136703   5.310   4.797  15.845  0.8663  0.8539 -0.4723
 5096TIP3    H236704   5.205   4.816  15.737  0.8251 -0.1230 -0.6108
 5097TIP3   OH236705   5.006   0.021   3.237 -0.0555 -0.8606 -0.1729
 5097TIP3    H136706   5.086   0.043   3.191  1.2300  0.5940  2.6477
 5097TIP3    H236707   5.018  -0.070   3.265  1.0184 -0.3815  0.9725
 5098TIP3   OH236708   4.179   0.372   5.275  0.0362  0.8215  0.1777
 5098TIP3    H136709   4.143   0.356   5.363  0.9067  3.7723  1.1206
 5098TIP3    H236710   4.268   0.336   5.279  0.6759  2.4321  1.0969
 5099TIP3   OH236711   1.682   3.123  11.619 -0.0871  0.0774 -0.2329
 5099TIP3    H136712   1.744   3.191  11.592 -0.7690  0.2558 -1.3921
 5099TIP3    H236713   1.735   3.062  11.671  0.7310  0.9991  0.0246
 5100TIP3   OH236714   1.054   5.897   1.159 -0.5872 -0.3756 -0.7157
 5100TIP3    H136715   1.062   5.818   1.212  0.7621 -1.3233 -2.2862
 5100TIP3    H236716   1.111   5.961   1.201 -0.4591 -0.7449 -0.3301
 5101TIP3   OH236717   4.324   0.123   5.598  0.6148 -0.3109 -0.5167
 5101TIP3    H136718   4.257   0.059   5.623  0.6447 -0.0432  0.2628
 5101TIP3    H236719   4.314   0.195   5.661  0.8403  0.2776 -1.1419
 5102TIP3   OH236720   1.703   0.744  14.076 -0.0663 -0.3313 -1.1283
 5102TIP3    H136721   1.739   0.833  14.074 -0.1364 -0.2144  1.3172
 5102TIP3    H236722   1.773   0.691  14.113 -0.2448 -1.2025 -2.0169
 5103TIP3   OH236723   4.698   3.231  16.034 -1.1232 -0.3690  0.5922
 5103TIP3    H136724   4.624   3.262  15.981 -0.7068  1.5418  1.0753
 5103TIP3    H236725   4.674   3.141  16.058 -1.7928 -0.9183 -1.9426
 5104TIP3   OH236726   5.413   0.165   5.277 -0.0325 -0.6229 -0.0507
 5104TIP3    H136727   5.460   0.096   5.324 -0.4963 -1.8306 -1.3314
 5104TIP3    H236728   5.338   0.185   5.333  1.5299  0.7794  1.6318
 5105TIP3   OH236729   4.089   4.137  11.228  0.2152 -0.2001 -0.0112
 5105TIP3    H136730   4.149   4.159  11.157  1.5300 -0.8604  0.8878
 5105TIP3    H236731   4.134   4.165  11.308 -1.0977  0.2112  0.5990
 5106TIP3   OH236732   4.263   5.103   2.817 -0.0334  0.3432  0.4061
 5106TIP3    H136733   4.303   5.137   2.737 -1.8516  0.9351 -0.2695
 5106TIP3    H236734   4.254   5.180   2.873 -0.2636  0.2231  0.5326
 5107TIP3   OH236735   3.634   2.155  14.647 -0.1728  0.4966 -0.9836
 5107TIP3    H136736   3.581   2.228  14.678  0.6959  0.8870 -0.4048
 5107TIP3    H236737   3.586   2.121  14.571 -1.5294  0.4835 -0.1278
 5108TIP3   OH236738   2.153   5.997  12.211  0.5437  0.2357  0.0422
 5108TIP3    H136739   2.147   5.904  12.234 -2.0843  0.1167 -0.9259
 5108TIP3    H236740   2.224   6.030  12.265 -0.9602 -1.4964  3.2801
 5109TIP3   OH236741   4.331   3.754   1.144 -0.4154  0.1890 -0.2191
 5109TIP3    H136742   4.327   3.766   1.239  0.1998 -0.2338 -0.1403
 5109TIP3    H236743   4.249   3.708   1.123 -0.3783 -0.0545  0.1593
 5110TIP3   OH236744   6.741   1.929   0.873 -0.1222 -0.0960  0.1424
 5110TIP3    H136745   6.762   2.022   0.871  0.8980 -0.3414 -0.9756
 5110TIP3    H236746   6.646   1.925   0.863 -0.1161  0.7966 -0.2307
 5111TIP3   OH236747   6.360   3.606   6.059  0.3161 -0.0863  0.1658
 5111TIP3    H136748   6.293   3.541   6.037  0.2067 -0.2630  1.0190
 5111TIP3    H236749   6.327   3.649   6.138  1.6298 -0.7960  1.1304
 5112TIP3   OH236750   6.571   6.652   2.068 -0.5423 -0.3501  0.2226
 5112TIP3    H136751   6.524   6.681   1.989 -0.9489 -2.2790 -0.2718
 5112TIP3    H236752   6.650   6.610   2.035 -0.4659 -0.7217  0.8689
 5113TIP3   OH236753   3.762   5.200   4.599  0.7701 -0.3144  0.0419
 5113TIP3    H136754   3.847   5.165   4.624  1.4030  1.6396  0.7396
 5113TIP3    H236755   3.719   5.222   4.682  0.5501  0.8994 -0.3828
 5114TIP3   OH236756   1.841   3.667  15.891 -0.1214  0.0091  0.9350
 5114TIP3    H136757   1.909   3.616  15.846 -0.6309  0.7044 -0.6532
 5114TIP3    H236758   1.759   3.630  15.859 -0.4985  2.2146 -0.7086
 5115TIP3   OH236759   3.585   1.744   3.025  0.1498  0.0146  0.2454
 5115TIP3    H136760   3.675   1.755   2.995  0.3911 -2.4547 -0.0023
 5115TIP3    H236761   3.568   1.650   3.016 -2.8921  0.6197 -0.9921
 5116TIP3   OH236762   4.074   3.333   1.267 -0.7264  0.2829 -0.0266
 5116TIP3    H136763   4.029   3.415   1.287 -0.0063  0.7918 -0.4547
 5116TIP3    H236764   4.005   3.275   1.234 -1.1236  0.9438 -0.3657
 5117TIP3   OH236765   2.183   0.974  14.869 -0.4059  0.3811  0.0779
 5117TIP3    H136766   2.218   1.030  14.800  0.8371 -2.4090 -1.6627
 5117TIP3    H236767   2.259   0.948  14.921 -1.2064  1.6832  1.9675
 5118TIP3   OH236768   6.771   2.179   5.840  0.1124 -0.2424 -0.6462
 5118TIP3    H136769   6.737   2.269   5.836  0.1962 -0.1253  1.0963
 5118TIP3    H236770   6.715   2.131   5.779 -0.6458  0.7684 -0.7728
 5119TIP3   OH236771   5.466   5.759   0.221 -0.4400 -0.1709  0.3871
 5119TIP3    H136772   5.474   5.796   0.133 -1.5747  0.0205  0.3511
 5119TIP3    H236773   5.541   5.793   0.269 -0.3436  0.5037 -0.2394
 5120TIP3   OH236774   1.057   5.484  17.126 -0.5822 -0.2642  0.2175
 5120TIP3    H136775   1.074   5.573  17.094  0.2051 -0.3643  0.3304
 5120TIP3    H236776   1.084   5.486  17.217 -0.2446 -0.7023  0.1327
 5121TIP3   OH236777   4.621   1.746  13.020  0.0832  0.2566  0.0678
 5121TIP3    H136778   4.590   1.669  13.067  0.7170 -1.2327 -1.8659
 5121TIP3    H236779   4.582   1.739  12.933 -0.2667  2.4014  0.0084
 5122TIP3   OH236780   2.901   4.526  15.414 -0.3315  0.7456 -0.3943
 5122TIP3    H136781   2.835   4.479  15.465 -0.7786  1.4898 -0.2773
 5122TIP3    H236782   2.866   4.614  15.406  1.4421  1.5998  1.0821
 5123TIP3   OH236783   5.646   0.483  12.004  0.1830 -0.2961 -0.2305
 5123TIP3    H136784   5.612   0.572  12.018  1.2151  0.3776 -1.8892
 5123TIP3    H236785   5.697   0.465  12.083  1.0647  1.1238 -0.4581
 5124TIP3   OH236786   4.449   5.617  16.782 -0.0017 -0.1980 -0.6592
 5124TIP3    H136787   4.530   5.655  16.748 -0.8402  0.6067 -1.8259
 5124TIP3    H236788   4.389   5.619  16.708 -1.2662 -0.2558  0.3441
 5125TIP3   OH236789   2.411   1.347  13.813 -0.5333 -0.2936 -0.3544
 5125TIP3    H136790   2.425   1.253  13.804 -1.4511 -0.2282 -2.7312
 5125TIP3    H236791   2.498   1.382  13.834 -0.3390 -1.7350  1.3241
 5126TIP3   OH236792   4.940   6.256  12.397 -0.1643  0.4897  0.5785
 5126TIP3    H136793   4.882   6.330  12.416 -2.3837 -1.1108  0.3319
 5126TIP3    H236794   4.881   6.188  12.364  1.9605 -1.0376 -0.1816
 5127TIP3   OH236795   0.358   4.279  11.748  0.4943 -0.6320  0.2341
 5127TIP3    H136796   0.271   4.314  11.765  0.0915 -1.2266 -0.5674
 5127TIP3    H236797   0.416   4.356  11.750 -0.0949 -0.1904  0.4220
 5128TIP3   OH236798   3.801   3.456  12.141 -0.5938  0.4269 -0.2386
 5128TIP3    H136799   3.839   3.377  12.101 -0.7794  0.0894  0.2365
 5128TIP3    H236800   3.714   3.463  12.101 -1.3514 -0.7372  1.1409
 5129TIP3   OH236801   0.668   6.434   5.434  0.0374 -0.2392  0.6356
 5129TIP3    H136802   0.741   6.383   5.469 -0.2876 -0.0636  1.6053
 5129TIP3    H236803   0.636   6.485   5.509 -0.8480 -0.0434  0.1418
 5130TIP3   OH236804   1.466   1.240  17.146 -0.3348  0.4461 -0.0540
 5130TIP3    H136805   1.479   1.187  17.067  0.9868  1.1203 -0.3198
 5130TIP3    H236806   1.525   1.202  17.211 -2.2953 -0.8487  1.0120
 5131TIP3   OH236807   0.134   3.162  16.869  0.4729 -0.1987  0.2068
 5131TIP3    H136808   0.148   3.067  16.870  2.3158  0.0544 -0.2334
 5131TIP3    H236809   0.201   3.196  16.810 -1.1131  1.2535 -0.7971
 5132TIP3   OH236810   3.354   3.830   6.194 -0.0082  0.2489  0.1774
 5132TIP3    H136811   3.297   3.906   6.200 -0.8968 -0.3360 -0.6921
 5132TIP3    H236812   3.295   3.755   6.193  0.7490 -0.3612 -0.8628
 5133TIP3   OH236813   3.629   5.676   3.837  0.2457  0.4545 -0.1073
 5133TIP3    H136814   3.548   5.634   3.809  0.5485  0.9263 -1.7103
 5133TIP3    H236815   3.601   5.746   3.897 -0.4969  0.3590 -0.3457
 5134TIP3   OH236816   0.792   3.616  13.506 -0.7028 -0.1262 -0.6299
 5134TIP3    H136817   0.829   3.528  13.500  0.9967  0.5173  0.0973
 5134TIP3    H236818   0.711   3.604  13.555 -0.5500 -1.3090 -0.6455
 5135TIP3   OH236819   0.703   4.139  11.605  0.4529 -0.0685 -0.4218
 5135TIP3    H136820   0.724   4.066  11.664 -0.6988  0.4824  0.6944
 5135TIP3    H236821   0.768   4.206  11.626  0.0065  0.1516  0.2828
 5136TIP3   OH236822   3.940   2.714  10.907 -0.1233 -0.0302 -0.0743
 5136TIP3    H136823   3.856   2.733  10.864  0.1267 -0.5770 -0.8246
 5136TIP3    H236824   3.961   2.794  10.955 -0.8659  0.2664 -0.2247
 5137TIP3   OH236825   3.522   4.498  15.277 -0.5221 -0.1435 -0.1740
 5137TIP3    H136826   3.528   4.430  15.210 -0.5033 -0.2361 -0.0784
 5137TIP3    H236827   3.578   4.466  15.348 -0.0075  0.2696 -0.3860
 5138TIP3   OH236828   6.072   3.258  14.143 -0.2790  0.1266 -0.7561
 5138TIP3    H136829   5.999   3.215  14.099 -0.5868  1.1557 -1.2666
 5138TIP3    H236830   6.055   3.245  14.237 -1.2716  0.6023 -0.8690
 5139TIP3   OH236831   0.762   0.875   3.596  0.3645  0.5436 -0.3689
 5139TIP3    H136832   0.771   0.903   3.687  1.7971  3.3877 -1.3304
 5139TIP3    H236833   0.668   0.878   3.579  0.2792  2.5248  0.2985
 5140TIP3   OH236834   3.321   4.642  15.720  0.4445  0.1526  0.5851
 5140TIP3    H136835   3.383   4.695  15.670 -0.1020 -0.1873 -0.4720
 5140TIP3    H236836   3.249   4.625  15.659 -0.7902  0.7154  1.8393
 5141TIP3   OH236837   5.121   3.095   4.606 -0.0368  0.3591  0.6320
 5141TIP3    H136838   5.055   3.042   4.561  1.0109 -0.8771  0.5369
 5141TIP3    H236839   5.204   3.051   4.589  1.0265  2.6955 -0.4258
 5142TIP3   OH236840   6.065   5.733  10.372 -0.0264 -0.2682  0.2087
 5142TIP3    H136841   5.999   5.794  10.406  0.6667  1.6753 -1.8339
 5142TIP3    H236842   6.014   5.659  10.339 -0.9270 -0.5016  2.0199
 5143TIP3   OH236843   2.084   4.760   4.011  0.7599  0.5031 -0.9990
 5143TIP3    H136844   2.105   4.850   4.037 -1.4118  1.0944 -1.1292
 5143TIP3    H236845   2.028   4.727   4.081  1.0654 -0.5343 -1.2401
 5144TIP3   OH236846   5.239   1.492  15.940 -0.4958 -0.6868 -0.0448
 5144TIP3    H136847   5.264   1.494  15.847 -1.6381 -0.6599 -0.3577
 5144TIP3    H236848   5.263   1.578  15.973  0.2856 -0.8368 -0.2197
 5145TIP3   OH236849   5.379   0.756  12.329  0.3573 -0.7131 -0.2241
 5145TIP3    H136850   5.454   0.802  12.366 -0.8785  0.9352  0.2902
 5145TIP3    H236851   5.304   0.811  12.349 -0.5938 -0.6369 -3.6329
 5146TIP3   OH236852   5.947   2.109  15.087  0.0566  0.1432 -0.3376
 5146TIP3    H136853   5.985   2.118  14.999 -0.1288 -2.1124 -0.6828
 5146TIP3    H236854   6.019   2.133  15.146  0.2118  1.5918 -1.0984
 5147TIP3   OH236855   0.251   1.774  13.785 -0.0436 -0.0995 -0.3217
 5147TIP3    H136856   0.210   1.800  13.702 -3.7730 -1.6022  0.9311
 5147TIP3    H236857   0.255   1.678  13.780  0.9374 -0.1148  0.6812
 5148TIP3   OH236858   2.925   2.144  16.602  0.0879 -0.0831  0.1207
 5148TIP3    H136859   2.858   2.205  16.572  0.2036 -0.0715 -0.1207
 5148TIP3    H236860   2.998   2.200  16.628 -0.2644 -0.0603  1.0748
 5149TIP3   OH236861   0.920   3.111  14.857 -0.0309 -0.6149 -0.5135
 5149TIP3    H136862   0.839   3.083  14.901 -0.0734 -0.7489 -0.6785
 5149TIP3    H236863   0.989   3.061  14.900 -0.1269 -1.1170 -0.9389
 5150TIP3   OH236864   0.923   4.084  10.949 -0.2335 -0.1677  0.3960
 5150TIP3    H136865   0.989   4.014  10.955  1.6191  1.5002  0.0727
 5150TIP3    H236866   0.935   4.135  11.029 -1.7359 -0.3521  0.7379
 5151TIP3   OH236867   3.126   4.006  16.193 -0.2602 -0.0777  0.3396
 5151TIP3    H136868   3.222   4.010  16.187 -0.2527 -1.5733 -0.5878
 5151TIP3    H236869   3.107   4.038  16.281  0.9037  2.8850 -0.3963
 5152TIP3   OH236870   6.361   5.030  14.170 -0.2666  0.2862  0.1109
 5152TIP3    H136871   6.408   4.991  14.244  0.2928 -0.2751 -0.5300
 5152TIP3    H236872   6.342   5.119  14.198  1.7746  0.7338  0.1366
 5153TIP3   OH236873   1.207   5.066  12.327 -0.4803  0.1237 -0.8431
 5153TIP3    H136874   1.228   5.139  12.386  2.4357 -1.7363  0.5398
 5153TIP3    H236875   1.251   5.088  12.245  0.8937 -0.3467 -0.2388
 5154TIP3   OH236876   1.786   2.239  17.095  0.2671 -0.8817 -0.4459
 5154TIP3    H136877   1.850   2.288  17.145 -0.0371 -0.8907 -0.0412
 5154TIP3    H236878   1.799   2.148  17.122 -0.3052 -0.8097  0.0674
 5155TIP3   OH236879   0.275   1.107   2.418 -0.5700 -0.2696  0.0715
 5155TIP3    H136880   0.309   1.018   2.411 -4.0526 -1.6678 -0.2424
 5155TIP3    H236881   0.253   1.118   2.510 -0.5465  0.1216  0.0327
 5156TIP3   OH236882   6.696   2.640  17.064 -0.2744 -0.2203 -0.2587
 5156TIP3    H136883   6.656   2.566  17.110  1.4373 -0.3048  1.1152
 5156TIP3    H236884   6.660   2.718  17.108  1.2723 -0.2989  1.1904
 5157TIP3   OH236885   5.118   0.561   2.489 -0.2247  0.3645  0.7020
 5157TIP3    H136886   5.147   0.470   2.496 -3.6976 -0.7762  0.8544
 5157TIP3    H236887   5.138   0.599   2.574 -0.2219 -0.6772  1.1712
 5158TIP3   OH236888   3.058   6.661   4.350  0.0815  0.1668 -0.0033
 5158TIP3    H136889   3.060   6.584   4.293 -0.9929  0.4796 -0.4827
 5158TIP3    H236890   3.105   6.635   4.428 -1.0762 -1.2903  0.2259
 5159TIP3   OH236891   5.927   6.223  14.994 -0.4551 -0.3115 -0.6042
 5159TIP3    H136892   5.902   6.205  14.904 -0.5067 -0.6442 -0.5235
 5159TIP3    H236893   6.001   6.164  15.010  0.1213  0.3805 -0.7183
 5160TIP3   OH236894   2.216   1.487   5.297  0.1291 -0.0962  0.0777
 5160TIP3    H136895   2.121   1.472   5.305  0.2444 -0.2641  1.1621
 5160TIP3    H236896   2.232   1.565   5.349  0.4520  0.4715 -0.8634
 5161TIP3   OH236897   2.281   4.134  15.756  0.2980 -0.4995  0.5077
 5161TIP3    H136898   2.318   4.080  15.687  0.6109  0.0842  0.2103
 5161TIP3    H236899   2.211   4.184  15.713  1.4167  0.9076  0.2621
 5162TIP3   OH236900   2.590   2.809   5.702 -0.3224  0.1495  0.3047
 5162TIP3    H136901   2.560   2.718   5.704  1.1779 -0.3454  0.7546
 5162TIP3    H236902   2.510   2.861   5.703 -1.1896 -1.1201  3.0413
 5163TIP3   OH236903   1.793   2.025   0.048 -0.0497 -0.1079  0.2374
 5163TIP3    H136904   1.790   2.112   0.089 -0.5058 -0.3880  0.8103
 5163TIP3    H236905   1.721   1.977   0.089 -0.2675 -0.5249 -0.6103
 5164TIP3   OH236906   4.276   0.291   0.703 -0.3049  0.2247 -0.2216
 5164TIP3    H136907   4.243   0.308   0.792 -0.6248  0.8343 -0.4501
 5164TIP3    H236908   4.298   0.378   0.669  0.0582 -0.0321 -0.6481
 5165TIP3   OH236909   2.755   6.025  14.897 -0.3538  0.1305  0.2200
 5165TIP3    H136910   2.721   6.070  14.820  1.9213  0.6041 -0.5139
 5165TIP3    H236911   2.677   6.007  14.950 -2.0865 -1.1776 -2.6769
 5166TIP3   OH236912   6.717   5.702   5.423  0.6030  0.1552  0.2175
 5166TIP3    H136913   6.767   5.636   5.471 -0.5787 -0.4916  0.5828
 5166TIP3    H236914   6.706   5.665   5.336  1.0960  0.4707  0.0214
 5167TIP3   OH236915   5.643   4.169   3.497 -0.4045 -0.2245 -0.2478
 5167TIP3    H136916   5.665   4.076   3.494  1.2893  0.1742 -1.1453
 5167TIP3    H236917   5.664   4.201   3.409  4.4077  2.1259  1.5995
 5168TIP3   OH236918   4.004   0.514   1.100 -0.1644  0.0508 -0.1172
 5168TIP3    H136919   3.918   0.485   1.130  0.5013 -1.7994  0.0882
 5168TIP3    H236920   4.048   0.546   1.178 -1.2433  2.6027 -0.4995
 5169TIP3   OH236921   2.365   0.010  10.569  0.4519 -0.8304  0.4506
 5169TIP3    H136922   2.442   0.023  10.623  1.1196 -0.2333 -0.6414
 5169TIP3    H236923   2.382   0.060  10.489 -1.7788  0.6718  0.8864
 5170TIP3   OH236924   2.559   4.973   4.218  0.2930  0.3381 -0.2879
 5170TIP3    H136925   2.560   4.882   4.249  2.2923 -0.1450 -1.6934
 5170TIP3    H236926   2.645   5.008   4.242  0.5484  1.0184 -2.1016
 5171TIP3   OH236927   4.508   6.612  15.053  0.5301  0.7280  0.1240
 5171TIP3    H136928   4.467   6.543  15.106  0.8981  0.5835  0.2196
 5171TIP3    H236929   4.449   6.622  14.978  1.0697 -0.4971 -0.4777
 5172TIP3   OH236930   6.277   3.872   1.368 -0.1997 -0.1732 -0.3339
 5172TIP3    H136931   6.357   3.821   1.360 -0.5809 -0.8738  0.2210
 5172TIP3    H236932   6.228   3.828   1.438 -0.7195  0.7034 -0.1390
 5173TIP3   OH236933   2.082   4.674  14.073 -0.1070  0.4048 -0.2403
 5173TIP3    H136934   2.112   4.583  14.081  2.1806  1.2382  1.2876
 5173TIP3    H236935   2.074   4.705  14.163 -0.0343  1.9664 -0.7468
 5174TIP3   OH236936   0.689   2.479   5.732  0.1938 -0.0765 -0.2130
 5174TIP3    H136937   0.784   2.472   5.729  0.1690 -0.3363 -0.4053
 5174TIP3    H236938   0.672   2.567   5.767  0.5007  0.2232 -0.8189
 5175TIP3   OH236939   0.690   2.865  16.565 -0.9470  0.1558  0.1363
 5175TIP3    H136940   0.744   2.935  16.602 -1.2168 -0.8866  2.5841
 5175TIP3    H236941   0.600   2.897  16.573 -0.8771  0.8312 -1.6311
 5176TIP3   OH236942   2.125   3.415  10.563  0.1835  0.0485  0.3616
 5176TIP3    H136943   2.195   3.407  10.499 -0.9650  1.7166 -1.1425
 5176TIP3    H236944   2.096   3.325  10.579  2.6181 -0.6453  0.9771
 5177TIP3   OH236945   5.057   3.272  14.491 -0.1540  0.3354  0.0252
 5177TIP3    H136946   4.961   3.276  14.484 -0.2473 -0.0967  1.0526
 5177TIP3    H236947   5.081   3.204  14.427 -0.5733  0.1096  0.0993
 5178TIP3   OH236948   2.519   0.391  11.341 -0.1471  0.3646  0.0443
 5178TIP3    H136949   2.427   0.393  11.314 -0.4866 -1.2299  1.0278
 5178TIP3    H236950   2.519   0.425  11.431  0.0098 -1.0238  0.5828
 5179TIP3   OH236951   4.957   3.014   4.804  0.5754  0.3434 -0.3917
 5179TIP3    H136952   5.000   3.049   4.726  2.4520  1.4796  1.1025
 5179TIP3    H236953   4.977   3.078   4.872 -0.1097 -1.2004  1.2803
 5180TIP3   OH236954   6.770   2.227  12.877  0.1832 -0.4331 -0.7423
 5180TIP3    H136955   6.753   2.177  12.957 -0.5917 -2.9832 -2.4139
 5180TIP3    H236956   6.824   2.168  12.823  0.6670  1.2125 -2.1176
 5181TIP3   OH236957   0.593   3.929   5.550 -0.5322  0.2647 -0.1394
 5181TIP3    H136958   0.541   3.894   5.477 -0.5453 -1.7832  0.8123
 5181TIP3    H236959   0.527   3.964   5.611 -0.5298  1.8286 -1.0299
 5182TIP3   OH236960   5.478   0.564   6.195  0.0747 -0.2233 -0.1909
 5182TIP3    H136961   5.491   0.471   6.215 -0.2990 -0.6195 -1.7469
 5182TIP3    H236962   5.566   0.601   6.196 -0.0166  0.0140  3.2798
 5183TIP3   OH236963   2.804   0.235  12.181 -0.0564  0.3764  0.0311
 5183TIP3    H136964   2.809   0.142  12.205 -1.1497  0.3572  0.2236
 5183TIP3    H236965   2.747   0.236  12.104 -0.0019  0.8806 -0.0020
 5184TIP3   OH236966   3.889   5.607   2.250  0.2820 -0.8184 -0.0569
 5184TIP3    H136967   3.884   5.683   2.308 -3.2255 -2.2905  1.7210
 5184TIP3    H236968   3.955   5.551   2.289  1.6902  0.5309 -0.4505
 5185TIP3   OH236969   5.961   1.218  14.577  0.1180 -0.5700  0.4067
 5185TIP3    H136970   5.975   1.180  14.490 -1.9370  1.3881 -0.8417
 5185TIP3    H236971   5.874   1.188  14.603  0.3967 -0.5030  1.4441
 5186TIP3   OH236972   0.658   4.392  14.024 -0.4236  0.2894 -0.8076
 5186TIP3    H136973   0.602   4.402  13.948  0.7708  0.2220 -1.7161
 5186TIP3    H236974   0.638   4.304  14.058 -1.1334  0.4173 -0.8971
 5187TIP3   OH236975   0.284   0.920  15.694  0.2259  0.8082  0.0230
 5187TIP3    H136976   0.308   0.843  15.642  0.3391  1.3736 -0.7786
 5187TIP3    H236977   0.354   0.983  15.675 -0.4899  1.5239 -0.2434
 5188TIP3   OH236978   5.866   0.981   5.189 -0.7530  0.2826  0.1081
 5188TIP3    H136979   5.944   1.024   5.225 -1.2796  0.7397  0.7074
 5188TIP3    H236980   5.872   0.891   5.221 -0.8887  0.5262  0.8238
 5189TIP3   OH236981   5.418   5.383  11.727  0.1477 -0.0476  0.0082
 5189TIP3    H136982   5.362   5.317  11.686 -1.9344  2.6433 -1.6422
 5189TIP3    H236983   5.399   5.376  11.820 -1.6047 -0.4212 -0.3592
 5190TIP3   OH236984   4.463   0.181  15.974 -0.3808 -0.0138  1.2716
 5190TIP3    H136985   4.423   0.230  16.045  0.2479 -1.3284  2.5672
 5190TIP3    H236986   4.545   0.147  16.011 -0.3721 -1.2986  0.1333
 5191TIP3   OH236987   2.301   1.613  16.708  0.4121  0.3440  0.2447
 5191TIP3    H136988   2.344   1.528  16.704 -2.6167 -1.2366 -0.1668
 5191TIP3    H236989   2.217   1.596  16.751 -3.2047  1.7322 -5.6008
 5192TIP3   OH236990   2.658   3.338  12.227  0.1675 -0.0024  0.3162
 5192TIP3    H136991   2.592   3.332  12.158 -0.2002 -0.7340  0.7336
 5192TIP3    H236992   2.631   3.274  12.293  1.3316 -0.3760  0.4524
 5193TIP3   OH236993   5.845   0.858  13.738 -0.1194  0.0384 -0.2897
 5193TIP3    H136994   5.867   0.861  13.832 -1.6009  0.7041  0.0424
 5193TIP3    H236995   5.924   0.891  13.694  0.5690 -0.2283  0.7163
 5194TIP3   OH236996   6.697   2.900  15.370  0.1408 -0.2181  0.0836
 5194TIP3    H136997   6.664   2.988  15.388 -0.2766 -0.5011  0.6978
 5194TIP3    H236998   6.725   2.904  15.278 -2.4196 -0.2034 -0.7374
 5195TIP3   OH236999   6.581   1.153  16.979  0.3096 -0.1896  0.1363
 5195TIP3    H137000   6.496   1.109  16.978  0.3129 -0.2136 -1.6104
 5195TIP3    H237001   6.620   1.129  17.063 -1.4708 -0.0274  1.0353
 5196TIP3   OH237002   2.327   5.780  16.603 -0.2505  0.0110  0.5467
 5196TIP3    H137003   2.346   5.839  16.676 -0.7326 -0.2578  0.8944
 5196TIP3    H237004   2.409   5.777  16.553 -0.1292  0.7287  0.6913
 5197TIP3   OH237005   2.832   4.759   4.127  0.1692 -0.1495  0.0251
 5197TIP3    H137006   2.814   4.769   4.220 -1.5589 -0.6230 -0.2481
 5197TIP3    H237007   2.755   4.714   4.092  1.4146 -1.2674 -1.3728
 5198TIP3   OH237008   1.465   5.668  11.328 -0.0274  0.2635  0.3471
 5198TIP3    H137009   1.485   5.680  11.236  0.8561  2.0446  0.7731
 5198TIP3    H237010   1.379   5.709  11.340 -0.4012 -0.4654  0.2088
 5199TIP3   OH237011   2.374   5.997  16.380  0.3425 -0.6745 -0.3605
 5199TIP3    H137012   2.282   6.024  16.380  0.5740  0.2028  0.4874
 5199TIP3    H237013   2.419   6.067  16.332  0.3020 -2.1560 -2.5786
 5200TIP3   OH237014   5.906   4.492  14.909 -0.1773  0.1180  0.3106
 5200TIP3    H137015   5.970   4.525  14.973  1.0737 -0.6614 -0.5263
 5200TIP3    H237016   5.922   4.543  14.830  0.6141 -1.2607 -0.4492
 5201TIP3   OH237017   1.392   4.297   3.482  0.4459 -0.2471 -0.2298
 5201TIP3    H137018   1.373   4.277   3.574  0.2981 -3.2974 -0.8752
 5201TIP3    H237019   1.308   4.329   3.448 -0.1212 -1.2803  0.1543
 5202TIP3   OH237020   1.900   3.365   5.849  0.4116  0.4197 -0.0232
 5202TIP3    H137021   1.839   3.322   5.790  1.1537  1.1270 -1.3201
 5202TIP3    H237022   1.951   3.293   5.887 -0.2738 -0.0549  0.0190
 5203TIP3   OH237023   0.934   6.366  10.369 -0.3968 -0.2342  0.7025
 5203TIP3    H137024   0.948   6.273  10.352 -0.4042 -0.1906  0.4510
 5203TIP3    H237025   0.915   6.403  10.283  0.2724  0.1182  0.6981
 5204TIP3   OH237026   6.017   2.810  11.593  0.6528 -0.0657 -0.7272
 5204TIP3    H137027   5.931   2.782  11.623  0.8660 -1.3244 -1.2665
 5204TIP3    H237028   6.079   2.763  11.649  0.9772  1.7906  0.4883
 5205TIP3   OH237029   1.929   0.807  16.426  0.3473 -0.2223  0.2070
 5205TIP3    H137030   1.923   0.792  16.332 -0.3762  0.0732  0.2049
 5205TIP3    H237031   2.009   0.857  16.438 -0.9179  2.0141 -0.5278
 5206TIP3   OH237032   5.358   2.260  11.141 -0.4332 -0.0124  0.0463
 5206TIP3    H137033   5.408   2.340  11.128 -0.1548 -0.2816 -0.5498
 5206TIP3    H237034   5.310   2.248  11.059 -0.7419 -0.2667  0.2610
 5207TIP3   OH237035   2.024   2.739  16.791  0.9033 -0.0523  1.1281
 5207TIP3    H137036   2.057   2.828  16.778  1.2540  0.1131  3.0642
 5207TIP3    H237037   2.101   2.688  16.816  0.9214 -1.1799 -1.0335
 5208TIP3   OH237038   0.451   6.403  11.955  0.1536  0.1327  0.6574
 5208TIP3    H137039   0.477   6.444  12.038 -0.0360  0.4377  0.5693
 5208TIP3    H237040   0.524   6.419  11.896 -1.1546  2.9656 -0.2555
 5209TIP3   OH237041   5.913   0.464  10.395  0.2594 -0.4225  0.1819
 5209TIP3    H137042   6.005   0.451  10.372 -0.5775 -1.4309 -2.8252
 5209TIP3    H237043   5.877   0.518  10.324 -1.2145  0.9386  1.9149
 5210TIP3   OH237044   1.589   6.322  16.228 -0.0372 -0.6806  0.3118
 5210TIP3    H137045   1.642   6.267  16.286  2.5847  0.6596 -0.7646
 5210TIP3    H237046   1.564   6.397  16.282 -1.2742 -1.5470  0.9616
 5211TIP3   OH237047   1.239   5.205  15.997  0.2322 -0.0449 -0.1648
 5211TIP3    H137048   1.324   5.185  16.037  1.2013  1.1892 -1.5697
 5211TIP3    H237049   1.260   5.231  15.908 -1.5389  1.3831 -0.1809
 5212TIP3   OH237050   2.433   5.625   5.624 -0.3866  0.7203 -0.5067
 5212TIP3    H137051   2.368   5.685   5.587  0.1542  0.8087 -1.3463
 5212TIP3    H237052   2.495   5.682   5.670 -2.2974  0.4266  2.5162
 5213TIP3   OH237053   1.950   0.633   2.471 -0.8867 -0.1063  0.1929
 5213TIP3    H137054   2.026   0.576   2.472 -0.1554  0.8115 -1.1708
 5213TIP3    H237055   1.881   0.582   2.514 -0.2638 -2.0102 -0.9927
 5214TIP3   OH237056   6.044   2.481  13.082  0.0637 -0.5558 -0.4572
 5214TIP3    H137057   6.140   2.473  13.086  0.0444 -0.9470 -0.8351
 5214TIP3    H237058   6.029   2.567  13.042  0.2558 -0.1514  0.3279
 5215TIP3   OH237059   0.959   1.772  17.158  0.0236  0.3394 -0.3016
 5215TIP3    H137060   0.917   1.748  17.240 -0.3799  0.5419 -0.4502
 5215TIP3    H237061   0.890   1.814  17.107  0.5362  1.1545 -0.3365
 5216TIP3   OH237062   2.894   2.680   5.466  0.3242 -0.0480  0.7649
 5216TIP3    H137063   2.884   2.769   5.500  2.3313  0.2576  0.6210
 5216TIP3    H237064   2.896   2.625   5.544  3.6557  0.5294  1.1709
 5217TIP3   OH237065   4.650   0.399  14.925  0.1863 -0.2503  0.4135
 5217TIP3    H137066   4.742   0.398  14.901  0.0422 -1.9427 -0.1185
 5217TIP3    H237067   4.626   0.307  14.931 -1.5680  0.1797  0.1814
 5218TIP3   OH237068   4.946   4.339   3.295 -0.3103  0.2483  0.1610
 5218TIP3    H137069   4.991   4.392   3.361  2.0015 -0.3660 -0.8533
 5218TIP3    H237070   5.012   4.275   3.267 -1.3433  0.2758 -2.4634
 5219TIP3   OH237071   0.303   2.257   2.554  0.0828  0.0804 -0.4134
 5219TIP3    H137072   0.306   2.220   2.466 -0.2911  0.0374 -0.4095
 5219TIP3    H237073   0.341   2.344   2.545 -2.6116  1.2277 -1.2010
 5220TIP3   OH237074   1.711   3.495  13.244  0.3202 -0.4888 -0.3594
 5220TIP3    H137075   1.643   3.440  13.283 -1.8273  1.5658 -1.0778
 5220TIP3    H237076   1.702   3.482  13.150 -0.4309  1.2505 -0.5582
 5221TIP3   OH237077   3.711   0.665   2.317  0.0933 -0.0378  0.3671
 5221TIP3    H137078   3.747   0.592   2.266  1.8931  0.7111  0.5024
 5221TIP3    H237079   3.765   0.666   2.397  0.3924  1.7122  0.1561
 5222TIP3   OH237080   5.735   6.503   5.486 -0.7593 -0.2624  0.3974
 5222TIP3    H137081   5.786   6.562   5.541 -0.5771  0.7046 -0.7886
 5222TIP3    H237082   5.801   6.447   5.444 -0.8969 -0.9895  1.1271
 5223TIP3   OH237083   4.455   1.470  16.134 -0.1485 -0.4412  0.2653
 5223TIP3    H137084   4.420   1.516  16.058 -1.2534 -2.1213 -0.2763
 5223TIP3    H237085   4.385   1.472  16.199 -0.1668 -1.2099  0.2848
 5224TIP3   OH237086   0.259   4.527   4.048  0.1011 -0.3202 -0.3379
 5224TIP3    H137087   0.300   4.604   4.007 -1.2009  0.1818 -0.7271
 5224TIP3    H237088   0.199   4.564   4.113  0.2195 -1.0463  0.1915
 5225TIP3   OH237089   4.794   2.706   2.299  0.3554  0.1362 -0.7081
 5225TIP3    H137090   4.820   2.623   2.340 -0.5273  0.1469 -0.1185
 5225TIP3    H237091   4.830   2.701   2.210 -1.2073 -1.6646 -1.2749
 5226TIP3   OH237092   5.022   0.558  14.951 -0.7484 -0.0985  0.7601
 5226TIP3    H137093   5.073   0.599  14.881  0.2379 -0.6215  1.1675
 5226TIP3    H237094   4.978   0.631  14.994 -1.5081  0.2144 -0.5127
 5227TIP3   OH237095   3.702   5.683   1.010 -0.2020 -0.0095 -0.3999
 5227TIP3    H137096   3.657   5.743   0.950  0.9754  5.0010  3.4080
 5227TIP3    H237097   3.794   5.703   0.999  0.1810 -0.6542  1.4629
 5228TIP3   OH237098   2.481   3.307  12.025  0.3094 -0.2013 -0.1027
 5228TIP3    H137099   2.550   3.267  11.973 -1.1381 -1.6995 -0.9313
 5228TIP3    H237100   2.409   3.322  11.963 -0.7134 -0.1851  1.0564
 5229TIP3   OH237101   6.367   2.154   5.646  0.2078 -0.3000  0.2523
 5229TIP3    H137102   6.372   2.235   5.595  2.9571  0.6592  1.8705
 5229TIP3    H237103   6.390   2.181   5.735 -0.8220 -2.5441  1.2423
 5230TIP3   OH237104   1.779   2.207  14.525 -0.8385  0.0341  0.6304
 5230TIP3    H137105   1.769   2.112  14.533 -1.6637  0.0148 -0.5272
 5230TIP3    H237106   1.776   2.224  14.431  1.5132  0.9846  0.6932
 5231TIP3   OH237107   0.605   3.739   3.729 -0.1393 -0.0041 -0.1527
 5231TIP3    H137108   0.557   3.662   3.759 -0.3948 -0.1190 -0.8251
 5231TIP3    H237109   0.547   3.779   3.664 -1.0910  2.1463  1.9531
 5232TIP3   OH237110   1.134   5.173  13.945  0.2158 -0.4406  0.1865
 5232TIP3    H137111   1.159   5.080  13.951 -1.9507 -0.9824  1.6308
 5232TIP3    H237112   1.093   5.181  13.859 -1.6898 -1.4070  0.9724
 5233TIP3   OH237113   3.921   6.529   4.641  0.3816  0.5769 -0.1495
 5233TIP3    H137114   3.828   6.548   4.648  0.7230  1.7024  1.7530
 5233TIP3    H237115   3.926   6.433   4.642 -0.5984  0.5022  2.6473
 5234TIP3   OH237116   5.981   4.969   1.670 -0.3937  0.9100 -0.5441
 5234TIP3    H137117   5.901   4.938   1.712  0.7952  0.1787  1.2382
 5234TIP3    H237118   6.023   5.024   1.736 -0.5037  3.1050 -2.2557
 5235TIP3   OH237119   3.732   5.332  16.266  0.0762  0.4351 -0.1673
 5235TIP3    H137120   3.686   5.257  16.229  0.9520  1.2338 -2.9910
 5235TIP3    H237121   3.824   5.313  16.251  0.3147  1.9391 -0.6131
 5236TIP3   OH237122   0.139   0.967   4.033 -0.0982  0.3860 -0.0202
 5236TIP3    H137123   0.092   0.923   4.104 -0.3825 -2.3975 -1.8822
 5236TIP3    H237124   0.070   1.011   3.983 -0.3217 -0.6879 -0.6629
 5237TIP3   OH237125   3.025   0.452   2.427 -0.5186  0.0903 -0.3450
 5237TIP3    H137126   3.101   0.473   2.372 -1.0491  2.1487 -0.3414
 5237TIP3    H237127   3.062   0.408   2.503  0.4810 -0.6141 -1.2229
 5238TIP3   OH237128   1.782   2.287  12.579 -0.7892  0.4057 -0.0973
 5238TIP3    H137129   1.764   2.205  12.532  0.5058  0.5579 -0.9041
 5238TIP3    H237130   1.755   2.270  12.669 -1.1195 -0.6989 -0.3994
 5239TIP3   OH237131   4.034   2.982   3.312 -0.0215 -0.1544 -0.2037
 5239TIP3    H137132   4.085   2.935   3.379 -0.9814  1.8603  2.0108
 5239TIP3    H237133   3.973   2.917   3.278 -0.0276 -1.0277  1.4368
 5240TIP3   OH237134   6.257   2.806  16.415 -0.4377  0.3695  0.4847
 5240TIP3    H137135   6.212   2.817  16.498 -2.0627 -1.1012 -0.1870
 5240TIP3    H237136   6.223   2.724  16.379  0.6919  0.6677 -1.3357
 5241TIP3   OH237137   2.091   0.071  13.922 -0.9442 -0.5913 -0.0619
 5241TIP3    H137138   2.185   0.053  13.912 -1.2140 -1.8936 -0.4378
 5241TIP3    H237139   2.051  -0.016  13.922 -2.0421 -0.0938  1.2306
 5242TIP3   OH237140   4.578   1.926  16.623  0.4837  0.0721 -0.1091
 5242TIP3    H137141   4.664   1.959  16.651  0.1862 -0.5878  1.6989
 5242TIP3    H237142   4.569   1.954  16.532  1.1656  3.1012  0.7009
 5243TIP3   OH237143   0.601   6.310  14.644 -0.5107 -0.2260 -0.3619
 5243TIP3    H137144   0.539   6.270  14.706  0.5570 -1.2683  0.0412
 5243TIP3    H237145   0.627   6.238  14.587 -0.0816  0.3360 -0.8771
 5244TIP3   OH237146   1.554   5.642   1.616 -0.0168  0.2880  0.3521
 5244TIP3    H137147   1.623   5.704   1.595 -0.2668  1.1989  2.0861
 5244TIP3    H237148   1.532   5.661   1.708  0.1702 -2.6289  1.0466
 5245TIP3   OH237149   4.549   5.208   2.232 -0.0542  0.3478  0.0063
 5245TIP3    H137150   4.608   5.140   2.200  1.0894  0.0690  2.5830
 5245TIP3    H237151   4.604   5.263   2.287 -1.5288  1.9021 -0.0381
 5246TIP3   OH237152   1.633   0.345  12.218  0.4122 -0.5403  0.2556
 5246TIP3    H137153   1.641   0.341  12.313 -1.1026  0.4213  0.4615
 5246TIP3    H237154   1.685   0.272  12.185 -0.4569 -1.9281  1.9085
 5247TIP3   OH237155   4.546   4.371  13.610  0.8617 -0.5180 -0.3814
 5247TIP3    H137156   4.456   4.341  13.595  0.2075  1.6711 -1.0802
 5247TIP3    H237157   4.587   4.363  13.524  0.7122  0.4222 -0.5501
 5248TIP3   OH237158   4.620   1.065  11.533  0.4178  0.0896  0.4067
 5248TIP3    H137159   4.629   0.973  11.510 -0.3142  0.2137 -0.4185
 5248TIP3    H237160   4.686   1.110  11.480  1.0264  0.0023  1.0865
 5249TIP3   OH237161   1.384   4.129   0.002 -0.0606  0.7602 -0.1978
 5249TIP3    H137162   1.422   4.123  -0.086  2.6110 -1.1293  1.0463
 5249TIP3    H237163   1.379   4.039   0.033 -1.1737  1.3959  1.5597
 5250TIP3   OH237164   6.631   4.281   6.741 -0.0902 -0.0504  0.2109
 5250TIP3    H137165   6.659   4.190   6.752  1.3207  0.3849  0.3017
 5250TIP3    H237166   6.656   4.324   6.823 -0.6225  0.4571  0.1120
 5251TIP3   OH237167   6.242   4.576   2.070 -0.4182  0.4622 -0.0760
 5251TIP3    H137168   6.251   4.560   1.976 -2.8298 -0.6222 -0.1661
 5251TIP3    H237169   6.307   4.520   2.111 -0.0626  0.1623 -1.0550
 5252TIP3   OH237170   6.452   2.212  14.140 -1.0434 -0.1378 -0.1747
 5252TIP3    H137171   6.436   2.239  14.230  2.2090  0.1527  0.3814
 5252TIP3    H237172   6.439   2.117  14.140 -0.9926 -0.1423  0.6225
 5253TIP3   OH237173   2.432   4.527  13.621 -0.1849  0.2396 -0.0292
 5253TIP3    H137174   2.469   4.459  13.565 -0.8892  0.3025 -0.5781
 5253TIP3    H237175   2.369   4.480  13.676  2.3504 -0.2832  2.5216
 5254TIP3   OH237176   0.071   3.641   0.071 -1.3016  0.4675 -0.3625
 5254TIP3    H137177   0.125   3.583   0.017 -1.2688  0.1827 -0.0248
 5254TIP3    H237178  -0.009   3.654   0.019 -1.7734 -0.7625  0.0285
 5255TIP3   OH237179   4.295   0.215   4.144  0.0419 -0.6523  0.2600
 5255TIP3    H137180   4.356   0.281   4.175 -1.2717  0.1810  1.1326
 5255TIP3    H237181   4.241   0.261   4.080  0.6434 -1.5154 -0.8795
 5256TIP3   OH237182   4.516   2.946   5.296 -0.2119  0.3482 -0.5408
 5256TIP3    H137183   4.439   2.937   5.352  0.8515 -0.2995  0.8359
 5256TIP3    H237184   4.586   2.974   5.355  1.4816 -2.4777 -1.1027
 5257TIP3   OH237185   4.790   1.739   4.233  0.5685 -0.0482  0.0838
 5257TIP3    H137186   4.798   1.675   4.162  1.3236  0.9879 -0.7684
 5257TIP3    H237187   4.716   1.794   4.207  1.1551  0.6363 -0.1394
 5258TIP3   OH237188   0.545   6.002  12.984  0.2535 -0.0107  0.0230
 5258TIP3    H137189   0.622   5.989  13.039  1.3296  0.1175 -1.4317
 5258TIP3    H237190   0.521   5.913  12.955  0.0158 -0.0223  0.2530
 5259TIP3   OH237191   0.681   5.591  15.790 -0.3214  0.6429 -0.0207
 5259TIP3    H137192   0.755   5.557  15.840  0.0484  1.7691  0.2171
 5259TIP3    H237193   0.605   5.578  15.848 -0.0023  1.3024  0.5590
 5260TIP3   OH237194   2.012   2.366  13.329  0.4827  0.0343  0.5262
 5260TIP3    H137195   2.035   2.452  13.366  0.1439  0.3374  0.0454
 5260TIP3    H237196   1.918   2.372  13.313  0.8839  0.5084 -1.8734
 5261TIP3   OH237197   2.226   5.735   3.172 -0.5005  0.3840 -0.2492
 5261TIP3    H137198   2.157   5.670   3.160 -1.3026  1.1056  0.4489
 5261TIP3    H237199   2.273   5.706   3.250 -0.3330  0.1932 -0.4172
 5262TIP3   OH237200   6.346   1.579  13.932  0.1327  0.0570 -1.1324
 5262TIP3    H137201   6.272   1.622  13.891 -0.4430 -0.3135 -0.4895
 5262TIP3    H237202   6.333   1.591  14.026 -0.2876 -1.8892 -0.9091
 5263TIP3   OH237203   5.153   5.371   1.653  0.2824  0.1541 -0.3518
 5263TIP3    H137204   5.114   5.360   1.566  0.2467  2.3570 -0.6425
 5263TIP3    H237205   5.080   5.362   1.714  0.0822 -0.1259 -0.6354
 5264TIP3   OH237206   0.853   2.651  14.799 -0.5797  0.1944  0.0723
 5264TIP3    H137207   0.817   2.733  14.833 -0.4351  0.5088 -0.5371
 5264TIP3    H237208   0.781   2.612  14.749 -0.2177  0.6002 -0.7627
 5265TIP3   OH237209   1.086   3.144  15.785 -0.7114 -0.5132  0.5764
 5265TIP3    H137210   1.112   3.055  15.810  0.8447 -0.4406 -0.7161
 5265TIP3    H237211   1.062   3.185  15.868 -0.8866 -1.9589  1.2614
 5266TIP3   OH237212   2.570   4.837  15.707 -0.5175 -0.3532 -0.7716
 5266TIP3    H137213   2.489   4.873  15.742  0.4731  0.4217  0.7832
 5266TIP3    H237214   2.568   4.745  15.732 -0.8762 -0.3133 -0.6519
 5267TIP3   OH237215   1.892   6.638   2.491 -0.2177 -0.1866 -0.4747
 5267TIP3    H137216   1.931   6.551   2.498  1.4607  0.6325  0.7735
 5267TIP3    H237217   1.963   6.698   2.514 -2.4251  1.3273  2.8900
 5268TIP3   OH237218   2.422   1.623   3.174  0.6143  1.1569 -0.6269
 5268TIP3    H137219   2.497   1.651   3.227 -0.6819  1.9465  0.8575
 5268TIP3    H237220   2.395   1.540   3.213 -0.9429  2.2120  0.6256
 5269TIP3   OH237221   5.222   2.385  15.678 -0.8412  0.1176 -0.9548
 5269TIP3    H137222   5.208   2.322  15.607 -1.7952 -0.1016 -0.5726
 5269TIP3    H237223   5.177   2.347  15.753 -2.1102  1.6460 -0.9295
 5270TIP3   OH237224   1.454   4.874   5.109  0.4803 -0.0083  0.1221
 5270TIP3    H137225   1.376   4.853   5.059  1.1937 -1.6490 -0.3250
 5270TIP3    H237226   1.515   4.909   5.045  0.9040 -0.8372  0.0608
 5271TIP3   OH237227   4.703   5.604  14.802  0.4592 -0.5799  0.3458
 5271TIP3    H137228   4.619   5.632  14.765  0.0895 -1.3959  0.5634
 5271TIP3    H237229   4.766   5.669  14.770  0.0741 -1.0472 -1.3903
 5272TIP3   OH237230   1.537   2.095  16.252 -0.2702  0.1770  0.0668
 5272TIP3    H137231   1.558   2.108  16.345 -0.4796 -0.3154  0.1856
 5272TIP3    H237232   1.473   2.024  16.252 -2.4627  2.0734 -0.2059
 5273TIP3   OH237233   1.699   6.584   1.107  0.6271 -0.5815 -0.2371
 5273TIP3    H137234   1.646   6.662   1.124  0.9562 -0.3787 -0.1263
 5273TIP3    H237235   1.746   6.569   1.189  0.8253 -0.6878 -0.3686
 5274TIP3   OH237236   0.201   0.064  13.566 -0.1164 -0.2216 -0.7938
 5274TIP3    H137237   0.233  -0.021  13.535 -0.1308 -1.0833  1.4801
 5274TIP3    H237238   0.118   0.077  13.520  0.3755 -0.9372 -1.9164
 5275TIP3   OH237239   6.442   0.124   2.235  0.7642 -0.1471  0.2623
 5275TIP3    H137240   6.392   0.156   2.310  3.2987  1.0625  1.5020
 5275TIP3    H237241   6.434   0.029   2.239 -0.6691 -0.0132  0.9429
 5276TIP3   OH237242   2.344   5.392   3.384 -0.1192  0.0503 -0.0134
 5276TIP3    H137243   2.412   5.433   3.330  0.4743  0.3120  0.9373
 5276TIP3    H237244   2.347   5.438   3.467 -1.2533 -0.1471  0.1516
 5277TIP3   OH237245   2.434   4.251   2.839  0.9283 -0.5811 -0.1936
 5277TIP3    H137246   2.491   4.328   2.834 -0.8019  0.6781 -0.7318
 5277TIP3    H237247   2.391   4.247   2.754 -0.9999 -0.5703  0.7665
 5278TIP3   OH237248   2.718   5.155  16.114  0.3378  0.7191  0.8172
 5278TIP3    H137249   2.651   5.219  16.091 -1.0967 -1.6757 -1.9533
 5278TIP3    H237250   2.763   5.136  16.032  4.2250  1.9551  2.5363
 5279TIP3   OH237251   3.409   0.042  16.406 -0.1212 -0.3644 -0.4761
 5279TIP3    H137252   3.404   0.069  16.498  0.3385  1.3986 -0.9518
 5279TIP3    H237253   3.440   0.120  16.360  1.9809 -1.9465 -1.7991
 5280TIP3   OH237254   5.178   0.427  14.480 -0.0826  0.4251 -0.1225
 5280TIP3    H137255   5.187   0.333  14.489  2.0407  0.7606  1.6635
 5280TIP3    H237256   5.089   0.446  14.511  0.4041 -0.7098  2.0388
 5281TIP3   OH237257   2.128   3.690   1.507 -0.0517  0.0461 -0.2449
 5281TIP3    H137258   2.150   3.738   1.428 -0.6763 -0.5844 -0.8070
 5281TIP3    H237259   2.096   3.757   1.567  0.7070  0.5685 -0.4046
 5282TIP3   OH237260   0.850   0.337  14.155  0.1833 -0.1643  0.5899
 5282TIP3    H137261   0.852   0.370  14.245  1.3852  1.8156 -0.1511
 5282TIP3    H237262   0.940   0.310  14.137 -0.2683 -1.5342  0.3130
 5283TIP3   OH237263   0.128   4.190   4.370 -0.0066  0.5078 -0.2029
 5283TIP3    H137264   0.223   4.195   4.359  0.2507 -3.1578 -0.3892
 5283TIP3    H237265   0.093   4.255   4.309  2.3148  0.8541 -1.2277
 5284TIP3   OH237266   2.485   5.470   2.929  0.0043 -0.2523 -0.7538
 5284TIP3    H137267   2.521   5.539   2.874  4.7822 -0.9305  1.2454
 5284TIP3    H237268   2.505   5.498   3.018 -0.9924 -2.6086  0.2457
 5285TIP3   OH237269   4.526   0.535  10.697 -0.4332 -0.0816  0.1966
 5285TIP3    H137270   4.561   0.624  10.692 -1.3465  0.2148 -1.4668
 5285TIP3    H237271   4.588   0.482  10.647 -0.6467 -0.1130 -0.0378
 5286TIP3   OH237272   5.606   2.444   5.219 -0.2980 -0.3515  0.1347
 5286TIP3    H137273   5.687   2.397   5.238  0.1007  0.5883  0.8105
 5286TIP3    H237274   5.587   2.424   5.128  0.6291 -0.6864  0.0092
 5287TIP3   OH237275   6.455   4.795  16.579  0.4775 -0.0633 -0.3490
 5287TIP3    H137276   6.532   4.811  16.634  0.6830  0.0337 -0.6631
 5287TIP3    H237277   6.394   4.747  16.635  0.5675  0.2992  0.0585
 5288TIP3   OH237278   3.670   6.472  11.883 -0.6610 -0.1706 -0.0688
 5288TIP3    H137279   3.702   6.383  11.900 -1.4586 -0.4550 -0.0662
 5288TIP3    H237280   3.581   6.460  11.851 -1.1000  0.6828  0.8081
 5289TIP3   OH237281   5.332   3.480   1.707  0.0086  0.7209  0.3441
 5289TIP3    H137282   5.306   3.435   1.626  0.7318  0.3146  0.3241
 5289TIP3    H237283   5.251   3.489   1.757 -0.0759 -1.0923  0.5687
 5290TIP3   OH237284   3.881   5.999  14.845 -0.3937 -0.0372 -0.1788
 5290TIP3    H137285   3.822   5.933  14.883 -1.6446  1.7086  1.0110
 5290TIP3    H237286   3.904   6.055  14.919  0.7749  0.7966 -1.1512
 5291TIP3   OH237287   0.584   5.813   4.915 -0.5340  0.3662  0.2015
 5291TIP3    H137288   0.647   5.884   4.928 -1.0782  1.0968 -1.1234
 5291TIP3    H237289   0.562   5.785   5.004 -0.6787  2.1780  0.7629
 5292TIP3   OH237290   3.700   4.308   0.661 -0.3446  0.0175 -0.2807
 5292TIP3    H137291   3.771   4.320   0.726  0.2800 -1.6885 -0.6253
 5292TIP3    H237292   3.687   4.396   0.625  2.6594  0.1218 -1.2896
 5293TIP3   OH237293   2.866   4.641   0.150  0.1545  0.0482 -0.4501
 5293TIP3    H137294   2.866   4.595   0.234  2.2687 -1.2138 -1.1086
 5293TIP3    H237295   2.944   4.697   0.154  0.0806  0.2193 -1.4457
 5294TIP3   OH237296   0.376   2.365   3.581  0.1942 -0.6482 -0.4090
 5294TIP3    H137297   0.471   2.376   3.588  0.5183 -3.6004  0.6920
 5294TIP3    H237298   0.364   2.308   3.505 -0.6811 -0.6194 -0.3003
 5295TIP3   OH237299   5.410   4.591   2.347  0.0341  0.0109 -0.0009
 5295TIP3    H137300   5.386   4.518   2.290  0.2208 -0.4673  0.5267
 5295TIP3    H237301   5.454   4.550   2.421  0.9568  0.7358 -0.1396
 5296TIP3   OH237302   0.842   5.444   0.401 -1.0455 -0.2636 -0.1678
 5296TIP3    H137303   0.909   5.378   0.413  0.6505  0.7286 -3.6367
 5296TIP3    H237304   0.826   5.446   0.307 -0.8367  4.4026 -0.2294
 5297TIP3   OH237305   0.173   6.516  14.132  0.1331 -0.2728 -0.2266
 5297TIP3    H137306   0.204   6.606  14.127 -1.6183  0.3533 -0.1669
 5297TIP3    H237307   0.077   6.523  14.136 -0.1174 -2.1719 -1.6037
 5298TIP3   OH237308   4.169   1.607   1.299  0.2483 -0.0539  0.2783
 5298TIP3    H137309   4.156   1.599   1.394  2.5012 -0.2314  0.6158
 5298TIP3    H237310   4.263   1.622   1.290 -0.4381  3.5292 -1.7350
 5299TIP3   OH237311   2.878   1.053  14.720  0.2011  0.1701 -0.3784
 5299TIP3    H137312   2.868   0.980  14.782 -0.4289  0.4068 -0.1966
 5299TIP3    H237313   2.821   1.030  14.647  0.8309 -0.0349 -0.8070
 5300TIP3   OH237314   0.774   0.754  13.748  0.0350 -0.4467 -0.3785
 5300TIP3    H137315   0.840   0.685  13.736  0.1207 -0.2885 -0.8109
 5300TIP3    H237316   0.773   0.769  13.842  0.9631 -0.1132 -0.4119
 5301TIP3   OH237317   0.079   5.690  13.098 -0.4127 -0.6560 -0.2729
 5301TIP3    H137318   0.135   5.737  13.160 -0.9754 -2.8295  1.9834
 5301TIP3    H237319   0.140   5.653  13.034  0.3726  0.0130  0.0813
 5302TIP3   OH237320   3.924   4.006  11.883  0.2960 -0.2698 -0.3522
 5302TIP3    H137321   3.842   4.010  11.833 -0.0456 -0.6504  0.1579
 5302TIP3    H237322   3.940   3.912  11.895 -0.6711 -0.1992  1.8860
 5303TIP3   OH237323   5.457   4.447   4.621  0.3298  0.2560 -0.1104
 5303TIP3    H137324   5.485   4.535   4.646  1.8566 -0.6959  1.5924
 5303TIP3    H237325   5.521   4.420   4.555 -0.9712  0.9346 -1.7048
 5304TIP3   OH237326   6.070   4.119   2.431  0.0793  0.1806 -0.1357
 5304TIP3    H137327   6.119   4.189   2.475 -1.0833  1.8498 -1.4354
 5304TIP3    H237328   6.136   4.070   2.382  1.0724 -0.3908  1.6860
 5305TIP3   OH237329   5.213   6.293  16.471  0.1698 -0.0469 -0.5751
 5305TIP3    H137330   5.296   6.262  16.506  1.4003  0.5311 -2.8679
 5305TIP3    H237331   5.151   6.222  16.488  1.1756 -0.5741  0.9480
 5306TIP3   OH237332   6.207   1.369   2.014 -0.1982  0.2845  0.0855
 5306TIP3    H137333   6.128   1.382   2.067 -0.6680 -0.7079 -0.3376
 5306TIP3    H237334   6.277   1.411   2.063 -0.9611  0.9877  0.5770
 5307TIP3   OH237335   0.141   5.184  16.036  0.1844  0.2985 -0.4399
 5307TIP3    H137336   0.132   5.105  15.983  1.3414  0.4310 -0.8546
 5307TIP3    H237337   0.092   5.165  16.116  1.7531 -1.4516  0.1394
 5308TIP3   OH237338   4.856   3.573  13.634  0.2485 -0.0093 -0.4969
 5308TIP3    H137339   4.917   3.580  13.561  0.4268  1.3412 -0.2497
 5308TIP3    H237340   4.775   3.542  13.596  0.4582  0.3100 -1.2063
 5309TIP3   OH237341   1.507   1.940   5.488  0.5152  0.0119  0.1584
 5309TIP3    H137342   1.498   1.997   5.411 -1.7868 -2.7816 -1.7022
 5309TIP3    H237343   1.427   1.955   5.538  1.3786  0.7684  1.3428
 5310TIP3   OH237344   5.301   1.713   1.166  0.0969 -0.1721  0.5690
 5310TIP3    H137345   5.231   1.660   1.202  0.3197 -0.6391  0.3247
 5310TIP3    H237346   5.297   1.697   1.071  0.9356 -0.7100  0.6137
 5311TIP3   OH237347   6.484   5.376   1.603 -0.0610  0.1080  0.0490
 5311TIP3    H137348   6.489   5.288   1.566  0.6600 -0.6009  1.7596
 5311TIP3    H237349   6.472   5.361   1.697 -0.4909  1.8416  0.2774
 5312TIP3   OH237350   5.634   2.675  17.101  0.4679  0.1558  0.1731
 5312TIP3    H137351   5.658   2.733  17.174 -0.2847  0.3921  0.2388
 5312TIP3    H237352   5.704   2.610  17.098  0.9605  0.6661  0.5459
 5313TIP3   OH237353   4.891   6.741  16.394 -0.4232 -0.2683  0.2461
 5313TIP3    H137354   4.936   6.733  16.309 -1.5783 -0.0761 -0.3861
 5313TIP3    H237355   4.917   6.662  16.442  1.5974  0.4289  0.3801
 5314TIP3   OH237356   4.121   5.036  14.016  0.4994  0.1411  0.3396
 5314TIP3    H137357   4.062   4.977  14.063  0.7193  0.3748  0.9176
 5314TIP3    H237358   4.070   5.065  13.940  0.6328 -1.3055 -0.3078
 5315TIP3   OH237359   3.585   6.779   0.398 -0.0323 -0.2775  0.1514
 5315TIP3    H137360   3.611   6.763   0.308  0.5621  1.7949 -0.0629
 5315TIP3    H237361   3.587   6.874   0.408 -1.6803 -0.3926  1.8816
 5316TIP3   OH237362   5.696   0.770   4.330 -0.1737  0.4142  0.3518
 5316TIP3    H137363   5.622   0.743   4.385  1.5030  0.4480  2.6962
 5316TIP3    H237364   5.674   0.859   4.302 -1.9137 -0.2869 -0.6078
 5317TIP3   OH237365   3.969   2.711  11.671  0.1366  0.1794 -0.0267
 5317TIP3    H137366   3.952   2.661  11.751  0.3999  0.3733  0.1518
 5317TIP3    H237367   4.004   2.794  11.702  3.3182 -0.9330 -0.4329
 5318TIP3   OH237368   0.909   1.946   0.576  0.0095 -0.0877 -0.1095
 5318TIP3    H137369   0.943   1.860   0.602  0.1001 -0.1125 -0.3060
 5318TIP3    H237370   0.820   1.948   0.610  0.0466 -0.2149 -0.0034
 5319TIP3   OH237371   0.607   5.781   4.618 -0.0654  0.1085 -0.1477
 5319TIP3    H137372   0.565   5.775   4.704 -1.5305  0.1404 -0.8469
 5319TIP3    H237373   0.671   5.851   4.627 -1.4308  1.3006  0.4263
 5320TIP3   OH237374   2.094   4.967  11.395  0.4077  0.2558 -0.0302
 5320TIP3    H137375   2.143   5.039  11.356  1.4136 -1.1190 -1.3124
 5320TIP3    H237376   2.160   4.906  11.426 -0.3801  0.8350  3.0095
 5321TIP3   OH237377   1.664   3.101   0.548 -0.8495  0.4170 -0.0432
 5321TIP3    H137378   1.719   3.034   0.508  0.3191  1.5878 -0.4440
 5321TIP3    H237379   1.583   3.100   0.498 -0.5430 -0.1794 -0.5296
 5322TIP3   OH237380   4.438   6.109   2.506 -0.2330 -0.9040  0.2340
 5322TIP3    H137381   4.348   6.079   2.501 -0.7560 -0.0309  3.6546
 5322TIP3    H237382   4.433   6.204   2.492  0.1935 -0.8867  0.1860
 5323TIP3   OH237383   6.607   4.371   3.562 -0.8900 -0.3437 -0.5239
 5323TIP3    H137384   6.630   4.309   3.631  0.8390 -0.0513 -0.8082
 5323TIP3    H237385   6.645   4.333   3.483 -2.3223 -0.3595 -1.1981
 5324TIP3   OH237386   5.991   0.625  15.730  0.2378 -0.1152 -0.4626
 5324TIP3    H137387   6.030   0.674  15.657  1.3158  0.5322  0.5193
 5324TIP3    H237388   6.055   0.557  15.750  0.1516 -0.0252  0.1397
 5325TIP3   OH237389   4.712   5.007   1.019 -0.1053 -0.2224  0.1159
 5325TIP3    H137390   4.801   5.044   1.014 -0.0386 -0.3163  0.6334
 5325TIP3    H237391   4.712   4.956   1.099 -0.3095 -1.0620 -0.4129
 5326TIP3   OH237392   3.760   6.691   3.010  0.0780  0.0902  0.4177
 5326TIP3    H137393   3.732   6.629   2.943 -0.6826 -1.0707  1.7620
 5326TIP3    H237394   3.830   6.741   2.969  1.1602 -2.0975 -0.5076
 5327TIP3   OH237395   1.648   1.530   5.877  0.3427  0.3701 -0.1933
 5327TIP3    H137396   1.725   1.569   5.919 -0.6667  1.8419  0.3036
 5327TIP3    H237397   1.583   1.524   5.946 -0.4783  0.4592 -0.9553
 5328TIP3   OH237398   6.291   4.066   5.020  0.4710  0.5829 -0.3613
 5328TIP3    H137399   6.245   4.137   5.065  0.3420  1.2398 -1.5218
 5328TIP3    H237400   6.370   4.053   5.071 -0.2679  0.4711  0.7809
 5329TIP3   OH237401   6.257   3.079  12.222 -0.0755 -0.1946  0.0916
 5329TIP3    H137402   6.341   3.110  12.187 -0.0509  0.4364  0.6790
 5329TIP3    H237403   6.276   2.991  12.255  0.8778  0.6819  2.0029
 5330TIP3   OH237404   1.874   2.237   3.025 -0.1680 -0.0756  0.5070
 5330TIP3    H137405   1.828   2.178   3.085  0.7847 -0.7806  0.5558
 5330TIP3    H237406   1.904   2.309   3.080 -0.9902  0.2554  0.5227
 5331TIP3   OH237407   0.614   4.729  10.762  0.1504  1.0254  0.1445
 5331TIP3    H137408   0.561   4.782  10.821 -0.2593  1.6497 -0.7762
 5331TIP3    H237409   0.702   4.765  10.770  0.1275  1.0010  0.5012
 5332TIP3   OH237410   5.223   5.161  10.599  0.1011  0.6181  0.0235
 5332TIP3    H137411   5.137   5.118  10.600 -0.4793  1.7602  0.7274
 5332TIP3    H237412   5.278   5.107  10.654 -0.1303 -0.2065 -0.5517
 5333TIP3   OH237413   0.654   4.738   1.099 -0.4848  0.2118 -0.7431
 5333TIP3    H137414   0.702   4.658   1.123  0.9030  1.2527  0.0190
 5333TIP3    H237415   0.570   4.706   1.065  0.5380 -1.6170 -1.6046
 5334TIP3   OH237416   5.050   5.396   5.592 -0.2702  0.1160 -0.3464
 5334TIP3    H137417   4.954   5.397   5.590 -0.2462  0.7898 -1.3865
 5334TIP3    H237418   5.075   5.351   5.512  0.2664 -2.0174  0.9944
 5335TIP3   OH237419   3.561   2.820  12.299  0.3906 -0.5670 -0.1186
 5335TIP3    H137420   3.571   2.913  12.316 -0.6304  0.0926 -2.8451
 5335TIP3    H237421   3.481   2.795  12.345  0.1225  0.1348 -0.1990
 5336TIP3   OH237422   4.819   6.166   4.769  0.1413  0.0914 -0.0388
 5336TIP3    H137423   4.806   6.112   4.847 -0.5245  1.2182  0.6442
 5336TIP3    H237424   4.900   6.133   4.731  0.6578 -0.2490  1.3204
 5337TIP3   OH237425   0.095   0.336   1.392 -0.0401 -0.6332 -0.2162
 5337TIP3    H137426   0.170   0.384   1.356  0.8805 -2.0943 -0.2678
 5337TIP3    H237427   0.127   0.298   1.473 -1.3314  0.3971  0.7907
 5338TIP3   OH237428   0.368   6.590  11.691  0.1235  0.7750 -0.3357
 5338TIP3    H137429   0.464   6.596  11.691  0.3157 -1.5394  0.0042
 5338TIP3    H237430   0.344   6.589  11.784 -0.0624 -0.3353 -0.3822
 5339TIP3   OH237431   0.717   3.681  13.920  0.1867 -0.0823  0.2667
 5339TIP3    H137432   0.628   3.647  13.916 -0.2128  1.0291 -0.3081
 5339TIP3    H237433   0.742   3.693  13.828  1.7604 -2.4990  0.3195
 5340TIP3   OH237434   4.071   3.008   2.757  0.0847 -0.4827  0.2360
 5340TIP3    H137435   4.106   3.028   2.844  1.1867 -0.2652 -0.2485
 5340TIP3    H237436   4.132   3.050   2.697 -1.1147  0.0481 -0.6275
 5341TIP3   OH237437   5.445   1.841  11.026  0.3034  0.1488 -0.0824
 5341TIP3    H137438   5.403   1.802  10.949 -1.1467 -0.4552  0.9826
 5341TIP3    H237439   5.375   1.892  11.067  1.4619  1.6656  0.0361
 5342TIP3   OH237440   0.489   3.468   0.888 -0.3102 -0.2605 -0.5741
 5342TIP3    H137441   0.567   3.414   0.874 -0.7289 -1.4128  1.3055
 5342TIP3    H237442   0.440   3.460   0.806  0.0602 -2.0395 -0.6622
 5343TIP3   OH237443   2.590   4.947   2.891 -0.3841  0.2800  0.2569
 5343TIP3    H137444   2.613   5.035   2.861  0.0868 -0.1962 -0.7924
 5343TIP3    H237445   2.494   4.945   2.890 -0.3865 -0.6736 -4.0667
 5344TIP3   OH237446   5.999   1.288   2.669 -0.0650  0.3662  0.0448
 5344TIP3    H137447   6.074   1.237   2.638  0.7672  0.6671  1.5583
 5344TIP3    H237448   5.924   1.244   2.629  0.7564 -1.0486 -0.0113
 5345TIP3   OH237449   6.633   5.645  16.897  0.2949  0.2080 -0.2724
 5345TIP3    H137450   6.558   5.603  16.938  0.2387  1.2365  0.7117
 5345TIP3    H237451   6.688   5.573  16.868 -1.2858 -0.5666 -1.4384
 5346TIP3   OH237452   4.443   5.024   4.182  0.5625 -0.4478 -0.3190
 5346TIP3    H137453   4.350   5.011   4.161  0.3279 -0.6830  0.8437
 5346TIP3    H237454   4.489   5.004   4.100 -0.5161  1.1552 -1.3317
 5347TIP3   OH237455   2.248   4.645   2.705  0.0809 -0.3400 -0.3841
 5347TIP3    H137456   2.269   4.723   2.655  0.1797 -1.0095 -1.3985
 5347TIP3    H237457   2.203   4.587   2.643 -2.0610 -0.1604  0.9522
 5348TIP3   OH237458   2.493   0.351   6.219 -0.4618  0.5361  0.3742
 5348TIP3    H137459   2.432   0.415   6.181 -1.3886  0.0968  1.0846
 5348TIP3    H237460   2.455   0.266   6.196  0.8296  0.2231 -0.6666
 5349TIP3   OH237461   5.025   4.180   6.899  0.3137  0.4372 -0.1203
 5349TIP3    H137462   4.992   4.235   6.828 -2.5128  1.3344  1.8134
 5349TIP3    H237463   5.032   4.093   6.860 -3.4003  0.4242 -0.9359
 5350TIP3   OH237464   1.912   0.234  12.188  0.7266  0.1411  0.5859
 5350TIP3    H137465   1.990   0.243  12.241  0.2745 -1.0629  1.4846
 5350TIP3    H237466   1.906   0.140  12.169 -0.3223  0.2605  0.2619
 5351TIP3   OH237467   1.892   1.652   5.980  0.1025  0.2136 -0.0292
 5351TIP3    H137468   1.966   1.692   5.935  0.1045  1.7486  1.3182
 5351TIP3    H237469   1.907   1.670   6.073 -2.1075  0.8313  0.2320
 5352TIP3   OH237470   3.025   5.320   0.321 -0.0161 -0.0018 -0.0155
 5352TIP3    H137471   2.977   5.347   0.400 -0.3853  1.2833 -0.6636
 5352TIP3    H237472   2.957   5.310   0.254  0.3898 -0.3012 -0.3841
 5353TIP3   OH237473   1.712   4.067  13.747  0.0824  0.1196 -0.1596
 5353TIP3    H137474   1.647   4.137  13.743  0.0264  0.0132 -1.2254
 5353TIP3    H237475   1.787   4.107  13.792  1.6842  2.2365 -4.3507
 5354TIP3   OH237476   3.604   1.486   2.927 -0.1031  0.3851 -0.2282
 5354TIP3    H137477   3.696   1.468   2.908 -0.1346  1.5911 -1.5329
 5354TIP3    H237478   3.564   1.501   2.842 -1.3370  0.7382  0.4028
 5355TIP3   OH237479   3.335   4.785  13.939 -0.1495 -0.2369  0.4194
 5355TIP3    H137480   3.266   4.730  13.903 -0.8333 -0.4845  2.0326
 5355TIP3    H237481   3.289   4.850  13.992  0.7728  0.4657  0.3699
 5356TIP3   OH237482   4.975   5.379   1.058  0.6095  0.0318 -0.7009
 5356TIP3    H137483   4.994   5.358   0.966  1.8867  0.6783 -0.6034
 5356TIP3    H237484   4.908   5.448   1.053  0.8353  0.2227 -1.1637
 5357TIP3   OH237485   4.820   1.171  11.348  0.0303  0.2072 -0.2916
 5357TIP3    H137486   4.897   1.115  11.341 -0.3345 -0.4466  0.8375
 5357TIP3    H237487   4.856   1.260  11.354  0.6354  0.0419 -1.3043
 5358TIP3   OH237488   6.719   6.654   0.070  0.3883 -0.0014 -0.0324
 5358TIP3    H137489   6.747   6.718   0.136 -1.7668  0.4785  0.4692
 5358TIP3    H237490   6.776   6.579   0.084  0.7558  0.5450  1.6033
 5359TIP3   OH237491   5.498   2.864  11.610  0.0123  0.3925 -0.2870
 5359TIP3    H137492   5.539   2.940  11.651  0.0608  1.1859 -1.7637
 5359TIP3    H237493   5.417   2.898  11.573 -0.6837 -0.5996  0.2867
 5360TIP3   OH237494   3.882   1.707  17.175  0.5664 -0.2380 -0.2861
 5360TIP3    H137495   3.969   1.733  17.143 -1.3862  4.1620 -2.5081
 5360TIP3    H237496   3.888   1.715  17.271  2.6139 -0.0668 -0.4166
 5361TIP3   OH237497   3.519   1.462   1.345  0.7611  0.7054  0.3369
 5361TIP3    H137498   3.482   1.461   1.434 -1.8547  0.7401 -0.6911
 5361TIP3    H237499   3.596   1.406   1.351 -0.7625 -1.3208  2.1059
 5362TIP3   OH237500   1.325   2.680  15.002 -0.2125  0.0692 -0.6055
 5362TIP3    H137501   1.261   2.722  15.059  0.8626 -2.0677  2.3414
 5362TIP3    H237502   1.397   2.742  14.997 -0.0282  0.0081  1.0049
 5363TIP3   OH237503   0.928   5.579  11.804 -0.0170  0.2953 -1.0763
 5363TIP3    H137504   0.957   5.491  11.778 -0.1786 -0.3602  0.8691
 5363TIP3    H237505   1.004   5.635  11.790  1.4520 -0.9428  1.6147
 5364TIP3   OH237506   4.863   0.851  15.751  0.2854  0.1508  0.3875
 5364TIP3    H137507   4.867   0.947  15.750 -3.2188  0.3790  1.9144
 5364TIP3    H237508   4.889   0.827  15.841 -0.7542 -0.1868  0.6064
 5365TIP3   OH237509   0.411   3.580   6.422 -0.1742 -0.0497  0.8056
 5365TIP3    H137510   0.361   3.659   6.403 -1.0700 -0.6950  0.3969
 5365TIP3    H237511   0.488   3.610   6.469 -0.1326  1.1418 -0.0116
 5366TIP3   OH237512   2.551   3.779  12.416  0.1746  0.1582  0.0068
 5366TIP3    H137513   2.531   3.742  12.502  0.5758  0.0292  0.0511
 5366TIP3    H237514   2.487   3.848  12.403  0.4386  0.5218  0.6396
 5367TIP3   OH237515   5.214   3.284   0.734  0.2811 -0.4284 -0.1499
 5367TIP3    H137516   5.178   3.358   0.685  0.8480  0.6598  1.0428
 5367TIP3    H237517   5.160   3.209   0.707 -2.1405  0.9321  0.7127
 5368TIP3   OH237518   3.169   3.546   0.608  0.0535  0.1626 -0.4993
 5368TIP3    H137519   3.143   3.535   0.516  0.7009  1.2938 -0.8277
 5368TIP3    H237520   3.141   3.635   0.630  0.6085  0.1730  0.1611
 5369TIP3   OH237521   2.835   6.462  11.511  0.1472 -0.1378 -0.2754
 5369TIP3    H137522   2.784   6.502  11.441  0.1256 -0.8353 -0.6618
 5369TIP3    H237523   2.920   6.506  11.507 -0.1506  0.4514 -0.1584
 5370TIP3   OH237524   4.067   6.356  14.979 -0.5181  0.1629  0.5473
 5370TIP3    H137525   4.132   6.288  14.963  0.0224  0.7608  0.2000
 5370TIP3    H237526   4.097   6.431  14.928 -1.2883  0.5598  0.6673
 5371TIP3   OH237527   3.235   0.755  14.536  0.5189  0.3601  0.4043
 5371TIP3    H137528   3.301   0.690  14.559 -0.1350 -0.5124 -0.1522
 5371TIP3    H237529   3.285   0.830  14.504  1.1900 -0.9317 -1.6326
 5372TIP3   OH237530   0.272   3.146  11.964  0.1643  0.3678  0.5858
 5372TIP3    H137531   0.191   3.179  12.002  1.0520  1.3255  1.6890
 5372TIP3    H237532   0.245   3.097  11.887 -1.6196 -1.0029  2.0510
 5373TIP3   OH237533   3.797   4.365   2.400 -0.0178  0.6046 -0.4697
 5373TIP3    H137534   3.780   4.274   2.426 -0.1326  0.6942 -0.2304
 5373TIP3    H237535   3.783   4.415   2.480 -1.3701  1.0027 -0.9418
 5374TIP3   OH237536   3.114   1.072  14.884  0.5676  0.0670  0.2080
 5374TIP3    H137537   3.057   1.088  14.808  0.6941 -0.3885  0.0166
 5374TIP3    H237538   3.120   0.977  14.890  0.1803  0.0948  1.0765
 5375TIP3   OH237539   3.113   0.021   4.992 -0.1961  0.0661  0.0695
 5375TIP3    H137540   3.200  -0.018   5.004  0.4106  1.3962  0.1027
 5375TIP3    H237541   3.054  -0.054   4.986  0.9962 -0.8680 -0.2951
 5376TIP3   OH237542   0.849   1.375   2.692  0.1227  0.1898  0.3167
 5376TIP3    H137543   0.799   1.452   2.666 -0.7583 -0.2156  0.7957
 5376TIP3    H237544   0.872   1.332   2.609 -0.2662  0.4200  0.0867
 5377TIP3   OH237545   4.809   3.316   5.942 -0.5345 -0.0799  0.9313
 5377TIP3    H137546   4.777   3.284   6.026 -1.4734 -0.0938  0.5711
 5377TIP3    H237547   4.757   3.394   5.923  1.3821  1.4038  1.5508
 5378TIP3   OH237548   6.173   3.224  16.096 -0.0961  0.0626 -0.5545
 5378TIP3    H137549   6.255   3.202  16.139  0.1453  0.3289 -0.8732
 5378TIP3    H237550   6.137   3.140  16.067 -0.1241 -0.0881 -0.0790
 5379TIP3   OH237551   4.663   4.794   2.038 -0.2012 -0.6171  0.3675
 5379TIP3    H137552   4.639   4.846   1.962 -1.7439 -0.9650  0.5900
 5379TIP3    H237553   4.725   4.730   2.006 -1.5694 -1.3739 -0.8059
 5380TIP3   OH237554   1.356   2.186   3.638 -0.5047 -0.0706 -0.1379
 5380TIP3    H137555   1.322   2.101   3.666 -0.3974 -0.0702 -0.0041
 5380TIP3    H237556   1.451   2.175   3.641 -0.3831  1.1345  3.3554
 5381TIP3   OH237557   6.707   0.153   0.840  0.2331 -0.5559  0.0592
 5381TIP3    H137558   6.622   0.159   0.798 -0.3242 -3.4306  0.6590
 5381TIP3    H237559   6.764   0.116   0.773  1.3380  2.4043 -0.7116
 5382TIP3   OH237560   0.209   1.287  12.126  0.2869 -1.0886  0.4954
 5382TIP3    H137561   0.274   1.313  12.061 -0.0053  0.4661  0.8106
 5382TIP3    H237562   0.147   1.232  12.077  0.9887 -1.3220 -0.1437
 5383TIP3   OH237563   2.997   6.151  14.981 -0.4206  0.8376  0.0180
 5383TIP3    H137564   2.922   6.128  14.927  0.7627 -0.2618 -1.1923
 5383TIP3    H237565   3.017   6.071  15.030  2.4624 -0.2294 -2.7061
 5384TIP3   OH237566   4.932   2.568  15.834 -0.1759 -0.1069 -0.1368
 5384TIP3    H137567   4.859   2.509  15.849  0.0756  0.1370  2.2090
 5384TIP3    H237568   4.940   2.573  15.738  0.0871 -4.1846 -0.4059
 5385TIP3   OH237569   4.103   0.861  16.459  0.4211 -0.5327 -0.0807
 5385TIP3    H137570   4.148   0.942  16.483 -1.4638  0.7874 -0.8227
 5385TIP3    H237571   4.171   0.805  16.422  1.6272  0.9913 -0.2193
 5386TIP3   OH237572   1.854   4.191  13.433 -0.8979 -0.0634 -0.3313
 5386TIP3    H137573   1.762   4.211  13.414 -0.5476  2.6313  0.5459
 5386TIP3    H237574   1.871   4.236  13.516  1.1509 -0.7686 -0.3398
 5387TIP3   OH237575   2.317   3.039  16.946  0.1461 -0.0168  0.5618
 5387TIP3    H137576   2.346   3.128  16.926  0.0729 -0.1872 -0.3674
 5387TIP3    H237577   2.324   3.032  17.041  0.3111  0.9242  0.6312
 5388TIP3   OH237578   2.340   5.776   0.931  0.2404 -0.6044  0.0888
 5388TIP3    H137579   2.266   5.747   0.985  0.1095 -0.3267  0.0595
 5388TIP3    H237580   2.352   5.706   0.867  0.7550 -1.2024  0.8341
 5389TIP3   OH237581   2.901   5.901   4.798 -0.3735  0.2438 -0.3760
 5389TIP3    H137582   2.824   5.866   4.842  0.8264 -1.1306  0.6554
 5389TIP3    H237583   2.881   5.893   4.704 -2.5306  2.2951 -0.1401
 5390TIP3   OH237584   4.407   3.169   3.480  0.6588 -0.3847 -0.4979
 5390TIP3    H137585   4.472   3.239   3.487 -1.0557  1.1250  0.6724
 5390TIP3    H237586   4.425   3.112   3.554 -0.6421  1.1727  1.0509
 5391TIP3   OH237587   0.525   2.899   0.775 -0.1411  0.0739  0.2820
 5391TIP3    H137588   0.454   2.837   0.792  0.1589  0.4175  2.9724
 5391TIP3    H237589   0.502   2.940   0.692 -2.2915 -0.9240  0.3624
 5392TIP3   OH237590   0.634   6.363  16.590 -0.0634 -0.8106  0.1834
 5392TIP3    H137591   0.603   6.302  16.523  0.6637 -0.6768 -0.2838
 5392TIP3    H237592   0.569   6.433  16.590  0.0170 -0.7272 -0.5066
 5393TIP3   OH237593   5.868   5.403   0.208  0.3747  0.5951  0.2230
 5393TIP3    H137594   5.860   5.366   0.120 -0.4746  0.9585  0.1385
 5393TIP3    H237595   5.942   5.357   0.247  0.8294  0.5119 -0.7231
 5394TIP3   OH237596   1.357   5.080  11.423  0.1241 -0.1858 -0.2058
 5394TIP3    H137597   1.365   5.006  11.363 -2.2950 -0.9651  0.4131
 5394TIP3    H237598   1.263   5.096  11.430  0.4868  1.3640  1.6134
 5395TIP3   OH237599   1.568   2.356  14.302  0.0549  0.2664 -0.2650
 5395TIP3    H137600   1.554   2.341  14.395  1.1734  3.5649  0.5021
 5395TIP3    H237601   1.480   2.357  14.265 -0.4290 -0.4406  0.8301
 5396TIP3   OH237602   6.548   4.786   5.648 -1.1154  0.2875 -0.0588
 5396TIP3    H137603   6.625   4.816   5.599 -1.1595  1.2691  0.4760
 5396TIP3    H237604   6.553   4.690   5.643 -2.0651  0.3640 -3.4390
 5397TIP3   OH237605   3.341   4.426  13.539 -0.0511 -0.4646 -0.1649
 5397TIP3    H137606   3.306   4.461  13.457 -1.4773 -0.6480  0.3425
 5397TIP3    H237607   3.319   4.333  13.535 -0.6069 -0.3691  0.6677
 5398TIP3   OH237608   2.544   1.200  15.817 -0.0569  0.6255 -0.1375
 5398TIP3    H137609   2.470   1.258  15.835 -1.4774  0.0219 -3.6001
 5398TIP3    H237610   2.524   1.120  15.865 -1.3388  0.6869 -0.5547
 5399TIP3   OH237611   5.386   3.016  16.907 -0.0611  0.2937 -0.5755
 5399TIP3    H137612   5.314   2.977  16.957  0.3486  0.4484  0.1416
 5399TIP3    H237613   5.347   3.090  16.861 -0.6839 -0.5220 -1.3658
 5400TIP3   OH237614   3.317   5.578  16.606  0.2934 -0.2239  0.1401
 5400TIP3    H137615   3.365   5.652  16.642  2.0008 -1.0413 -0.4007
 5400TIP3    H237616   3.365   5.555  16.526  0.8113 -2.9709  1.1880
 5401TIP3   OH237617   6.625   3.403   0.927 -0.0238 -0.0271 -0.1741
 5401TIP3    H137618   6.710   3.400   0.971 -0.1787  1.8412  0.2939
 5401TIP3    H237619   6.645   3.386   0.835  0.8973  0.5968 -0.0981
 5402TIP3   OH237620   1.048   1.246   6.529  0.4346 -0.6293  0.4044
 5402TIP3    H137621   1.051   1.167   6.474  0.2464 -1.1195  1.0951
 5402TIP3    H237622   0.965   1.288   6.505  1.3889  0.3514 -1.3118
 5403TIP3   OH237623   3.657   6.710   1.253 -0.1336 -0.2988 -0.2898
 5403TIP3    H137624   3.611   6.727   1.171  0.6117  0.1764 -0.6213
 5403TIP3    H237625   3.684   6.619   1.246 -0.4725 -0.3954 -0.3717
 5404TIP3   OH237626   0.254   2.895   2.599 -0.5783 -0.2725 -0.0157
 5404TIP3    H137627   0.233   2.926   2.511 -1.8167  1.6237  0.9081
 5404TIP3    H237628   0.227   2.803   2.598  1.0798 -0.7863 -2.1345
 5405TIP3   OH237629   0.125   2.541   4.386 -0.3502  0.4247 -0.2392
 5405TIP3    H137630   0.073   2.574   4.312  0.7415 -0.3271 -1.3562
 5405TIP3    H237631   0.213   2.529   4.350  0.2359  0.2026  1.2354
 5406TIP3   OH237632   6.270   2.857  13.915 -0.8917 -0.0444 -0.2285
 5406TIP3    H137633   6.205   2.838  13.983  1.1867  0.2353  1.9071
 5406TIP3    H237634   6.286   2.951  13.922  0.0213 -0.1746 -0.4608
 5407TIP3   OH237635   4.027   6.184   0.383  0.1889 -0.3111  0.3029
 5407TIP3    H137636   4.015   6.220   0.295 -0.4970  1.1837  0.9872
 5407TIP3    H237637   4.014   6.089   0.372  0.1895 -0.1460 -1.2144
 5408TIP3   OH237638   6.227   5.803   1.074  0.3086  0.0609 -0.2139
 5408TIP3    H137639   6.183   5.735   1.023  0.4302 -0.1784  0.0024
 5408TIP3    H237640   6.173   5.815   1.152  1.9821 -2.0735  1.3329
 5409TIP3   OH237641   0.607   5.781   3.085 -0.2811 -0.3552  0.4413
 5409TIP3    H137642   0.667   5.750   3.152 -0.7477 -1.6247  0.2723
 5409TIP3    H237643   0.662   5.831   3.024  0.4407 -0.7445  0.7731
 5410TIP3   OH237644   0.108   6.592   6.249  0.4996  0.2262 -0.3823
 5410TIP3    H137645   0.164   6.531   6.201  0.2090 -0.8505  0.6202
 5410TIP3    H237646   0.088   6.547   6.331 -1.0238  1.0007 -0.3072
 5411TIP3   OH237647   3.746   6.249   2.069 -0.5400  0.6501 -0.2776
 5411TIP3    H137648   3.768   6.232   1.978 -1.3251  0.7237 -0.4772
 5411TIP3    H237649   3.654   6.227   2.077 -0.5331  0.8630  0.4453
 5412TIP3   OH237650   4.489   5.905  12.228  0.4401  0.1849 -0.4918
 5412TIP3    H137651   4.412   5.920  12.283  0.2548 -1.9289 -0.1492
 5412TIP3    H237652   4.459   5.843  12.162  1.4520  0.4918 -1.2437
 5413TIP3   OH237653   0.786   3.101  15.610 -0.2108  0.1831  0.0465
 5413TIP3    H137654   0.708   3.143  15.648  1.0776  2.0966  0.6306
 5413TIP3    H237655   0.807   3.031  15.671  0.6688  1.9917  1.8947
 5414TIP3   OH237656   5.432   2.699   1.433 -0.2502 -0.1006  0.3129
 5414TIP3    H137657   5.395   2.630   1.378 -2.4855  2.5195 -1.5624
 5414TIP3    H237658   5.512   2.726   1.388  0.2613 -0.9399  0.6945
 5415TIP3   OH237659   5.834   4.499   6.526  0.3276 -0.6218  0.2543
 5415TIP3    H137660   5.789   4.515   6.443  0.8098  0.6096  0.2171
 5415TIP3    H237661   5.785   4.427   6.566 -1.1245  0.0837 -0.1945
 5416TIP3   OH237662   3.822   5.154  15.248  0.9585 -0.1401 -0.2016
 5416TIP3    H137663   3.911   5.166  15.282  1.1865  1.0448 -1.1910
 5416TIP3    H237664   3.799   5.239  15.212 -1.1213 -0.0484  1.2606
 5417TIP3   OH237665   1.571   5.492   4.638 -0.4096  0.0757  0.4378
 5417TIP3    H137666   1.495   5.465   4.690 -0.4359  1.0686  0.9299
 5417TIP3    H237667   1.634   5.524   4.703 -1.4181  3.7051 -0.2629
 5418TIP3   OH237668   2.362   5.823   4.485 -0.7217  0.4837  0.1592
 5418TIP3    H137669   2.423   5.793   4.418  1.1950 -0.5095  2.3207
 5418TIP3    H237670   2.338   5.744   4.534 -2.8469  1.0439  0.0731
 5419TIP3   OH237671   4.227   2.786   6.087  0.0311 -0.1103  0.5700
 5419TIP3    H137672   4.139   2.765   6.055  0.2803  0.7215 -0.6808
 5419TIP3    H237673   4.233   2.881   6.081  1.1451 -0.1908  0.3045
 5420TIP3   OH237674   6.759   1.872   5.905  0.5449 -0.9163 -0.1017
 5420TIP3    H137675   6.841   1.829   5.929  1.2936  0.3837 -0.2627
 5420TIP3    H237676   6.786   1.961   5.881 -0.9886 -0.3219  0.3776
 5421TIP3   OH237677   0.256   2.219   3.279  0.2988  0.3938 -0.5167
 5421TIP3    H137678   0.254   2.125   3.299 -1.1362  0.4524 -0.3353
 5421TIP3    H237679   0.171   2.251   3.310  0.4071  1.5759 -1.4546
 5422TIP3   OH237680   1.232   6.070  16.587 -0.5771  0.3917  0.3029
 5422TIP3    H137681   1.274   6.095  16.505  0.2836 -1.9444 -0.0094
 5422TIP3    H237682   1.291   6.102  16.655 -0.4558  0.8623 -0.0222
 5423TIP3   OH237683   2.024   0.551  13.241  0.3162 -0.3538 -0.6943
 5423TIP3    H137684   2.007   0.459  13.220 -1.8092 -0.1412  0.0270
 5423TIP3    H237685   2.076   0.548  13.321  0.4339 -0.9107 -0.7880
 5424TIP3   OH237686   0.333   5.976   3.562 -0.6580 -0.7227  0.5389
 5424TIP3    H137687   0.399   5.908   3.553 -1.1880 -1.2833  0.8270
 5424TIP3    H237688   0.314   6.003   3.472  0.5875  0.0543  0.5041
 5425TIP3   OH237689   4.299   2.957  11.229 -0.0194  0.0669  0.3793
 5425TIP3    H137690   4.244   2.886  11.263 -0.7834  1.5998  2.4529
 5425TIP3    H237691   4.274   2.965  11.137 -3.0293  0.4617  1.1750
 5426TIP3   OH237692   3.010   2.274   3.112  0.5760 -0.3721  0.3589
 5426TIP3    H137693   2.967   2.253   3.029  1.9789  1.9061 -1.0016
 5426TIP3    H237694   2.945   2.324   3.161  0.7599  0.8584 -0.6281
 5427TIP3   OH237695   1.679   1.053  11.852  0.1879 -0.1043 -0.3680
 5427TIP3    H137696   1.738   1.029  11.923 -1.2813 -0.1835  0.8473
 5427TIP3    H237697   1.675   1.149  11.856 -1.0644 -0.1731  0.6656
 5428TIP3   OH237698   3.080   0.940   6.699 -0.0064  0.3152 -0.1068
 5428TIP3    H137699   2.993   0.952   6.660 -0.2495  0.5788  0.5117
 5428TIP3    H237700   3.064   0.935   6.793  0.7780  1.7003  0.1132
 5429TIP3   OH237701   4.682   4.293  11.508 -0.3425 -0.1131  0.0833
 5429TIP3    H137702   4.743   4.336  11.568  0.7463  2.6011 -2.8396
 5429TIP3    H237703   4.596   4.327  11.534  0.0790  0.7719  0.3552
 5430TIP3   OH237704   2.153   3.925  13.669 -0.0786  0.7337  0.0314
 5430TIP3    H137705   2.065   3.963  13.662  1.0820  3.5950  0.1483
 5430TIP3    H237706   2.174   3.898  13.580 -0.8182  0.6462 -0.1242
 5431TIP3   OH237707   0.735   5.328  15.319 -0.6575  0.2488 -0.5262
 5431TIP3    H137708   0.729   5.402  15.379  0.0487  2.0740 -2.6121
 5431TIP3    H237709   0.819   5.340  15.275 -0.0356 -2.4364 -0.1171
 5432TIP3   OH237710   3.274   5.210   2.284  0.3433 -0.2562 -0.0684
 5432TIP3    H137711   3.230   5.172   2.207  1.1684 -0.7583 -0.2953
 5432TIP3    H237712   3.339   5.145   2.309 -0.6140 -0.5729  1.7055
 5433TIP3   OH237713   0.373   0.226   1.563  0.2208  0.5928  0.0083
 5433TIP3    H137714   0.314   0.262   1.629  0.6525  0.4232  0.4940
 5433TIP3    H237715   0.432   0.298   1.541 -0.4811  0.9109 -0.8469
 5434TIP3   OH237716   6.244   1.885   0.930  0.0950 -0.5948  0.7032
 5434TIP3    H137717   6.239   1.913   0.839 -1.5613 -1.0498  0.6223
 5434TIP3    H237718   6.328   1.840   0.937  1.3242  1.5656  0.0294
 5435TIP3   OH237719   2.132   3.006  16.749  0.0264  0.4802 -0.0389
 5435TIP3    H137720   2.184   3.006  16.829 -0.7763 -0.8340  0.5108
 5435TIP3    H237721   2.107   3.097  16.737 -0.5027  0.5792  1.6601
 5436TIP3   OH237722   4.395   2.547   5.318 -0.0111  0.0107  0.0953
 5436TIP3    H137723   4.309   2.566   5.357 -1.1438 -2.3771 -1.1142
 5436TIP3    H237724   4.457   2.554   5.390 -1.6701 -1.3218  1.6839
 5437TIP3   OH237725   3.404   3.096   3.086 -1.0754  0.2178 -0.1515
 5437TIP3    H137726   3.332   3.061   3.034 -1.8260  0.9406  0.3841
 5437TIP3    H237727   3.458   3.146   3.024 -1.8610  0.9245 -0.2688
 5438TIP3   OH237728   1.952   4.851  15.894  0.3063  0.3024  0.3375
 5438TIP3    H137729   2.046   4.840  15.880  0.3064  1.8063 -0.9632
 5438TIP3    H237730   1.918   4.874  15.808 -1.8470 -3.7818 -0.0588
 5439TIP3   OH237731   1.130   5.828  15.060  0.8588  0.2948  0.1851
 5439TIP3    H137732   1.062   5.890  15.085 -2.0349 -2.7527  0.3068
 5439TIP3    H237733   1.166   5.796  15.143 -0.5476 -1.1811  0.2489
 5440TIP3   OH237734   1.157   3.017  16.930 -0.6375 -0.1413  0.1334
 5440TIP3    H137735   1.211   3.083  16.973 -1.1686  0.1907  0.2887
 5440TIP3    H237736   1.130   3.058  16.848 -1.2878 -0.0214  0.4076
 5441TIP3   OH237737   3.974   4.375   6.206 -0.8932 -0.4939 -0.5979
 5441TIP3    H137738   4.022   4.382   6.124 -1.4353 -3.7102 -1.2396
 5441TIP3    H237739   3.926   4.458   6.212  2.5691  1.6579 -1.2433
 5442TIP3   OH237740   1.565   4.503   2.533 -0.7052 -0.0737  0.3495
 5442TIP3    H137741   1.632   4.558   2.574 -0.7873  1.2659 -1.2929
 5442TIP3    H237742   1.612   4.425   2.504 -0.0720  0.3500  0.2374
 5443TIP3   OH237743   2.211   5.725  12.260  0.3123 -0.7039 -0.1132
 5443TIP3    H137744   2.253   5.658  12.314  0.5080 -1.3093 -1.0025
 5443TIP3    H237745   2.183   5.678  12.181  0.6643  0.3073 -0.8573
 5444TIP3   OH237746   4.902   1.811   5.468  0.1271  0.4247  0.5384
 5444TIP3    H137747   4.879   1.727   5.428 -0.4170  0.5439  0.5975
 5444TIP3    H237748   4.961   1.787   5.539  0.8876  0.1928 -0.1674
 5445TIP3   OH237749   5.521   0.235  12.063 -0.7059 -0.8039  0.0055
 5445TIP3    H137750   5.549   0.326  12.051 -2.4968 -0.5067 -2.4712
 5445TIP3    H237751   5.443   0.241  12.118 -2.3846 -0.5263 -2.3154
 5446TIP3   OH237752   5.674   2.634  15.822 -0.1674  0.3680 -0.6175
 5446TIP3    H137753   5.676   2.553  15.771  1.4901  1.4602 -2.3613
 5446TIP3    H237754   5.591   2.631  15.870  0.4174 -2.9102  0.3034
 5447TIP3   OH237755   4.611   3.749   1.056  0.4874 -0.7774  0.3272
 5447TIP3    H137756   4.527   3.730   1.098 -0.6696 -0.5889 -1.8083
 5447TIP3    H237757   4.587   3.784   0.970  2.7586 -1.1980 -0.5141
 5448TIP3   OH237758   5.804   3.576  12.487 -0.2523  0.3000 -0.8143
 5448TIP3    H137759   5.823   3.546  12.576  1.0227  1.2648 -0.7391
 5448TIP3    H237760   5.758   3.503  12.446 -2.1550  0.4086  1.0808
 5449TIP3   OH237761   6.564   4.115   5.461 -0.3290  0.4909 -0.1547
 5449TIP3    H137762   6.653   4.088   5.483 -0.6276  1.2396  2.0696
 5449TIP3    H237763   6.509   4.071   5.525 -1.6163 -0.2091 -1.7108
 5450TIP3   OH237764   6.458   6.340   0.662 -0.0306 -0.1594 -0.1564
 5450TIP3    H137765   6.494   6.382   0.740 -0.2253 -0.5987  0.1747
 5450TIP3    H237766   6.368   6.321   0.685  0.2234 -1.3024 -0.0787
 5451TIP3   OH237767   3.978   0.084   1.270 -0.0368  0.7959  0.0169
 5451TIP3    H137768   3.911   0.094   1.202  0.2535 -1.0088 -0.5628
 5451TIP3    H237769   4.030   0.164   1.264  0.4902  0.2974 -2.4672
 5452TIP3   OH237770   0.914   3.783  16.945  0.5966 -0.0785  0.3272
 5452TIP3    H137771   0.826   3.801  16.977  0.3056  0.2994 -0.6569
 5452TIP3    H237772   0.964   3.863  16.965  0.4355  0.1253 -0.0665
 5453TIP3   OH237773   5.593   4.174  16.643 -0.1665  0.5948  0.1579
 5453TIP3    H137774   5.601   4.149  16.735  0.7009  0.8440  0.1564
 5453TIP3    H237775   5.553   4.261  16.645 -0.7253  0.3323  0.2755
 5454TIP3   OH237776   4.087   1.882   5.986 -0.5550  0.2944  0.3179
 5454TIP3    H137777   4.178   1.878   5.957 -1.4207 -1.6137 -2.4337
 5454TIP3    H237778   4.082   1.821   6.059  0.4849  0.7883  0.8079
 5455TIP3   OH237779   5.525   5.954   3.181  0.5152 -0.1928 -0.0216
 5455TIP3    H137780   5.517   5.903   3.262 -0.1514  0.7043  0.4897
 5455TIP3    H237781   5.588   5.905   3.128  1.0122 -0.7602  1.0677
 5456TIP3   OH237782   6.568   5.358  15.127 -0.2162  0.2091 -0.0449
 5456TIP3    H137783   6.509   5.399  15.065  0.8154  1.0645 -0.4808
 5456TIP3    H237784   6.655   5.390  15.102  0.3571 -0.5103  0.9844
 5457TIP3   OH237785   6.589   5.061  16.478  0.4971  0.2962  0.1602
 5457TIP3    H137786   6.637   5.040  16.398  1.1210 -1.5660  0.9959
 5457TIP3    H237787   6.595   4.982  16.531 -0.5156  1.2626  1.7586
 5458TIP3   OH237788   1.766   5.763  15.203  0.7108  0.5984  0.2881
 5458TIP3    H137789   1.787   5.701  15.133  2.0811  0.4378  0.8220
 5458TIP3    H237790   1.778   5.849  15.164  1.9334  0.5095  0.4266
 5459TIP3   OH237791   2.343   6.216  10.683  0.1760 -0.0299  0.1642
 5459TIP3    H137792   2.306   6.299  10.655 -0.9714 -0.9659 -1.1975
 5459TIP3    H237793   2.268   6.157  10.688  0.9594 -0.9778  1.1631
 5460TIP3   OH237794   1.016   5.375  15.257  0.3423 -0.4766  0.1815
 5460TIP3    H137795   1.032   5.380  15.352 -0.8998 -1.8465  0.4901
 5460TIP3    H237796   1.056   5.292  15.231 -0.2993 -0.6512 -0.2677
 5461TIP3   OH237797   3.313   1.031  15.428 -0.2965  0.5021  0.0546
 5461TIP3    H137798   3.299   1.125  15.416 -1.5625  0.2846 -0.2515
 5461TIP3    H237799   3.309   0.994  15.340 -1.4025 -0.0285  0.3067
 5462TIP3   OH237800   2.116   1.039  17.107  0.2446 -0.0224 -0.0860
 5462TIP3    H137801   2.065   1.120  17.104  2.7111  1.5595 -4.2189
 5462TIP3    H237802   2.135   1.026  17.200 -2.2594  2.7584  0.9182
 5463TIP3   OH237803   3.775   0.222  14.471  0.1101  0.6393  0.8890
 5463TIP3    H137804   3.865   0.205  14.444  0.2985 -0.5885  2.2128
 5463TIP3    H237805   3.772   0.315  14.491  0.9325  0.7954  0.2914
 5464TIP3   OH237806   4.760   2.984  16.669 -0.2841 -0.2018 -0.2500
 5464TIP3    H137807   4.790   2.975  16.760 -1.9074 -1.8846  0.1455
 5464TIP3    H237808   4.667   3.005  16.677 -0.4136 -0.2770 -1.5266
 5465TIP3   OH237809   3.386   6.560   2.951  0.1545  0.0032 -0.4474
 5465TIP3    H137810   3.299   6.570   2.913 -0.1353  0.0418  0.2106
 5465TIP3    H237811   3.383   6.475   2.994 -0.2595  0.8831  1.3453
 5466TIP3   OH237812   4.928   3.308   6.992 -0.2649  0.3398 -0.0275
 5466TIP3    H137813   4.926   3.236   7.055  0.5795 -1.1618 -1.6607
 5466TIP3    H237814   4.843   3.306   6.950 -0.3524  0.4938  0.1415
 5467TIP3   OH237815   0.472   0.968  16.262 -0.0600  0.4331  0.1474
 5467TIP3    H137816   0.452   0.960  16.168  1.4340  1.7846 -0.2983
 5467TIP3    H237817   0.407   1.030  16.295 -2.9617 -2.7835  0.8221
 5468TIP3   OH237818   3.794   2.691  16.705 -0.2678 -0.3540 -0.0329
 5468TIP3    H137819   3.784   2.778  16.665 -1.9074 -0.3787  0.2826
 5468TIP3    H237820   3.850   2.707  16.781 -2.4889  0.8899  1.3992
 5469TIP3   OH237821   5.780   1.799  16.328  0.0566  0.3734  0.0993
 5469TIP3    H137822   5.776   1.894  16.339  1.4190  0.4488 -0.0267
 5469TIP3    H237823   5.811   1.767  16.413  1.6493  0.2173 -0.5313
 5470TIP3   OH237824   5.365   5.307   3.720  0.0098 -0.9332  1.1090
 5470TIP3    H137825   5.284   5.358   3.725  0.5911  0.5037 -2.4843
 5470TIP3    H237826   5.427   5.356   3.774 -0.2412  0.6290  0.0264
 5471TIP3   OH237827   5.343   2.830  11.931  0.2694 -0.5961 -0.4999
 5471TIP3    H137828   5.318   2.872  12.014  1.1956 -1.3641  0.1857
 5471TIP3    H237829   5.323   2.896  11.864  0.5893  0.4941  0.4468
 5472TIP3   OH237830   3.135   5.334  14.452 -0.0699  0.0398 -0.2682
 5472TIP3    H137831   3.201   5.352  14.519 -0.6714 -0.9663  0.6105
 5472TIP3    H237832   3.052   5.346  14.497 -0.4811  0.2030 -1.0744
 5473TIP3   OH237833   1.435   2.388  16.611 -0.3950 -0.4069 -0.4725
 5473TIP3    H137834   1.374   2.435  16.554 -0.9814 -1.7238 -0.9732
 5473TIP3    H237835   1.440   2.300  16.572 -0.6537 -1.2804  1.3917
 5474TIP3   OH237836   1.072   4.107  10.647 -0.0426 -0.1808  0.0451
 5474TIP3    H137837   1.113   4.048  10.584 -1.1170 -2.8643  1.7755
 5474TIP3    H237838   1.087   4.066  10.732  0.3516  2.7651  1.4799
 5475TIP3   OH237839   0.975   0.721   1.497  0.8227 -0.1924  0.1770
 5475TIP3    H137840   0.992   0.809   1.465  1.4551 -1.3023 -2.6477
 5475TIP3    H237841   1.056   0.695   1.541  0.9842  0.2459  0.1350
 5476TIP3   OH237842   2.719   2.584  14.706  0.0831 -0.5403 -0.1748
 5476TIP3    H137843   2.731   2.650  14.775  1.9096 -0.6580 -0.3494
 5476TIP3    H237844   2.631   2.550  14.720 -0.3737  0.9763  0.7664
 5477TIP3   OH237845   6.122   6.498  15.899 -0.2256 -1.3154  0.1704
 5477TIP3    H137846   6.100   6.527  15.810  0.0800 -1.9232 -0.1041
 5477TIP3    H237847   6.179   6.422  15.887  0.8075 -0.6703  0.8817
 5478TIP3   OH237848   1.531   1.470   3.468  0.1178  0.1740 -0.1669
 5478TIP3    H137849   1.593   1.527   3.514  2.8925 -2.3902 -0.6052
 5478TIP3    H237850   1.499   1.524   3.396  0.1566  2.2694  1.3146
 5479TIP3   OH237851   0.907   0.848  12.877 -0.1490  0.9891  0.0439
 5479TIP3    H137852   0.852   0.925  12.895 -1.9949 -0.6630  1.6234
 5479TIP3    H237853   0.851   0.788  12.829  0.6484 -0.2239  0.5918
 5480TIP3   OH237854   5.253   0.956   1.871  0.2710 -0.5901  0.6500
 5480TIP3    H137855   5.181   1.016   1.887  1.2119  0.2046  2.0619
 5480TIP3    H237856   5.224   0.872   1.909 -0.5236 -0.7019 -0.1866
 5481TIP3   OH237857   4.435   5.625   3.935 -1.2191 -0.0056 -0.4126
 5481TIP3    H137858   4.411   5.548   3.883  0.7314 -0.8438 -0.1293
 5481TIP3    H237859   4.504   5.668   3.884 -2.1356  1.4347 -0.4524
 5482TIP3   OH237860   6.316   2.584  13.100 -0.4104 -0.0106  0.2586
 5482TIP3    H137861   6.377   2.527  13.148  1.2867  1.0113 -0.6529
 5482TIP3    H237862   6.332   2.671  13.135 -3.1869 -0.0618  1.8267
 5483TIP3   OH237863   6.223   0.028  14.089 -0.7831  0.3492 -0.0802
 5483TIP3    H137864   6.234  -0.065  14.068 -0.7909  0.2666  0.2670
 5483TIP3    H237865   6.297   0.048  14.147 -0.7560  0.5718 -0.1911
 5484TIP3   OH237866   6.520   2.571  12.622 -0.1706  0.0786  0.3803
 5484TIP3    H137867   6.602   2.587  12.667 -0.5488  2.3130  0.3138
 5484TIP3    H237868   6.543   2.572  12.529 -0.1346 -0.0897  0.3879
 5485TIP3   OH237869   0.457   3.567  13.579 -0.5074  0.1578  0.6061
 5485TIP3    H137870   0.434   3.590  13.669 -1.3176  2.3240 -0.1101
 5485TIP3    H237871   0.458   3.651  13.533 -0.6686 -0.9807 -1.5189
 5486TIP3   OH237872   3.655   1.237  16.628 -0.4618  0.7658 -0.2411
 5486TIP3    H137873   3.734   1.187  16.608  0.1406  1.9553 -0.8575
 5486TIP3    H237874   3.600   1.175  16.676  0.8765 -0.0376  0.2945
 5487TIP3   OH237875   6.485   4.311  13.030  0.5956 -0.1056 -0.3208
 5487TIP3    H137876   6.401   4.316  13.075 -0.0279  1.1974 -1.5797
 5487TIP3    H237877   6.493   4.219  13.004  0.8810 -0.8394  2.2177
 5488TIP3   OH237878   2.696   6.117   5.515  0.0385 -0.3413  0.2804
 5488TIP3    H137879   2.667   6.143   5.602 -0.2205 -0.1265  0.1296
 5488TIP3    H237880   2.680   6.194   5.461 -0.4514 -0.7128 -0.1041
 5489TIP3   OH237881   1.903   1.053  12.036 -0.0991 -0.7293 -0.3675
 5489TIP3    H137882   1.918   1.143  12.065 -0.9685 -0.9850  0.9511
 5489TIP3    H237883   1.990   1.021  12.010  0.8273 -0.5831  2.3520
 5490TIP3   OH237884   2.926   0.253   6.084  0.3548 -0.0313 -0.0324
 5490TIP3    H137885   2.908   0.216   6.171  1.4351 -1.5760 -0.4463
 5490TIP3    H237886   3.017   0.283   6.089  0.8992 -1.4579 -1.0694
 5491TIP3   OH237887   2.036   3.314  17.146 -0.6841  0.8387 -0.4031
 5491TIP3    H137888   1.978   3.361  17.206 -0.1969  0.0796  0.6489
 5491TIP3    H237889   2.087   3.256  17.201 -1.1644 -0.8330 -1.6886
 5492TIP3   OH237890   3.870   5.976  15.161 -0.1727  0.2449 -0.5276
 5492TIP3    H137891   3.840   5.894  15.122  1.4836 -1.1477  1.0450
 5492TIP3    H237892   3.798   6.003  15.218  0.1677 -1.3827  0.7429
 5493TIP3   OH237893   2.344   2.019  16.092  0.0213 -0.4615  0.0565
 5493TIP3    H137894   2.358   1.925  16.105  0.6061 -0.6580 -1.9059
 5493TIP3    H237895   2.418   2.048  16.039 -0.7071  0.8930 -0.2533
 5494TIP3   OH237896   5.876   1.287  13.172 -0.1522  0.1945 -0.6608
 5494TIP3    H137897   5.913   1.274  13.259  2.2860  3.3057 -1.1392
 5494TIP3    H237898   5.798   1.341  13.187  1.4738  2.5747 -0.5383
 5495TIP3   OH237899   2.984   1.013  10.965  0.0189  0.3517  0.1226
 5495TIP3    H137900   2.941   1.097  10.950  0.0305  0.4981  0.8716
 5495TIP3    H237901   3.078   1.033  10.964  0.1390 -0.1823 -2.7820
 5496TIP3   OH237902   4.847   4.596   2.302  0.4922  0.0817 -0.2118
 5496TIP3    H137903   4.869   4.608   2.210 -2.2745  1.6980 -0.7071
 5496TIP3    H237904   4.786   4.522   2.304  0.3169  0.2345  0.2981
 5497TIP3   OH237905   4.605   1.793   5.793 -0.3031 -0.1432  0.5158
 5497TIP3    H137906   4.661   1.858   5.835  1.4005  0.7649 -2.9644
 5497TIP3    H237907   4.516   1.829   5.801  0.3136  1.3367  0.9098
 5498TIP3   OH237908   1.804   6.044  12.993 -0.0155 -0.1230 -0.1292
 5498TIP3    H137909   1.899   6.046  13.009 -0.3857  0.3985  2.2248
 5498TIP3    H237910   1.776   5.959  13.027 -0.3782 -0.3653 -1.0148
 5499TIP3   OH237911   5.266   0.823   5.667  0.0826  0.0390 -0.2256
 5499TIP3    H137912   5.338   0.814   5.604 -1.0899 -2.0666 -1.3018
 5499TIP3    H237913   5.193   0.858   5.616 -0.4846 -0.4452  0.2487
 5500TIP3   OH237914   3.039   5.301   2.423  0.2532 -0.6725  0.0051
 5500TIP3    H137915   3.087   5.268   2.346 -1.2760 -1.4878 -0.6151
 5500TIP3    H237916   3.036   5.227   2.483  2.3384  0.2683  1.3145
 5501TIP3   OH237917   0.478   1.241  11.227  0.2387 -0.2484 -0.1541
 5501TIP3    H137918   0.486   1.241  11.322 -1.7435 -1.9158  0.0358
 5501TIP3    H237919   0.568   1.249  11.196  1.0226 -0.9441  1.8625
 5502TIP3   OH237920   2.676   6.062   0.240 -0.4874 -0.2182 -0.4228
 5502TIP3    H137921   2.676   5.969   0.221 -0.1403  0.0569 -1.8180
 5502TIP3    H237922   2.587   6.090   0.221 -0.7199 -0.3423  0.4469
 5503TIP3   OH237923   0.419   3.559  14.869  0.2697 -0.4911  0.2455
 5503TIP3    H137924   0.399   3.471  14.837  0.0949  0.0821 -1.2592
 5503TIP3    H237925   0.340   3.587  14.915 -1.1782  0.3906 -2.6438
 5504TIP3   OH237926   3.612   1.232   1.149 -0.3781  0.0638 -0.2909
 5504TIP3    H137927   3.671   1.248   1.223 -0.2509 -1.3789 -0.0672
 5504TIP3    H237928   3.612   1.137   1.139 -0.6130  0.2359 -1.9780
 5505TIP3   OH237929   1.250   6.410  16.580 -0.0986  0.2697  0.0738
 5505TIP3    H137930   1.198   6.398  16.501 -1.9948  0.6666  1.2297
 5505TIP3    H237931   1.226   6.337  16.636 -0.7936  1.4209  1.3288
 5506TIP3   OH237932   6.693   0.055  13.596 -0.3433  0.9319 -0.0637
 5506TIP3    H137933   6.615   0.003  13.617 -2.1954  4.1639  1.3991
 5506TIP3    H237934   6.693   0.057  13.500  0.6105 -2.8678 -0.2349
 5507TIP3   OH237935   4.888   2.025  11.690  0.1461  0.5175  0.8091
 5507TIP3    H137936   4.966   2.067  11.653 -0.5986  0.8217 -0.4362
 5507TIP3    H237937   4.878   1.945  11.639 -1.5568  1.5031 -0.4576
 5508TIP3   OH237938   1.623   1.537  12.394 -0.4673  0.4485  0.6787
 5508TIP3    H137939   1.564   1.612  12.383 -1.4825 -0.3230  0.7618
 5508TIP3    H237940   1.648   1.539  12.486 -0.5937  0.6132  0.7086
 5509TIP3   OH237941   1.276   4.824  15.764 -0.5444 -0.2035 -0.1776
 5509TIP3    H137942   1.247   4.858  15.849  1.9067  3.6710 -0.7407
 5509TIP3    H237943   1.353   4.770  15.784 -0.0116  0.6501  0.1050
 5510TIP3   OH237944   6.616   1.845   0.590  0.0983  0.7960 -0.0169
 5510TIP3    H137945   6.663   1.810   0.665  0.1104 -0.7586 -0.7094
 5510TIP3    H237946   6.611   1.939   0.605  1.4169  0.6818  1.1756
 5511TIP3   OH237947   5.868   0.052   5.331 -0.1967 -0.2160 -0.1981
 5511TIP3    H137948   5.935  -0.014   5.345  0.2510  0.3733  0.5154
 5511TIP3    H237949   5.827   0.063   5.417 -0.3263  0.3653 -0.3286
 5512TIP3   OH237950   2.372   1.086  12.124 -0.4758 -0.2449 -0.3209
 5512TIP3    H137951   2.291   1.038  12.140 -1.2088  1.0229 -0.2125
 5512TIP3    H237952   2.439   1.018  12.119 -1.4639 -1.2642  0.0950
 5513TIP3   OH237953   0.389   2.526   5.795  0.7486 -0.4637  0.0187
 5513TIP3    H137954   0.474   2.553   5.829  0.7922 -0.8351  0.2039
 5513TIP3    H237955   0.373   2.441   5.834  0.1339 -0.2461  0.2420
 5514TIP3   OH237956   5.305   6.396   2.256  0.1278 -0.4426 -0.2237
 5514TIP3    H137957   5.330   6.386   2.164  0.3178 -0.3121 -0.1856
 5514TIP3    H237958   5.287   6.306   2.285  0.1651 -0.4947 -0.3608
 5515TIP3   OH237959   6.579   3.271   5.363  0.1503  0.0273  0.2788
 5515TIP3    H137960   6.559   3.356   5.324  0.3015  0.6441  1.5196
 5515TIP3    H237961   6.522   3.266   5.441 -2.1982 -2.3601 -1.4656
 5516TIP3   OH237962   5.539   6.114   4.968  0.5025  0.8400 -0.2026
 5516TIP3    H137963   5.524   6.020   4.956  0.0907  1.1929 -2.8077
 5516TIP3    H237964   5.455   6.148   4.999  0.3257  0.5297 -0.3430
 5517TIP3   OH237965   3.482   4.526  16.563  0.5967 -0.0336 -0.6703
 5517TIP3    H137966   3.392   4.519  16.594  1.3653 -0.3911  1.5931
 5517TIP3    H237967   3.502   4.439  16.529  0.3503 -0.1815 -0.4428
 5518TIP3   OH237968   2.068   3.617  14.714  0.1002 -0.2914 -0.0158
 5518TIP3    H137969   1.999   3.664  14.667  1.1266  1.4809  0.2032
 5518TIP3    H237970   2.046   3.630  14.806  0.5532  0.0332  0.0484
 5519TIP3   OH237971   5.686   1.301   5.540  0.3522 -0.7539  0.4727
 5519TIP3    H137972   5.635   1.341   5.611 -0.8025 -0.0764 -0.7010
 5519TIP3    H237973   5.777   1.319   5.562 -0.0298  0.0706  1.4141
 5520TIP3   OH237974   1.386   6.353   2.119 -0.5234 -0.0340  0.5360
 5520TIP3    H137975   1.372   6.350   2.024 -1.5920 -0.2990  0.6977
 5520TIP3    H237976   1.383   6.262   2.147  3.1935 -0.2973  0.3772
 5521TIP3   OH237977   3.198   3.535  11.732 -0.3446 -0.0429 -0.1306
 5521TIP3    H137978   3.241   3.491  11.805  0.0604 -2.3556 -1.7019
 5521TIP3    H237979   3.252   3.613  11.716  1.1146 -0.9339  0.3208
 5522TIP3   OH237980   1.247   2.617  13.195  0.2469  0.1958  0.2805
 5522TIP3    H137981   1.272   2.539  13.145  0.6552  1.1841 -1.0993
 5522TIP3    H237982   1.304   2.686  13.161  0.0117  1.0592  1.6111
 5523TIP3   OH237983   4.252   0.782  15.126 -0.1235 -0.2477 -0.3106
 5523TIP3    H137984   4.254   0.687  15.121 -0.7510 -0.3686  1.3025
 5523TIP3    H237985   4.288   0.802  15.213 -0.7813  0.9455 -0.3061
 5524TIP3   OH237986   3.493   2.487  15.682 -0.2197  0.1610  0.3243
 5524TIP3    H137987   3.418   2.433  15.658 -0.6133  0.8790 -0.1078
 5524TIP3    H237988   3.564   2.425  15.699 -0.8897 -0.5191  0.6597
 5525TIP3   OH237989   1.131   3.413   1.954 -0.2658  0.1475  0.2836
 5525TIP3    H137990   1.194   3.436   1.886 -1.2112  0.1986 -0.5711
 5525TIP3    H237991   1.163   3.459   2.032  0.9006 -0.0387 -0.0779
 5526TIP3   OH237992   5.331   5.823   4.582  0.3916 -0.0735  0.3535
 5526TIP3    H137993   5.288   5.750   4.539 -0.7879  0.2915  0.8949
 5526TIP3    H237994   5.375   5.871   4.511  1.0177 -1.1961 -0.0184
 5527TIP3   OH237995   1.842   1.528   1.869  0.1481  0.6659 -0.2671
 5527TIP3    H137996   1.882   1.442   1.858 -1.9504 -0.2682 -0.7796
 5527TIP3    H237997   1.914   1.589   1.852  1.5323 -0.9635 -0.4561
 5528TIP3   OH237998   0.936   4.935   1.004  0.0377  0.6718 -0.2909
 5528TIP3    H137999   0.994   4.899   1.071  0.7776  0.6986 -0.9189
 5528TIP3    H238000   0.922   4.863   0.943 -1.1446  0.4533  0.2194
 5529TIP3   OH238001   0.625   4.744  12.962 -0.4356  0.5268  0.1037
 5529TIP3    H138002   0.540   4.781  12.936 -0.4748  0.5018  0.1987
 5529TIP3    H238003   0.685   4.818  12.956 -0.2382  0.2914 -1.0667
 5530TIP3   OH238004   6.435   6.694   3.114 -0.3798  0.1979  0.2116
 5530TIP3    H138005   6.425   6.670   3.206  1.1016 -0.8235  0.1154
 5530TIP3    H238006   6.503   6.636   3.081  0.1547  1.5823 -1.1594
 5531TIP3   OH238007   5.233   3.080   1.762 -0.2612 -0.0056  0.6583
 5531TIP3    H138008   5.319   3.099   1.798 -0.8229  0.0623  1.9938
 5531TIP3    H238009   5.243   2.994   1.721  0.5720  0.2384  0.3313
 5532TIP3   OH238010   4.914   2.330   2.085 -0.1448 -0.4053 -0.0973
 5532TIP3    H138011   4.921   2.235   2.082 -3.5712 -0.7043 -1.1718
 5532TIP3    H238012   4.935   2.359   1.996 -0.3088 -0.2602 -0.0892
 5533TIP3   OH238013   0.379   1.237   2.686 -0.7482 -0.6339  0.2183
 5533TIP3    H138014   0.349   1.285   2.764  1.4690  0.6657  0.3084
 5533TIP3    H238015   0.448   1.179   2.719  0.2175 -0.0629 -0.7663
 5534TIP3   OH238016   0.562   2.146  15.268 -0.5543  0.3126  0.0937
 5534TIP3    H138017   0.533   2.067  15.314 -0.5867 -0.3173 -0.9730
 5534TIP3    H238018   0.484   2.177  15.222 -0.3517  0.5228 -0.1117
 5535TIP3   OH238019   1.311   1.058  13.982  0.0870 -0.1042 -0.2890
 5535TIP3    H138020   1.367   1.062  13.904  0.5284 -0.9123 -0.0181
 5535TIP3    H238021   1.371   1.042  14.054 -0.5185 -1.2574 -0.0268
 5536TIP3   OH238022   2.207   1.719   0.126  0.1985  0.0653  0.1531
 5536TIP3    H138023   2.132   1.770   0.098 -0.0546  0.9249  2.3485
 5536TIP3    H238024   2.173   1.630   0.139 -0.4371  0.4430  1.0930
 5537TIP3   OH238025   5.112   3.857  14.483  0.5381  0.2034  0.4280
 5537TIP3    H138026   5.053   3.785  14.463  0.2835 -0.1537  2.3271
 5537TIP3    H238027   5.145   3.886  14.398 -1.8266 -0.0338 -0.6050
 5538TIP3   OH238028   0.492   5.185  14.963  0.6297  0.1187  0.3180
 5538TIP3    H138029   0.564   5.175  15.026 -0.2339  1.2390  1.5403
 5538TIP3    H238030   0.444   5.103  14.968  0.8100  0.0400  0.8125
 5539TIP3   OH238031   3.167   2.740  11.047 -0.0389  0.1206  0.8329
 5539TIP3    H138032   3.117   2.669  11.005 -0.6138  0.2508  1.2991
 5539TIP3    H238033   3.208   2.698  11.123  0.0904  0.1563  0.7837
 5540TIP3   OH238034   2.656   6.365   1.431 -0.0146 -0.1143  0.5105
 5540TIP3    H138035   2.591   6.425   1.394  0.4357 -0.3074 -0.6322
 5540TIP3    H238036   2.629   6.279   1.400  0.7324 -0.2044  0.0787
 5541TIP3   OH238037   6.744   4.440   5.915  0.7314  0.3300 -0.0846
 5541TIP3    H138038   6.761   4.464   6.006  0.1710 -0.7278  0.3071
 5541TIP3    H238039   6.765   4.519   5.865  3.1414  0.2513  0.7321
 5542TIP3   OH238040   3.762   3.711   5.049 -0.2843 -0.5129 -0.0254
 5542TIP3    H138041   3.782   3.642   5.112 -0.3147 -0.1289  0.4121
 5542TIP3    H238042   3.761   3.667   4.964  1.6560 -0.7095  0.0108
 5543TIP3   OH238043   5.811   5.962  12.899  0.3748  0.0763 -0.1108
 5543TIP3    H138044   5.796   6.031  12.964 -0.0008  0.0290 -0.1464
 5543TIP3    H238045   5.899   5.929  12.919  1.1000  1.4642 -0.9214
 5544TIP3   OH238046   2.968   1.446  11.211 -0.4684  0.0997 -0.3523
 5544TIP3    H138047   3.051   1.399  11.221 -0.8493 -0.6397 -0.6290
 5544TIP3    H238048   2.901   1.382  11.234 -0.9341  0.9241  0.6181
 5545TIP3   OH238049   1.711   5.223  14.234  0.3324  0.7400  0.0949
 5545TIP3    H138050   1.786   5.252  14.285  2.1024  0.5388 -2.2910
 5545TIP3    H238051   1.728   5.130  14.216 -0.1592  0.8407 -0.9686
 5546TIP3   OH238052   3.233   3.355  10.905 -0.9276  0.3466  0.2060
 5546TIP3    H138053   3.281   3.274  10.915 -2.9796 -0.9087  0.1796
 5546TIP3    H238054   3.227   3.369  10.810  1.4097  1.7895  0.2251
 5547TIP3   OH238055   5.448   3.363   4.433  0.8673 -0.0139  0.5814
 5547TIP3    H138056   5.544   3.357   4.423  0.6771  0.1944 -1.8277
 5547TIP3    H238057   5.434   3.368   4.527  3.2511  0.2119  0.9712
 5548TIP3   OH238058   3.112   6.238   0.906 -0.1954  0.2947  0.2528
 5548TIP3    H138059   3.167   6.177   0.857 -0.9092 -0.3024  0.1818
 5548TIP3    H238060   3.079   6.298   0.840 -0.7812 -0.2236  0.0705
 5549TIP3   OH238061   1.464   5.961  12.372 -0.0677 -0.0686 -0.1040
 5549TIP3    H138062   1.447   5.916  12.289 -0.8487 -1.1657  0.6411
 5549TIP3    H238063   1.382   6.005  12.394 -0.6076 -1.6812  1.2340
 5550TIP3   OH238064   1.504   0.982   4.925 -0.2134 -0.0107 -0.2988
 5550TIP3    H138065   1.463   1.033   4.995  2.5559  2.3299 -0.2700
 5550TIP3    H238066   1.433   0.966   4.862 -1.6368  2.1115  0.7031
 5551TIP3   OH238067   3.382   6.349   1.620 -0.8196  0.0953 -0.7154
 5551TIP3    H138068   3.444   6.308   1.679 -1.9826  0.9081  1.1204
 5551TIP3    H238069   3.374   6.288   1.547  0.7759 -0.8388 -0.1239
 5552TIP3   OH238070   4.043   5.994  14.388  0.3239  0.1714 -0.0979
 5552TIP3    H138071   4.048   5.996  14.292  2.6366 -0.7321 -0.0416
 5552TIP3    H238072   4.134   6.000  14.416 -0.4631  2.4160  2.1238
 5553TIP3   OH238073   5.838   2.857  16.199 -0.0968 -0.0900  0.2405
 5553TIP3    H138074   5.829   2.763  16.214  2.6594 -0.3661  0.3805
 5553TIP3    H238075   5.847   2.865  16.104 -1.7261  0.1914  0.0939
 5554TIP3   OH238076   5.971   5.986   5.771 -0.5152 -0.3299  0.3201
 5554TIP3    H138077   6.061   5.963   5.750 -0.3085 -0.0403  0.8873
 5554TIP3    H238078   5.962   6.078   5.745 -1.0871 -0.7678 -1.1196
 5555TIP3   OH238079   2.814   6.600   1.506  0.3761  0.3785  0.2293
 5555TIP3    H138080   2.780   6.524   1.460  1.2702 -1.1237  1.9765
 5555TIP3    H238081   2.754   6.614   1.579  1.0714  0.3582  0.8210
 5556TIP3   OH238082   4.131   3.003  12.717 -0.1347  0.0308  0.6229
 5556TIP3    H138083   4.065   2.953  12.670  2.3097  0.7764 -3.9197
 5556TIP3    H238084   4.206   2.944  12.724 -0.3141  0.0498  3.4514
 5557TIP3   OH238085   2.763   0.554   6.144  0.1452 -0.0498 -0.1136
 5557TIP3    H138086   2.852   0.519   6.130  0.1859 -0.5409  1.3090
 5557TIP3    H238087   2.756   0.626   6.081  1.9084  0.6035  0.3909
 5558TIP3   OH238088   1.781   3.006   4.317 -0.2654  0.1395  0.1708
 5558TIP3    H138089   1.845   3.029   4.385  0.4466  1.3495 -0.8919
 5558TIP3    H238090   1.834   2.975   4.244 -1.0223 -1.0425  0.1199
 5559TIP3   OH238091   5.355   0.546   5.173 -0.6263 -0.6929 -0.8811
 5559TIP3    H138092   5.345   0.641   5.168 -0.0358 -0.6132 -0.6064
 5559TIP3    H238093   5.267   0.512   5.159 -1.2133 -0.0354  1.0428
 5560TIP3   OH238094   0.390   5.797   0.735  0.2415 -0.0637 -0.0058
 5560TIP3    H138095   0.401   5.888   0.709  3.1309 -0.1341  0.8551
 5560TIP3    H238096   0.307   5.796   0.783 -1.0774  1.6058 -2.1557
 5561TIP3   OH238097   2.503   2.021   5.367 -0.6290 -0.6182  0.3337
 5561TIP3    H138098   2.579   2.028   5.309  2.0550 -2.4277  3.4641
 5561TIP3    H238099   2.502   2.104   5.414 -0.6208 -0.5927  0.2896
 5562TIP3   OH238100   4.242   5.956  12.371 -0.1005  0.0344  0.0136
 5562TIP3    H138101   4.242   5.860  12.379 -1.0642 -0.1808 -2.0823
 5562TIP3    H238102   4.172   5.974  12.308 -0.0171  2.1414  0.5076
 5563TIP3   OH238103   3.146   1.800  13.443  0.2427  0.0537  0.1346
 5563TIP3    H138104   3.181   1.773  13.358  0.2416  0.0491  0.1348
 5563TIP3    H238105   3.105   1.721  13.479 -1.4616  0.5405 -0.7140
 5564TIP3   OH238106   3.402   5.396   2.513  0.0233 -0.3582 -0.4027
 5564TIP3    H138107   3.342   5.471   2.514 -0.0294 -0.3188 -3.0673
 5564TIP3    H238108   3.370   5.340   2.442  2.0883 -1.1950 -0.7280
 5565TIP3   OH238109   4.210   1.606   0.642  0.7225 -0.2625 -0.1014
 5565TIP3    H138110   4.160   1.682   0.611 -1.8219 -1.8315  0.0597
 5565TIP3    H238111   4.220   1.550   0.565  2.0324 -0.1052 -0.0654
 5566TIP3   OH238112   6.552   6.663  12.906  0.3862  0.0737 -0.2530
 5566TIP3    H138113   6.575   6.619  12.988  1.1690  0.2146 -0.3933
 5566TIP3    H238114   6.529   6.592  12.846 -0.7322  0.0004  0.2462
 5567TIP3   OH238115   5.216   0.857   0.420  0.1530  0.5121 -0.0937
 5567TIP3    H138116   5.152   0.799   0.380  0.2329 -0.8460  1.6863
 5567TIP3    H238117   5.163   0.928   0.458 -0.4319 -1.0466  2.1175
 5568TIP3   OH238118   0.843   0.993   2.465 -0.3378  0.2591 -0.1801
 5568TIP3    H138119   0.920   0.942   2.492  0.6886  0.7944 -1.9885
 5568TIP3    H238120   0.780   0.980   2.535  1.7305  0.5201  1.8105
 5569TIP3   OH238121   2.220   1.191   0.394 -0.4148  0.3358 -0.3564
 5569TIP3    H138122   2.202   1.129   0.323 -0.6504  0.6124 -0.5360
 5569TIP3    H238123   2.310   1.171   0.420 -0.0805  0.7011 -1.2048
 5570TIP3   OH238124   1.798   0.259   0.062 -1.0764  0.4980 -0.6095
 5570TIP3    H138125   1.744   0.273   0.140 -0.5024  1.6751 -0.4110
 5570TIP3    H238126   1.881   0.302   0.083 -0.6323  0.1106 -1.5526
 5571TIP3   OH238127   1.446   2.495  11.426 -0.0929  0.2543 -0.0499
 5571TIP3    H138128   1.361   2.534  11.405  0.3019  1.9931  1.4417
 5571TIP3    H238129   1.425   2.411  11.465 -1.1072  0.3884 -0.2974
 5572TIP3   OH238130   1.587   2.630   5.898 -0.3160  0.0731  0.5465
 5572TIP3    H138131   1.551   2.714   5.926 -0.3670  0.0688  0.4950
 5572TIP3    H238132   1.586   2.634   5.802 -0.6777 -0.1344  0.5399
 5573TIP3   OH238133   0.795   5.911   2.409  0.2160  0.2155  0.4381
 5573TIP3    H138134   0.793   5.824   2.450 -0.4022 -0.1264 -0.3063
 5573TIP3    H238135   0.756   5.898   2.323  1.2541  0.9817 -0.1692
 5574TIP3   OH238136   2.921   2.278   3.838 -0.2838 -0.0043 -0.3533
 5574TIP3    H138137   2.907   2.324   3.921 -1.7783  0.9180 -1.0830
 5574TIP3    H238138   2.837   2.234   3.821 -0.1289  0.1537 -1.5689
 5575TIP3   OH238139   3.292   2.893  14.286 -0.1484 -0.8882 -0.2211
 5575TIP3    H138140   3.271   2.985  14.269  0.0719 -0.7959 -0.0066
 5575TIP3    H238141   3.342   2.865  14.210  1.1146 -0.3857  0.3994
 5576TIP3   OH238142   2.780   2.641  17.231  0.2205 -0.2576  0.1408
 5576TIP3    H138143   2.750   2.557  17.266 -0.3518  0.0211  0.3228
 5576TIP3    H238144   2.710   2.669  17.172  0.6321 -0.1402 -0.3042
 5577TIP3   OH238145   2.518   2.156   4.078 -0.1757  0.1363 -0.1113
 5577TIP3    H138146   2.527   2.064   4.103  1.0351  0.6586  1.5297
 5577TIP3    H238147   2.605   2.193   4.095 -0.9311  1.7939  0.2174
 5578TIP3   OH238148   1.719   3.057  15.061  0.5511  0.0239  0.6342
 5578TIP3    H138149   1.711   3.016  15.147 -0.6025  4.4211  2.7442
 5578TIP3    H238150   1.813   3.059  15.045  0.7316 -1.6994  1.2763
 5579TIP3   OH238151   2.681   6.301  12.136  0.3821  0.3237  0.4868
 5579TIP3    H138152   2.631   6.381  12.127  1.9934  1.5875  2.2792
 5579TIP3    H238153   2.767   6.322  12.100  0.7534 -0.6650  0.7730
 5580TIP3   OH238154   6.361   3.777  12.710 -0.4230  0.0069 -0.2115
 5580TIP3    H138155   6.299   3.766  12.783  0.2164  1.4616  0.5737
 5580TIP3    H238156   6.386   3.688  12.686 -2.7568 -0.6086 -0.4814
 5581TIP3   OH238157   0.402   5.590  15.873  0.6593 -0.0010  0.6926
 5581TIP3    H138158   0.361   5.639  15.802  0.7060 -0.7037  0.1703
 5581TIP3    H238159   0.358   5.621  15.952 -0.3487 -0.1754  0.2137
 5582TIP3   OH238160   5.131   5.377   2.303 -0.0633 -0.1768  0.4615
 5582TIP3    H138161   5.098   5.374   2.213  0.4779 -1.0734  0.2855
 5582TIP3    H238162   5.086   5.451   2.343  0.2764  0.7029 -0.7754
 5583TIP3   OH238163   2.839   2.535  16.936  0.4379 -0.2800  0.3593
 5583TIP3    H138164   2.754   2.566  16.969  0.8077  1.1551  0.0079
 5583TIP3    H238165   2.823   2.444  16.910 -1.1001  0.0949 -0.0567
 5584TIP3   OH238166   3.545   5.262  12.302  0.5237 -0.0812  0.3337
 5584TIP3    H138167   3.536   5.183  12.356  1.9994  0.4060  1.3441
 5584TIP3    H238168   3.615   5.312  12.345  0.7354  0.9980 -1.2335
 5585TIP3   OH238169   6.712   3.703   5.435 -0.2583  0.3385  0.1031
 5585TIP3    H138170   6.804   3.677   5.432  0.1947  1.7427  1.4379
 5585TIP3    H238171   6.670   3.636   5.490  0.3494  0.7566  1.0979
 5586TIP3   OH238172   1.912   2.716   0.411  0.0932 -0.3636  0.0825
 5586TIP3    H138173   1.993   2.766   0.420 -1.0196  1.2820  1.1718
 5586TIP3    H238174   1.934   2.629   0.445  1.6346 -0.2025 -0.4542
 5587TIP3   OH238175   0.390   6.058  12.329  0.8957 -0.0879 -0.1532
 5587TIP3    H138176   0.396   6.102  12.244 -0.9600 -0.3798 -0.4633
 5587TIP3    H238177   0.359   5.969  12.307  1.2069 -0.4226  0.7527
 5588TIP3   OH238178   4.184   6.007   4.794 -0.1088  0.1264 -0.6900
 5588TIP3    H138179   4.104   5.993   4.743  0.1922  0.8244 -1.3663
 5588TIP3    H238180   4.156   6.000   4.885 -1.1226  1.2448 -0.8971
 5589TIP3   OH238181   3.538   0.895   1.652  0.3046 -0.1000 -0.7327
 5589TIP3    H138182   3.514   0.882   1.744  1.9076  0.7934 -0.1528
 5589TIP3    H238183   3.460   0.871   1.603  0.3189 -3.3585  0.6878
 5590TIP3   OH238184   4.252   2.464   0.024  0.2039  0.2091  0.1806
 5590TIP3    H138185   4.282   2.555   0.015 -0.0757  0.2978  0.1540
 5590TIP3    H238186   4.330   2.412   0.004 -0.4099  0.3946 -2.9478
 5591TIP3   OH238187   1.074   2.125   0.424 -0.4625 -0.2543 -0.2198
 5591TIP3    H138188   1.046   2.053   0.367 -1.9451 -0.4098  0.6951
 5591TIP3    H238189   1.041   2.102   0.510 -1.5570  1.8537 -0.0478
 5592TIP3   OH238190   4.946   5.933   5.310  0.4464 -0.2236 -0.1272
 5592TIP3    H138191   4.944   5.952   5.404  0.8788  0.8537 -0.3268
 5592TIP3    H238192   4.855   5.911   5.289  0.2103  0.1947  0.4207
 5593TIP3   OH238193   6.287   1.783  15.862  0.0742  0.3839  0.1585
 5593TIP3    H138194   6.377   1.765  15.835 -0.4687 -0.9189 -0.8520
 5593TIP3    H238195   6.293   1.808  15.954  1.4903  0.5571  0.0219
 5594TIP3   OH238196   6.306   6.058   0.926 -0.2336 -0.9050  0.0316
 5594TIP3    H138197   6.260   5.985   0.966  0.5469 -0.7865  1.1622
 5594TIP3    H238198   6.241   6.128   0.922 -1.1563 -1.8202 -1.5885
 5595TIP3   OH238199   6.120   4.683   5.752  0.0113 -0.2264  0.4353
 5595TIP3    H138200   6.123   4.755   5.689  0.2518  1.8303  2.7275
 5595TIP3    H238201   6.212   4.658   5.763 -0.2205 -2.4063 -1.9545
 5596TIP3   OH238202   6.359   6.684  16.277 -0.4416  0.1507 -0.3338
 5596TIP3    H138203   6.386   6.594  16.256 -1.6397 -0.6256  1.3132
 5596TIP3    H238204   6.265   6.686  16.261 -0.5378  0.9136  0.2588
 5597TIP3   OH238205   6.012   3.767   2.512 -0.5316 -0.1130 -0.1228
 5597TIP3    H138206   6.017   3.683   2.558 -2.0476 -1.3277 -2.0598
 5597TIP3    H238207   6.084   3.819   2.548  0.9408 -2.5303  0.5452
 5598TIP3   OH238208   5.630   6.146  14.978  0.1089  0.0032  0.1145
 5598TIP3    H138209   5.571   6.131  14.903 -1.3453 -1.3854  1.4969
 5598TIP3    H238210   5.712   6.104  14.953  0.0382  0.6368 -1.2191
 5599TIP3   OH238211   4.256   1.099  15.642  0.2474 -0.1693 -0.2405
 5599TIP3    H138212   4.202   1.024  15.616 -1.2275  0.9971 -0.6259
 5599TIP3    H238213   4.277   1.082  15.734 -1.7494 -0.1304  0.2670
 5600TIP3   OH238214   4.961   3.902   4.491  0.6564 -0.0803 -1.2322
 5600TIP3    H138215   4.953   3.818   4.537 -1.1597  0.4076 -0.6338
 5600TIP3    H238216   5.035   3.888   4.431  0.9706 -1.8016 -0.5033
 5601TIP3   OH238217   0.507   5.318  15.851 -0.1578 -0.2047 -0.6031
 5601TIP3    H138218   0.479   5.280  15.768 -0.3924 -0.4573 -0.4096
 5601TIP3    H238219   0.471   5.406  15.851 -0.5548 -0.3661 -0.5653
 5602TIP3   OH238220   2.952   3.020  12.860 -0.1372 -0.3446 -0.2185
 5602TIP3    H138221   2.891   3.003  12.931 -0.0151  1.7664  0.4293
 5602TIP3    H238222   3.028   2.966  12.879 -0.4699 -0.4664  0.7676
 5603TIP3   OH238223   3.373   1.494  12.149  0.2870  0.2680 -0.0573
 5603TIP3    H138224   3.330   1.499  12.234  1.9782 -1.2220  0.8977
 5603TIP3    H238225   3.329   1.422  12.104  0.2160  0.2621  0.0214
 5604TIP3   OH238226   3.780   2.307   3.291 -0.3541  0.2590 -0.4159
 5604TIP3    H138227   3.862   2.297   3.244  0.2862  1.3380  0.4645
 5604TIP3    H238228   3.731   2.373   3.241 -0.4207  0.1012 -0.5624
 5605TIP3   OH238229   1.475   1.828  16.274 -0.1848  0.5838 -0.9173
 5605TIP3    H138230   1.516   1.816  16.189 -0.0447  0.2080 -0.7979
 5605TIP3    H238231   1.542   1.800  16.337 -0.6755 -0.2001 -0.7319
 5606TIP3   OH238232   3.214   3.057  13.919 -0.2925 -0.5542  0.2173
 5606TIP3    H138233   3.223   3.059  14.015 -0.8718  1.5460  0.2462
 5606TIP3    H238234   3.160   3.133  13.898 -0.9865 -1.5544 -1.7155
 5607TIP3   OH238235   3.953   4.371   4.727 -0.5311 -0.0026 -0.0043
 5607TIP3    H138236   4.032   4.381   4.780  0.3958 -0.3064 -1.2884
 5607TIP3    H238237   3.881   4.384   4.788  0.5058 -0.6282  1.3691
 5608TIP3   OH238238   0.402   1.561   0.051 -0.2632 -0.3413  0.5945
 5608TIP3    H138239   0.381   1.641   0.002 -0.3486 -0.4904  0.3905
 5608TIP3    H238240   0.479   1.525   0.007 -1.1090 -1.1686 -0.2317
 5609TIP3   OH238241   1.394   5.409  14.612  0.3550 -0.0554  0.5363
 5609TIP3    H138242   1.379   5.363  14.529  0.2146 -0.9865  1.0705
 5609TIP3    H238243   1.482   5.380  14.639  1.4914  2.2538 -0.5762
 5610TIP3   OH238244   3.154   0.012  16.877  0.3566 -0.3880 -0.0136
 5610TIP3    H138245   3.063   0.014  16.848 -0.3295 -0.3463  2.0156
 5610TIP3    H238246   3.175  -0.081  16.885  0.5754 -0.4008 -0.6918
 5611TIP3   OH238247   2.640   2.225  16.307 -0.0211 -0.1864 -0.0532
 5611TIP3    H138248   2.631   2.261  16.219 -1.2200 -0.1244  0.0833
 5611TIP3    H238249   2.674   2.136  16.294  3.2845  1.0651 -0.3756
 5612TIP3   OH238250   0.115   2.384   2.974  0.3017  0.1000 -0.3114
 5612TIP3    H138251   0.125   2.406   2.881 -0.5282  0.3166 -0.3460
 5612TIP3    H238252   0.180   2.438   3.018  0.0598  0.6829 -0.6695
 5613TIP3   OH238253   2.464   6.711  10.878  0.1589  0.4698  0.0192
 5613TIP3    H138254   2.421   6.791  10.909  0.0989  0.2466  0.5096
 5613TIP3    H238255   2.527   6.742  10.812 -0.4272  0.8409 -0.3738
 5614TIP3   OH238256   3.152   5.405  16.124 -0.2140  0.1458  0.2717
 5614TIP3    H138257   3.197   5.331  16.165 -0.3631 -0.4128 -0.5612
 5614TIP3    H238258   3.207   5.427  16.048  1.2716  2.5932  1.9694
 5615TIP3   OH238259   6.432   5.078  15.207 -0.7746  0.2760  0.3857
 5615TIP3    H138260   6.504   5.125  15.164 -1.7430  1.0836 -0.3742
 5615TIP3    H238261   6.459   5.072  15.299  0.4957  0.1155  0.0115
 5616TIP3   OH238262   6.232   5.251  14.423  0.1791 -0.1621  0.2061
 5616TIP3    H138263   6.324   5.278  14.416 -0.2971  1.2982 -0.6234
 5616TIP3    H238264   6.186   5.306  14.359 -1.0272 -2.0276 -0.5711
 5617TIP3   OH238265   0.746   1.652  15.349  0.3312  0.3337  0.5893
 5617TIP3    H138266   0.819   1.689  15.399  0.5727  0.5050  0.1149
 5617TIP3    H238267   0.669   1.665  15.405  0.2313  2.5063 -0.0074
 5618TIP3   OH238268   0.949   1.143   0.055  0.1058 -0.2024  0.0065
 5618TIP3    H138269   1.006   1.072   0.027 -0.4731 -0.6911  0.0567
 5618TIP3    H238270   0.877   1.143  -0.009 -0.6471 -0.6036  0.8503
 5619TIP3   OH238271   5.105   0.386  11.870  0.0860 -0.2703  0.2463
 5619TIP3    H138272   5.122   0.345  11.954 -0.3651  0.2155  0.5814
 5619TIP3    H238273   5.031   0.445  11.887  0.5703  0.4958 -0.2782
 5620TIP3   OH238274   0.978   0.599   3.265  0.1973  0.0631 -0.4469
 5620TIP3    H138275   0.991   0.506   3.280 -0.5711 -0.0501 -0.4355
 5620TIP3    H238276   0.906   0.623   3.323  0.2075  0.6046 -0.6480
 5621TIP3   OH238277   1.092   5.070   2.673  0.1169  0.3932 -0.0438
 5621TIP3    H138278   1.009   5.025   2.661  0.4730  0.0659 -1.4012
 5621TIP3    H238279   1.158   5.004   2.651  0.6561  1.4861 -1.8455
 5622TIP3   OH238280   5.403   4.416   2.852 -0.7408 -0.6514 -0.1609
 5622TIP3    H138281   5.397   4.338   2.907 -0.8815 -0.5519 -0.0346
 5622TIP3    H238282   5.386   4.489   2.912  0.9292 -0.4181  0.0422
 5623TIP3   OH238283   1.224   1.295  14.540 -0.0773 -0.1011 -0.1949
 5623TIP3    H138284   1.167   1.241  14.486 -0.8172  0.2461  0.2415
 5623TIP3    H238285   1.166   1.357  14.583  0.7428  0.9341 -0.5428
 5624TIP3   OH238286   5.532   1.892  14.914  0.5105 -0.5988 -0.6854
 5624TIP3    H138287   5.447   1.870  14.952 -0.1981 -0.4202 -2.1315
 5624TIP3    H238288   5.565   1.963  14.969 -0.2288 -0.7412 -0.0492
 5625TIP3   OH238289   2.030   0.561  13.524 -0.1077 -0.7024  0.0516
 5625TIP3    H138290   2.056   0.624  13.591 -0.8357 -1.0106  0.6271
 5625TIP3    H238291   1.935   0.568  13.520  0.0034  0.1526 -1.7813
 5626TIP3   OH238292   3.813   5.493  12.115  0.0894 -0.5906  0.2223
 5626TIP3    H138293   3.768   5.537  12.187  1.2662 -0.6585  0.9995
 5626TIP3    H238294   3.874   5.558  12.081  0.4281 -0.9693  0.0986
 5627TIP3   OH238295   5.494   0.282  13.232 -0.2106  0.1387  0.1847
 5627TIP3    H138296   5.429   0.351  13.249 -0.8389 -0.6152  0.8583
 5627TIP3    H238297   5.508   0.285  13.137 -1.8013 -0.2137 -0.0628
 5628TIP3   OH238298   1.123   2.447   2.578 -0.0412 -0.0028  0.1178
 5628TIP3    H138299   1.036   2.485   2.574  0.3466  0.8867  0.0998
 5628TIP3    H238300   1.158   2.457   2.489  1.1657  2.2441  0.8039
 5629TIP3   OH238301   0.329   3.529  11.801  0.3988  0.6070  0.6714
 5629TIP3    H138302   0.236   3.523  11.778  0.7737 -1.4132 -0.3628
 5629TIP3    H238303   0.364   3.594  11.740  0.0747 -0.0582 -0.2226
 5630TIP3   OH238304   5.397   6.753  12.211 -0.2008  0.2015 -0.1350
 5630TIP3    H138305   5.405   6.844  12.182 -2.2823  0.1735 -0.8498
 5630TIP3    H238306   5.447   6.703  12.146 -0.8313  0.6184 -0.9459
 5631TIP3   OH238307   3.466   0.605  10.805  0.2477  0.1276  0.5127
 5631TIP3    H138308   3.426   0.530  10.850 -0.9948  1.0531  0.9865
 5631TIP3    H238309   3.543   0.568  10.761 -0.9937 -1.6593 -0.2265
 5632TIP3   OH238310   5.380   2.312  16.078 -0.2252 -0.2206  0.1678
 5632TIP3    H138311   5.305   2.362  16.046 -1.6393 -2.1241  0.4949
 5632TIP3    H238312   5.405   2.357  16.159 -2.9237 -1.3281  1.6804
 5633TIP3   OH238313   1.000   5.187   0.369  0.0469  0.6735  0.5264
 5633TIP3    H138314   1.028   5.218   0.455  0.3951 -2.4844  1.5979
 5633TIP3    H238315   0.923   5.133   0.386  1.3726 -1.7320 -0.8767
 5634TIP3   OH238316   1.298   0.836  13.616 -0.2798 -0.3817  0.2783
 5634TIP3    H138317   1.232   0.814  13.682  0.1212  0.7165  1.0554
 5634TIP3    H238318   1.247   0.859  13.538 -0.8244  0.4218  0.8599
 5635TIP3   OH238319   3.877   1.287   6.290 -0.3061  0.2160  0.0521
 5635TIP3    H138320   3.836   1.339   6.359  0.3834  0.9560 -0.0900
 5635TIP3    H238321   3.964   1.326   6.279 -0.0920 -0.4457 -0.6286
 5636TIP3   OH238322   0.792   4.136  15.633 -0.0666  0.3902 -0.2479
 5636TIP3    H138323   0.787   4.119  15.728  1.7499 -0.5227 -0.2868
 5636TIP3    H238324   0.717   4.089  15.597  0.2142 -0.7190  0.5694
 5637TIP3   OH238325   2.104   1.849   0.344  0.0694  0.2709  0.4115
 5637TIP3    H138326   2.186   1.874   0.385  1.3886  1.7709 -2.9459
 5637TIP3    H238327   2.123   1.765   0.302 -0.0396  0.6892 -0.4945
 5638TIP3   OH238328   3.292   0.677   0.160 -0.6481 -0.6183  0.3894
 5638TIP3    H138329   3.334   0.678   0.074 -1.4369 -1.0807 -0.0055
 5638TIP3    H238330   3.322   0.597   0.201 -0.2314 -0.3722  0.5609
 5639TIP3   OH238331   5.161   2.436  11.817 -0.6450 -0.0478  0.1056
 5639TIP3    H138332   5.238   2.492  11.830 -0.7632 -0.1887  1.5667
 5639TIP3    H238333   5.165   2.374  11.890 -1.0029 -1.3847 -1.0026
 5640TIP3   OH238334   3.596   5.722  12.802 -0.5076  0.4366  0.5890
 5640TIP3    H138335   3.617   5.775  12.725 -1.8296  2.3081  1.4751
 5640TIP3    H238336   3.554   5.644  12.766  1.9750 -0.3476 -0.7710
 5641TIP3   OH238337   2.814   5.762  13.356 -0.0692  0.3971 -0.1087
 5641TIP3    H138338   2.747   5.794  13.295 -1.2872 -0.0132  0.9981
 5641TIP3    H238339   2.878   5.718  13.300  0.3780  2.6180 -1.4052
 5642TIP3   OH238340   5.624   0.284   4.637 -0.3931 -0.2276  0.3329
 5642TIP3    H138341   5.649   0.215   4.699 -1.2960 -0.2992  0.6325
 5642TIP3    H238342   5.676   0.267   4.559 -0.0095 -0.7562  0.6986
 5643TIP3   OH238343   2.790   4.814   4.395  0.1973  0.2894 -0.4652
 5643TIP3    H138344   2.696   4.799   4.401 -0.0965  2.0943 -0.5389
 5643TIP3    H238345   2.811   4.869   4.471  1.0754  0.4699 -0.8322
 5644TIP3   OH238346   5.324   2.242   4.074  0.1437 -0.0701  0.0070
 5644TIP3    H138347   5.341   2.152   4.100  0.9607  0.1464  0.2485
 5644TIP3    H238348   5.408   2.275   4.043  0.6552  1.5858  2.9615
 5645TIP3   OH238349   2.878   5.693  12.937 -0.0307 -0.7436 -0.1670
 5645TIP3    H138350   2.830   5.746  13.001 -0.8146  1.7648 -2.7307
 5645TIP3    H238351   2.957   5.744  12.919  0.9089 -2.1659 -0.0659
 5646TIP3   OH238352   2.282   1.517  12.811  0.2877  0.1757 -0.6039
 5646TIP3    H138353   2.341   1.589  12.835 -0.1178  0.3448 -0.1092
 5646TIP3    H238354   2.214   1.518  12.878  1.6206 -2.2476  0.8502
 5647TIP3   OH238355   4.687   1.530  16.232  0.3075  0.0294 -0.1225
 5647TIP3    H138356   4.639   1.594  16.284  0.0431 -0.5545  0.3618
 5647TIP3    H238357   4.622   1.492  16.174  0.8958  1.7637 -1.9858
 5648TIP3   OH238358   4.706   4.737  12.521  0.3595 -0.5474 -0.0318
 5648TIP3    H138359   4.683   4.758  12.431 -1.1163 -1.1566  0.1925
 5648TIP3    H238360   4.770   4.804  12.546  0.3525 -0.0507 -1.3402
 5649TIP3   OH238361   3.016   6.118   6.138  0.3308  0.0842 -0.0789
 5649TIP3    H138362   3.022   6.074   6.223  0.8681  0.4990  0.1018
 5649TIP3    H238363   3.070   6.196   6.148  0.3480  0.1633 -0.7884
 5650TIP3   OH238364   4.713   5.982   4.480  0.3949 -0.1039 -0.2323
 5650TIP3    H138365   4.757   6.055   4.522 -0.6576  1.1848 -1.3444
 5650TIP3    H238366   4.620   5.995   4.500 -0.0551  0.2110 -2.4421
 5651TIP3   OH238367   5.705   1.468   5.278 -0.0806 -0.0519 -0.5760
 5651TIP3    H138368   5.641   1.447   5.210 -1.8680  0.1860  0.9960
 5651TIP3    H238369   5.688   1.405   5.348  0.5890  0.7785  0.3509
 5652TIP3   OH238370   4.240   2.869  10.815  0.0592 -0.1699  0.0263
 5652TIP3    H138371   4.185   2.907  10.883  0.7851 -1.4200  1.3435
 5652TIP3    H238372   4.324   2.916  10.823 -0.4550  1.0350 -1.3170
 5653TIP3   OH238373   0.198   4.760   0.849 -0.1720 -0.0895  0.1206
 5653TIP3    H138374   0.152   4.680   0.825 -0.3446 -0.0660  0.3794
 5653TIP3    H238375   0.217   4.802   0.765  0.5941 -0.7737 -0.0601
 5654TIP3   OH238376   6.246   5.263   0.948  0.6441  0.7863 -0.3200
 5654TIP3    H138377   6.203   5.233   0.868 -0.0802 -2.5781  1.2048
 5654TIP3    H238378   6.188   5.234   1.019  3.7301 -0.9966  1.6364
 5655TIP3   OH238379   0.855   2.842   2.189  0.0203 -0.0955 -0.2224
 5655TIP3    H138380   0.837   2.786   2.113 -1.6520 -1.2232  0.9700
 5655TIP3    H238381   0.790   2.815   2.254 -0.9553  3.3446  0.3253
 5656TIP3   OH238382   4.032   0.500   0.653 -0.2979 -0.5363 -0.3290
 5656TIP3    H138383   3.945   0.482   0.616 -0.4783 -0.8980  0.2675
 5656TIP3    H238384   4.040   0.439   0.726  0.6749 -0.8751 -0.7093
 5657TIP3   OH238385   5.053   0.541   5.467  0.4136  0.2398 -0.1230
 5657TIP3    H138386   4.959   0.556   5.452  0.0230 -1.1032  0.8344
 5657TIP3    H238387   5.090   0.629   5.479 -0.8852  0.7318  0.3755
 5658TIP3   OH238388   3.268   4.061   3.758  0.1794  0.3266  0.5089
 5658TIP3    H138389   3.346   4.012   3.783 -0.0329  0.3232  1.1791
 5658TIP3    H238390   3.196   4.015   3.803  0.1093  1.9096  2.0665
 5659TIP3   OH238391   0.007   3.506  12.999  0.1988 -0.1300  0.0452
 5659TIP3    H138392   0.034   3.470  13.084 -0.0850 -1.6773 -0.4931
 5659TIP3    H238393   0.079   3.482  12.940 -1.2334 -2.2516 -0.9041
 5660TIP3   OH238394   5.042   6.763   0.543  0.0541 -0.2869  0.4094
 5660TIP3    H138395   4.984   6.721   0.479  0.2046 -0.7569  0.5783
 5660TIP3    H238396   5.129   6.751   0.507 -0.1381  3.0076 -1.3458
 5661TIP3   OH238397   4.867   2.174  15.274  0.0866 -0.4581  0.3588
 5661TIP3    H138398   4.820   2.168  15.357  1.1096 -0.8244  0.9192
 5661TIP3    H238399   4.812   2.231  15.220 -0.9763 -0.8526  1.0101
 5662TIP3   OH238400   1.705   1.795  13.434  0.2645 -0.2395 -0.1790
 5662TIP3    H138401   1.689   1.729  13.366  1.2663 -0.4868 -0.1880
 5662TIP3    H238402   1.705   1.745  13.516 -1.0004  0.0681  0.0106
 5663TIP3   OH238403   0.704   0.085  14.086 -0.1601  0.0960 -0.0682
 5663TIP3    H138404   0.735   0.167  14.123  1.0400  0.4001 -1.7115
 5663TIP3    H238405   0.618   0.106  14.050  0.8114  1.0391 -1.8787
 5664TIP3   OH238406   0.731   6.268  12.111  0.1514  0.2115 -0.1012
 5664TIP3    H138407   0.756   6.178  12.129  0.4682  0.3012 -0.0779
 5664TIP3    H238408   0.702   6.303  12.195 -1.8403 -0.4464 -0.5045
 5665TIP3   OH238409   5.692   3.274  17.019 -0.2375  0.0733 -0.5198
 5665TIP3    H138410   5.622   3.276  16.954  0.5768 -0.0586 -1.4040
 5665TIP3    H238411   5.697   3.364  17.051 -1.5210 -0.1412  0.3208
 5666TIP3   OH238412   5.038   5.472  14.924  0.0607  0.0083  0.4166
 5666TIP3    H138413   5.052   5.512  14.839 -0.1771 -0.3509  0.2096
 5666TIP3    H238414   5.126   5.465  14.962 -0.0092  1.8596  0.9763
 5667TIP3   OH238415   5.209   3.656   6.025  0.1045 -0.1227 -0.2661
 5667TIP3    H138416   5.156   3.726   5.987  0.7844 -0.4029 -1.7319
 5667TIP3    H238417   5.172   3.575   5.990 -0.6169 -0.5322  1.3493
 5668TIP3   OH238418   6.042   1.897  14.223 -0.0058 -0.0519  0.2280
 5668TIP3    H138419   6.085   1.944  14.294  0.8276 -1.7274  0.8645
 5668TIP3    H238420   5.999   1.965  14.171  3.6675  1.7318 -0.6196
 5669TIP3   OH238421   3.320   2.838   5.342  0.0519 -0.6343  0.1410
 5669TIP3    H138422   3.270   2.757   5.355 -0.8938  0.0570  0.8509
 5669TIP3    H238423   3.300   2.892   5.418  0.4869  0.3732 -0.4445
 5670TIP3   OH238424   4.576   2.489  15.981 -0.0974 -0.0093 -0.5936
 5670TIP3    H138425   4.644   2.457  15.921  1.0922  2.6365 -0.7410
 5670TIP3    H238426   4.494   2.475  15.933  0.5596 -0.8671 -1.4914
 5671TIP3   OH238427   5.300   1.742  17.085  0.1731  0.6759  0.7346
 5671TIP3    H138428   5.215   1.728  17.042  1.3720 -0.6985 -1.2958
 5671TIP3    H238429   5.307   1.671  17.148  1.0024 -0.9137 -1.0889
 5672TIP3   OH238430   1.302   3.890   1.959 -0.5593 -0.7497 -0.0792
 5672TIP3    H138431   1.222   3.839   1.943 -0.2268 -1.3747  0.2505
 5672TIP3    H238432   1.347   3.890   1.874 -0.9535 -0.3129 -0.2916
 5673TIP3   OH238433   1.806   3.963   2.305 -0.0171  0.0478  0.1413
 5673TIP3    H138434   1.870   3.997   2.367 -0.0847  1.2547 -0.4540
 5673TIP3    H238435   1.854   3.953   2.223 -0.3328 -0.0453 -0.0337
 5674TIP3   OH238436   3.201   3.075  12.324  0.3850  0.1835 -0.0021
 5674TIP3    H138437   3.206   3.106  12.234 -1.6066 -1.8178 -0.8718
 5674TIP3    H238438   3.166   2.986  12.316  0.2684 -0.0532  2.7376
 5675TIP3   OH238439   1.799   1.804  15.106 -0.3345  0.5555  0.0980
 5675TIP3    H138440   1.822   1.846  15.024 -2.0469  2.6310  0.6430
 5675TIP3    H238441   1.879   1.759  15.133  0.6534  0.9892 -1.9872
 5676TIP3   OH238442   1.592   2.666   1.501  0.1811  0.1375 -0.2651
 5676TIP3    H138443   1.596   2.628   1.589 -0.6629  0.8042  0.0733
 5676TIP3    H238444   1.524   2.616   1.456 -0.6512  0.9558  0.0531
 5677TIP3   OH238445   6.079   2.991  16.346  0.4139 -0.3232 -0.1430
 5677TIP3    H138446   6.051   2.965  16.259  0.3094 -1.7488  0.3057
 5677TIP3    H238447   6.142   2.924  16.372  1.0357  0.5276  0.5584
 5678TIP3   OH238448   4.884   5.284  15.245 -0.3320 -0.7041 -0.1902
 5678TIP3    H138449   4.815   5.301  15.181 -0.9276 -0.0589  0.5960
 5678TIP3    H238450   4.850   5.323  15.326  0.8834 -0.5437  0.2422
 5679TIP3   OH238451   5.763   3.276  10.710 -0.2368  0.3968 -0.3149
 5679TIP3    H138452   5.821   3.200  10.712 -0.9461 -0.2334 -2.3931
 5679TIP3    H238453   5.822   3.351  10.705  0.4498 -0.1312 -0.2119
 5680TIP3   OH238454   1.911   3.060   5.099 -0.1384 -0.1656 -0.2845
 5680TIP3    H138455   1.853   3.008   5.155  0.3401 -0.4386 -0.0365
 5680TIP3    H238456   1.992   3.009   5.096  0.6897  1.0641  0.7918
 5681TIP3   OH238457   5.047   1.162   5.974  0.0430  0.2429 -0.0288
 5681TIP3    H138458   5.094   1.245   5.976 -2.4667  1.6855  1.4778
 5681TIP3    H238459   5.110   1.098   6.007  1.3228  1.9029  0.8046
 5682TIP3   OH238460   2.287   3.957  13.421 -0.0163  0.4153 -0.4125
 5682TIP3    H138461   2.314   4.020  13.487  0.9958 -0.5087  0.0631
 5682TIP3    H238462   2.337   3.981  13.343  1.1869 -0.4629  0.0796
 5683TIP3   OH238463   0.679   2.783   0.974 -0.5542 -0.3262 -0.1310
 5683TIP3    H138464   0.653   2.834   0.898  0.1831  0.4281  0.1163
 5683TIP3    H238465   0.745   2.837   1.018 -2.6171  0.3076  2.3293
 5684TIP3   OH238466   0.732   1.730   0.391  0.1907  0.0735  0.0440
 5684TIP3    H138467   0.647   1.744   0.434  0.2885  0.1043  0.2256
 5684TIP3    H238468   0.796   1.740   0.461  0.1915 -2.9761  0.5420
 5685TIP3   OH238469   2.529   1.437   5.990  0.0038  0.3225 -0.2700
 5685TIP3    H138470   2.568   1.524   5.998  0.2173  0.2630 -0.6687
 5685TIP3    H238471   2.553   1.408   5.902  0.1378 -0.2411 -0.0441
 5686TIP3   OH238472   0.029   2.013  14.328 -0.0299  0.3560 -0.1151
 5686TIP3    H138473   0.048   1.948  14.395 -0.3218  0.3446 -0.0443
 5686TIP3    H238474   0.084   1.987  14.254 -0.2003 -0.0134 -0.1129
 5687TIP3   OH238475   1.423   3.775   0.583 -0.3372 -0.4769  0.0939
 5687TIP3    H138476   1.411   3.736   0.496  1.7689 -1.7980  0.3583
 5687TIP3    H238477   1.495   3.837   0.572  1.8947 -2.7239  1.4650
 5688TIP3   OH238478   1.661   4.522   0.194 -0.5521  0.3375 -0.2754
 5688TIP3    H138479   1.593   4.588   0.186 -0.8051 -0.0749 -1.6682
 5688TIP3    H238480   1.743   4.571   0.188 -0.7377  0.4477 -2.1596
 5689TIP3   OH238481   3.627   1.435  17.166 -0.1504  0.1228 -1.0921
 5689TIP3    H138482   3.644   1.356  17.217 -1.5303 -0.2213 -1.1319
 5689TIP3    H238483   3.612   1.503  17.232  1.5606  0.4692 -1.0595
 5690TIP3   OH238484   0.993   1.457   4.353 -0.4162 -0.5556  0.2768
 5690TIP3    H138485   0.903   1.426   4.366 -0.5939  0.5367  1.7168
 5690TIP3    H238486   0.983   1.545   4.316  0.0783 -0.7026 -0.2211
 5691TIP3   OH238487   6.720   4.260   0.709 -0.4801 -0.1057 -0.1491
 5691TIP3    H138488   6.743   4.272   0.617 -0.0780 -1.0550 -0.1811
 5691TIP3    H238489   6.703   4.348   0.741  1.3120  0.4415 -0.6272
 5692TIP3   OH238490   1.003   4.521   0.460  0.0518 -0.2045 -0.0899
 5692TIP3    H138491   1.037   4.433   0.478  1.7149  0.8230  1.9991
 5692TIP3    H238492   1.068   4.560   0.401 -0.0081  0.0918  0.0408
 5693TIP3   OH238493   0.364   0.523  14.019  0.0204 -0.1676  0.2424
 5693TIP3    H138494   0.416   0.519  13.938  0.1404 -0.3660  0.3303
 5693TIP3    H238495   0.363   0.616  14.042 -2.3232  0.2954 -1.5028
 5694TIP3   OH238496   0.426   1.674   6.349  0.4111 -0.3668 -0.0773
 5694TIP3    H138497   0.373   1.721   6.285  1.2485  1.3526  0.4723
 5694TIP3    H238498   0.438   1.736   6.421  1.4366 -1.4626  0.7212
 5695TIP3   OH238499   1.254   0.626   2.803 -0.0510  0.5408  0.2298
 5695TIP3    H138500   1.288   0.694   2.862  1.5865 -1.0109  1.1071
 5695TIP3    H238501   1.323   0.560   2.800 -1.1090 -0.5171 -1.5934
 5696TIP3   OH238502   5.674   3.644  13.859  0.4286 -0.7276  0.8221
 5696TIP3    H138503   5.638   3.652  13.947  1.1537 -1.3494  1.1759
 5696TIP3    H238504   5.768   3.634  13.872  0.6626  0.1597 -0.0678
 5697TIP3   OH238505   4.434   4.433   6.098  0.4319 -0.1086  0.5709
 5697TIP3    H138506   4.406   4.507   6.151 -0.4134 -0.5248  0.7260
 5697TIP3    H238507   4.457   4.471   6.013 -0.5112  0.2811  0.4772
 5698TIP3   OH238508   3.897   0.071  13.201 -0.1027 -0.2224 -0.2917
 5698TIP3    H138509   3.924  -0.014  13.237 -0.2425 -0.0819  0.1493
 5698TIP3    H238510   3.890   0.056  13.107 -0.2087 -0.7252 -0.2063
 5699TIP3   OH238511   1.385   0.357   1.538 -0.0274 -0.4830 -0.2671
 5699TIP3    H138512   1.366   0.363   1.631 -0.0011  0.7026 -0.3270
 5699TIP3    H238513   1.469   0.311   1.533  0.0503 -0.3981  0.3015
 5700TIP3   OH238514   4.671   3.103  14.209  0.2765 -0.0895 -0.1801
 5700TIP3    H138515   4.615   3.060  14.145  1.1211 -1.4794 -0.0028
 5700TIP3    H238516   4.614   3.122  14.283 -0.1098 -0.8960 -0.2684
 5701TIP3   OH238517   0.641   4.116  13.446  0.2539 -0.4620  0.6765
 5701TIP3    H138518   0.700   4.166  13.502  0.9171  0.4045 -0.7804
 5701TIP3    H238519   0.688   4.106  13.363 -1.7658  0.5537 -0.6306
 5702TIP3   OH238520   4.739   0.141  16.861  0.3800  0.4564 -0.5913
 5702TIP3    H138521   4.744   0.236  16.872  0.3463  0.3977 -0.0486
 5702TIP3    H238522   4.825   0.117  16.827  0.5635  0.6169 -0.2452
 5703TIP3   OH238523   0.632   2.870   0.405  0.0484 -0.6843 -0.8621
 5703TIP3    H138524   0.694   2.942   0.414  1.5623 -2.0078 -0.4450
 5703TIP3    H238525   0.664   2.820   0.330 -0.2712 -1.6036 -0.3964
 5704TIP3   OH238526   1.331   2.536   4.056  0.1361 -0.2279  0.1717
 5704TIP3    H138527   1.310   2.626   4.032  2.6398  0.0442 -1.1500
 5704TIP3    H238528   1.393   2.544   4.128 -0.8350 -0.9530  1.1193
 5705TIP3   OH238529   3.446   3.367  17.176  0.5917 -0.1661 -0.2475
 5705TIP3    H138530   3.442   3.393  17.268  0.7737 -0.2238 -0.2213
 5705TIP3    H238531   3.540   3.358  17.158  0.5901  0.6345 -0.6657
 5706TIP3   OH238532   0.999   1.335   5.561  0.1490  0.9037  0.1106
 5706TIP3    H138533   0.937   1.342   5.634 -1.2112  0.0295 -0.9341
 5706TIP3    H238534   0.979   1.250   5.521  0.8867  1.3827 -1.2909
 5707TIP3   OH238535   3.363   5.495   4.693  0.3523  0.2802 -0.1024
 5707TIP3    H138536   3.423   5.495   4.768  0.9769 -1.5946 -0.5529
 5707TIP3    H238537   3.370   5.583   4.657  2.3560  0.2975  0.2497
 5708TIP3   OH238538   3.807   1.343   5.687 -0.6727 -0.3793 -0.0766
 5708TIP3    H138539   3.880   1.287   5.661  0.9279  1.4911  0.2666
 5708TIP3    H238540   3.807   1.340   5.783  0.2337  1.1825 -0.0103
 5709TIP3   OH238541   2.222   5.344   5.628  0.1002 -1.1775  0.1109
 5709TIP3    H138542   2.166   5.421   5.636 -1.5683 -2.5609  2.0116
 5709TIP3    H238543   2.288   5.357   5.696  1.7337  0.0784 -1.6375
 5710TIP3   OH238544   5.943   2.585   1.982  0.3681  0.3192  0.5766
 5710TIP3    H138545   5.956   2.492   2.003  1.1048  0.3994  0.4642
 5710TIP3    H238546   5.882   2.616   2.049 -1.0555 -0.6131 -0.2754
 5711TIP3   OH238547   5.479   5.209   2.056  0.0427 -0.3863 -0.2917
 5711TIP3    H138548   5.535   5.241   1.986 -0.2290 -0.0273 -0.3489
 5711TIP3    H238549   5.464   5.286   2.111 -1.1070 -0.2689 -0.7579
 5712TIP3   OH238550   1.405   3.392  13.802 -0.1410 -0.7864 -0.4186
 5712TIP3    H138551   1.432   3.373  13.892  3.0151 -2.3101 -1.6238
 5712TIP3    H238552   1.459   3.466  13.776 -0.2023 -1.0932 -1.4356
 5713TIP3   OH238553   2.539   6.109   2.487  0.0263  0.1107 -0.0039
 5713TIP3    H138554   2.503   6.048   2.423  1.6440  0.5076 -1.3346
 5713TIP3    H238555   2.554   6.189   2.438  0.4802  0.7019  1.0838
 5714TIP3   OH238556   4.392   0.737   2.846  0.4790 -0.0822  0.6138
 5714TIP3    H138557   4.357   0.820   2.880  0.0612 -0.2584  0.6145
 5714TIP3    H238558   4.315   0.682   2.832  0.3270  0.9089 -3.1854
 5715TIP3   OH238559   4.785   1.478   4.182  0.2329 -0.7279  1.1485
 5715TIP3    H138560   4.825   1.441   4.104  0.1304 -1.0527  1.2514
 5715TIP3    H238561   4.825   1.430   4.255  0.2836 -0.4687  1.2951
 5716TIP3   OH238562   4.436   3.442   0.634  0.3707 -0.6454  0.0951
 5716TIP3    H138563   4.367   3.376   0.627  0.9752 -1.3683  0.7910
 5716TIP3    H238564   4.395   3.516   0.677 -0.3296 -0.5464 -0.7219
 5717TIP3   OH238565   0.285   1.097   0.864  0.0671 -0.0025  0.3293
 5717TIP3    H138566   0.294   1.165   0.930  2.1763 -0.5513  0.6745
 5717TIP3    H238567   0.329   1.021   0.903 -1.4715 -1.2887 -0.4018
 5718TIP3   OH238568   3.426   0.869   5.417  0.1357 -0.0360  0.0954
 5718TIP3    H138569   3.465   0.781   5.422  1.0118  0.2917 -0.8088
 5718TIP3    H238570   3.501   0.928   5.411 -0.4827  0.6934 -0.5102
 5719TIP3   OH238571   4.860   4.188   3.835 -0.2725  0.1695  0.3919
 5719TIP3    H138572   4.882   4.097   3.814  1.6563  0.5700  0.5831
 5719TIP3    H238573   4.888   4.198   3.926  0.1975  1.1652  0.1382
 5720TIP3   OH238574   0.962   3.851   3.540  0.1027  0.3189  0.1451
 5720TIP3    H138575   0.968   3.868   3.446  0.8339  2.7943  0.6090
 5720TIP3    H238576   1.046   3.811   3.563  0.2355  0.4519 -0.1121
 5721TIP3   OH238577   0.534   6.484  13.340 -0.3397  0.1575  0.0954
 5721TIP3    H138578   0.588   6.416  13.381  0.3179  1.4266  1.3623
 5721TIP3    H238579   0.589   6.518  13.269 -0.0550  0.4305  0.4445
 5722TIP3   OH238580   1.902   1.395   4.738 -0.4655 -0.0803  0.1452
 5722TIP3    H138581   1.984   1.380   4.691 -0.0132 -2.5530  1.6150
 5722TIP3    H238582   1.922   1.465   4.800  0.7524 -1.1466  0.9709
 5723TIP3   OH238583   2.563   4.196   3.268 -0.0263  0.0616 -0.8575
 5723TIP3    H138584   2.543   4.224   3.357 -0.1880  0.8016 -1.1262
 5723TIP3    H238585   2.522   4.261   3.212  1.0676  0.2473 -1.4640
 5724TIP3   OH238586   1.627   6.246  14.548  0.2132  0.3325 -0.0428
 5724TIP3    H138587   1.578   6.325  14.526  0.4474 -0.1745 -2.5047
 5724TIP3    H238588   1.619   6.190  14.470  1.7400 -1.2305  0.8898
 5725TIP3   OH238589   6.421   4.350   6.566  0.1878 -0.1662 -0.0549
 5725TIP3    H138590   6.488   4.322   6.629 -0.5033 -1.3089  0.1872
 5725TIP3    H238591   6.351   4.386   6.621 -0.7177 -1.8009 -0.1021
 5726TIP3   OH238592   2.182   3.847  12.462 -0.2044  0.0047  0.5387
 5726TIP3    H138593   2.173   3.789  12.538 -0.1068  0.0385  0.5757
 5726TIP3    H238594   2.179   3.788  12.387  1.6943 -0.2424  0.6428
 5727TIP3   OH238595   5.657   3.610  11.836 -0.0627  0.4182 -0.2810
 5727TIP3    H138596   5.731   3.552  11.817  0.1365  0.2636  0.9261
 5727TIP3    H238597   5.666   3.630  11.929 -2.5552 -1.0522  0.3038
 5728TIP3   OH238598   3.469   4.852  15.570 -0.0573  0.5399  0.5940
 5728TIP3    H138599   3.384   4.888  15.545  0.5050  1.4585 -0.0046
 5728TIP3    H238600   3.532   4.894  15.512  0.6075 -1.6397 -0.3459
 5729TIP3   OH238601   3.375   4.469  13.213  0.1439 -0.0342 -0.3202
 5729TIP3    H138602   3.420   4.468  13.128 -2.8694  0.3321 -1.9791
 5729TIP3    H238603   3.319   4.547  13.210 -0.7145 -0.5475  1.6349
 5730TIP3   OH238604   1.312   6.682   3.724 -0.0667  0.3052  0.1543
 5730TIP3    H138605   1.293   6.734   3.646 -0.7186 -0.4091 -0.1753
 5730TIP3    H238606   1.259   6.722   3.793 -1.5171 -0.6397 -0.3756
 5731TIP3   OH238607   1.721   1.642   0.123 -0.3471  0.2979  0.0649
 5731TIP3    H138608   1.702   1.617   0.033  1.5332  2.2909 -0.9451
 5731TIP3    H238609   1.640   1.684   0.154 -0.4638  1.0487 -1.2443
 5732TIP3   OH238610   1.791   6.180  16.465  0.5791  0.1813 -0.1215
 5732TIP3    H138611   1.854   6.213  16.401  0.4421  0.7496  0.0405
 5732TIP3    H238612   1.828   6.096  16.493 -0.3371 -1.0454 -2.4113
 5733TIP3   OH238613   1.222   4.769   4.133  0.1253  0.5318  0.0651
 5733TIP3    H138614   1.223   4.757   4.038  0.5737  1.8046 -0.1063
 5733TIP3    H238615   1.261   4.690   4.168 -1.0518 -0.4277 -0.7556
 5734TIP3   OH238616   2.045   1.202  11.354  0.1966  0.0439  0.2550
 5734TIP3    H138617   1.953   1.179  11.369  0.3269 -1.2007 -0.7420
 5734TIP3    H238618   2.042   1.264  11.281  0.2689 -1.8374 -1.4296
 5735TIP3   OH238619   3.860   2.052  15.568  0.6265 -0.0985 -0.0844
 5735TIP3    H138620   3.833   2.035  15.477  0.5772 -0.0355 -0.0815
 5735TIP3    H238621   3.955   2.060  15.563  0.8099 -1.8957  0.1533
 5736TIP3   OH238622   2.959   5.896  13.839  0.3844 -0.0490  0.5735
 5736TIP3    H138623   2.962   5.912  13.745  1.9267  0.3203  0.6690
 5736TIP3    H238624   3.039   5.936  13.873 -0.9138  1.1788  2.2604
 5737TIP3   OH238625   6.297   4.827  16.995  0.1617 -0.1471  0.9171
 5737TIP3    H138626   6.271   4.787  17.078 -0.8642 -0.1277  0.6163
 5737TIP3    H238627   6.215   4.835  16.946  0.3487  2.1683  0.9173
 5738TIP3   OH238628   3.361   6.741   0.063 -0.0701 -0.0685  0.3157
 5738TIP3    H138629   3.439   6.685   0.069  0.4975  0.5579 -1.0889
 5738TIP3    H238630   3.295   6.686   0.022  1.0383  0.8362 -2.7596
 5739TIP3   OH238631   2.590   0.831   3.066  0.3107  0.3794  0.0816
 5739TIP3    H138632   2.640   0.840   3.147  1.9576 -2.1469 -0.5876
 5739TIP3    H238633   2.539   0.751   3.078  1.1482 -0.4513 -1.6413
 5740TIP3   OH238634   0.177   5.425  12.586  0.9004 -0.3713  0.2891
 5740TIP3    H138635   0.255   5.402  12.635  0.3269  1.6256  2.2096
 5740TIP3    H238636   0.191   5.516  12.559 -0.1070 -0.4745 -0.6496
 5741TIP3   OH238637   6.433   1.691   0.019  0.2718  0.4319 -0.1464
 5741TIP3    H138638   6.446   1.774  -0.025 -0.5706 -0.0060 -1.2289
 5741TIP3    H238639   6.369   1.644  -0.034 -1.4218  0.2334  1.9938
 5742TIP3   OH238640   4.329   4.605  11.738  0.8441  0.5463  0.1908
 5742TIP3    H138641   4.332   4.635  11.648 -1.0316  2.8569  0.8600
 5742TIP3    H238642   4.380   4.670  11.787 -1.2961  1.4346  1.3116
 5743TIP3   OH238643   5.925   2.853  15.217  0.0477 -0.4763  0.3318
 5743TIP3    H138644   5.950   2.783  15.156  0.7267  0.4987 -0.5224
 5743TIP3    H238645   5.835   2.875  15.193  0.0908 -0.5464  0.1084
 5744TIP3   OH238646   6.731   3.278   1.248  0.0146  0.3247 -0.1053
 5744TIP3    H138647   6.769   3.260   1.162 -0.9083  1.3125 -0.7268
 5744TIP3    H238648   6.805   3.303   1.303  0.9065 -2.2844 -0.0503
 5745TIP3   OH238649   4.768   0.679  14.794  0.2197 -0.0442 -0.2255
 5745TIP3    H138650   4.677   0.703  14.812  0.4828 -0.1588  1.2825
 5745TIP3    H238651   4.817   0.713  14.868  1.1699 -1.5900 -0.1345
 5746TIP3   OH238652   1.782   2.337   3.539 -0.1095 -0.1235 -0.0750
 5746TIP3    H138653   1.706   2.395   3.528  0.2058  0.5322  1.0977
 5746TIP3    H238654   1.844   2.388   3.591  0.0125 -1.6516  1.3150
 5747TIP3   OH238655   3.530   5.107  16.886  0.1280 -0.6436 -0.8368
 5747TIP3    H138656   3.558   5.196  16.864  2.1243 -1.4225 -1.5792
 5747TIP3    H238657   3.536   5.103  16.982 -2.7673  0.8852 -0.5445
 5748TIP3   OH238658   0.032   1.188   6.083  0.2565 -0.4729 -0.6951
 5748TIP3    H138659   0.056   1.143   6.165 -1.2391  0.6932  0.4122
 5748TIP3    H238660   0.115   1.212   6.043  0.9960 -0.4481  0.8324
 5749TIP3   OH238661   1.536   1.644   3.272 -0.4718 -0.2212 -0.5486
 5749TIP3    H138662   1.559   1.735   3.291 -0.3768 -0.3011 -0.2669
 5749TIP3    H238663   1.480   1.648   3.195 -1.1019  0.1396 -0.0689
 5750TIP3   OH238664   4.692   6.011  16.904 -0.4355  0.6855  0.1001
 5750TIP3    H138665   4.679   5.919  16.881  1.0562  0.5072 -0.0414
 5750TIP3    H238666   4.616   6.056  16.866 -0.3116 -0.2449 -1.2771
 5751TIP3   OH238667   3.534   1.671   0.808  0.4425  0.4661 -0.3773
 5751TIP3    H138668   3.506   1.728   0.736 -0.1580  1.7716  0.8774
 5751TIP3    H238669   3.458   1.666   0.866  0.0684 -2.5752 -1.0321
 5752TIP3   OH238670   6.477   1.090   0.789 -0.0247 -0.3431  0.0819
 5752TIP3    H138671   6.518   1.020   0.841  0.5684 -0.8681 -1.0880
 5752TIP3    H238672   6.390   1.056   0.768  0.2749 -0.7392 -0.5125
 5753TIP3   OH238673   3.034   0.462   3.658 -0.3470  0.6083  0.4022
 5753TIP3    H138674   3.095   0.527   3.623  0.9298  0.6594  2.7048
 5753TIP3    H238675   2.962   0.514   3.695  0.4512  0.7074  1.8287
 5754TIP3   OH238676   6.574   5.973   5.083  1.2125  0.1828  0.0789
 5754TIP3    H138677   6.582   5.934   4.996 -1.1226  0.1104 -0.1239
 5754TIP3    H238678   6.501   5.927   5.124  0.5093  2.1142  1.0495
 5755TIP3   OH238679   0.799   5.556  14.721  0.1382 -0.1960 -0.0493
 5755TIP3    H138680   0.709   5.586  14.704 -0.1474 -0.8244  0.3218
 5755TIP3    H238681   0.817   5.495  14.650  0.5093  0.4084 -0.4803
 5756TIP3   OH238682   3.922   4.829   5.725  0.3080 -0.1155 -0.1567
 5756TIP3    H138683   3.902   4.761   5.790  4.5507  0.4407  1.9152
 5756TIP3    H238684   3.947   4.780   5.646  0.0370 -0.9042  0.2441
 5757TIP3   OH238685   1.413   4.672  10.453  0.3934 -0.0338  0.5958
 5757TIP3    H138686   1.350   4.603  10.475 -1.1111  0.7444 -1.1523
 5757TIP3    H238687   1.376   4.752  10.491 -0.8621  0.8266 -2.2787
 5758TIP3   OH238688   1.593   5.934   0.712  0.5431  0.6122 -0.4216
 5758TIP3    H138689   1.585   5.855   0.765  1.3069  0.0150 -1.1849
 5758TIP3    H238690   1.671   5.979   0.746  0.2584  0.9057 -0.1562
 5759TIP3   OH238691   1.490   6.385  10.409  0.0771 -0.2645  0.4766
 5759TIP3    H138692   1.541   6.453  10.453  0.8508  1.1218 -2.4319
 5759TIP3    H238693   1.406   6.426  10.388  0.7060 -0.0029 -1.6823
 5760TIP3   OH238694   2.986   1.095   6.409 -0.0500 -0.1611 -0.3863
 5760TIP3    H138695   2.933   1.077   6.487 -0.6413  1.9026 -0.2664
 5760TIP3    H238696   3.066   1.135   6.443  0.2607 -0.4575 -0.7652
 5761TIP3   OH238697   4.593   0.763   1.955 -0.0986  0.1644  0.3403
 5761TIP3    H138698   4.645   0.722   2.023  0.4072  0.2635  0.0126
 5761TIP3    H238699   4.597   0.857   1.974 -0.4449  0.1474  0.5138
 5762TIP3   OH238700   1.913   0.446   3.611  0.4573  0.0980 -0.1961
 5762TIP3    H138701   1.985   0.384   3.621  0.4004  0.2987  1.8602
 5762TIP3    H238702   1.874   0.425   3.527  2.9401  0.0209 -1.3832
 5763TIP3   OH238703   1.390   6.494  12.235  0.0931  0.1804  0.5435
 5763TIP3    H138704   1.340   6.498  12.317 -0.1427  2.7403  0.3206
 5763TIP3    H238705   1.345   6.554  12.176  2.1092  0.8000 -0.4117
 5764TIP3   OH238706   6.163   2.886  10.820 -0.4646  0.7046 -0.5033
 5764TIP3    H138707   6.101   2.822  10.855  1.2563 -1.0582 -0.6031
 5764TIP3    H238708   6.189   2.938  10.896  0.0502 -0.3631  0.0564
 5765TIP3   OH238709   2.487   2.187  15.039 -0.4499  0.0430  0.1008
 5765TIP3    H138710   2.442   2.160  15.119 -0.5757 -2.5715 -0.8184
 5765TIP3    H238711   2.564   2.131  15.035  0.4269  1.2678 -0.7948
 5766TIP3   OH238712   6.286   2.437   1.519  0.0663 -0.0872  0.2746
 5766TIP3    H138713   6.191   2.448   1.526  0.2629  0.9696  1.4825
 5766TIP3    H238714   6.299   2.400   1.432 -1.2605  2.2786 -1.0004
 5767TIP3   OH238715   1.829   6.611  12.557 -0.3670  0.4056  0.1262
 5767TIP3    H138716   1.806   6.628  12.648  1.9581  0.5736  0.7164
 5767TIP3    H238717   1.872   6.525  12.559 -1.7565 -0.3450 -1.0811
 5768TIP3   OH238718   5.847   1.453  12.915  0.7867 -0.3238  0.6504
 5768TIP3    H138719   5.877   1.535  12.955 -0.3282 -0.7881  2.5394
 5768TIP3    H238720   5.787   1.481  12.846  2.2247  0.4948 -0.2794
 5769TIP3   OH238721   2.187   2.914  16.486  0.1631  0.4016  0.2965
 5769TIP3    H138722   2.140   2.936  16.566 -2.1352 -1.9806 -0.3096
 5769TIP3    H238723   2.260   2.860  16.515 -0.7286 -0.5509  0.8240
 5770TIP3   OH238724   5.267   5.932   4.171  0.4424  0.1541  0.2465
 5770TIP3    H138725   5.360   5.942   4.148  0.7825 -1.7116  0.7303
 5770TIP3    H238726   5.223   6.003   4.124  1.7471 -0.5956 -2.2245
 5771TIP3   OH238727   5.640   0.540  13.406 -0.1120 -0.2238 -0.1261
 5771TIP3    H138728   5.686   0.518  13.487 -0.4142 -0.7941 -0.1064
 5771TIP3    H238729   5.697   0.604  13.363  0.2723 -0.2646  0.3176
 5772TIP3   OH238730   2.141   6.740   4.378 -0.8646  0.1953  0.2796
 5772TIP3    H138731   2.060   6.761   4.332 -1.5231  0.9554  1.7554
 5772TIP3    H238732   2.206   6.729   4.309 -2.1446 -0.0711 -0.8977
 5773TIP3   OH238733   2.736   3.581  12.331  0.0215 -0.0927  0.3532
 5773TIP3    H138734   2.692   3.498  12.314 -1.0302  0.1739  1.6733
 5773TIP3    H238735   2.665   3.644  12.343  0.8069  1.0828 -0.9832
 5774TIP3   OH238736   5.052   4.723   5.923  0.5487 -0.4472 -0.0650
 5774TIP3    H138737   5.090   4.755   5.841  1.2298  0.2095  0.4967
 5774TIP3    H238738   4.963   4.756   5.923  1.1988  1.3756  0.4490
 5775TIP3   OH238739   2.524   6.578   0.541 -0.8738 -0.2016  0.1154
 5775TIP3    H138740   2.613   6.605   0.562 -0.8960 -0.4707  0.5618
 5775TIP3    H238741   2.483   6.656   0.505 -0.2558 -0.2526 -0.7272
 5776TIP3   OH238742   3.308   0.598   2.906  0.0742 -0.1221  0.1110
 5776TIP3    H138743   3.287   0.676   2.958  0.7798  1.1992 -1.5319
 5776TIP3    H238744   3.223   0.562   2.883 -0.2960  1.0261 -0.3750
 5777TIP3   OH238745   5.335   4.406   3.401  0.3152  0.1705 -0.1788
 5777TIP3    H138746   5.378   4.351   3.467  0.3034  0.6598  0.2318
 5777TIP3    H238747   5.407   4.431   3.342  0.4400  0.2698  0.0140
 5778TIP3   OH238748   6.077   5.381   4.529  0.4082  0.0886  0.3591
 5778TIP3    H138749   6.050   5.299   4.570 -2.0534  1.0843  0.8183
 5778TIP3    H238750   5.996   5.430   4.517  1.1393  0.3273 -4.6801
 5779TIP3   OH238751   6.209   5.685   4.629 -0.5536 -0.0647  0.4473
 5779TIP3    H138752   6.288   5.643   4.594 -1.1110 -0.8238  0.0716
 5779TIP3    H238753   6.238   5.728   4.709  0.4094  0.3498 -0.1224
 5780TIP3   OH238754   5.070   3.144   3.568  0.9780 -0.2398 -0.0741
 5780TIP3    H138755   5.019   3.196   3.630  1.1192  0.4937 -0.5663
 5780TIP3    H238756   5.011   3.133   3.492  1.2044 -0.1983 -0.2568
 5781TIP3   OH238757   6.309   6.105  14.124 -0.5114  0.2625  0.2372
 5781TIP3    H138758   6.262   6.052  14.060 -0.7470  0.1042  0.5384
 5781TIP3    H238759   6.242   6.132  14.187 -0.7729  2.5437 -0.9726
 5782TIP3   OH238760   6.208   3.374   5.537  0.1544  0.3054 -0.4325
 5782TIP3    H138761   6.206   3.411   5.449 -0.4425  0.1643 -0.4794
 5782TIP3    H238762   6.302   3.369   5.559  0.3827 -1.0596 -1.6407
 5783TIP3   OH238763   4.857   6.308   2.416 -0.7187  0.6053  0.0629
 5783TIP3    H138764   4.859   6.356   2.333 -0.5805 -0.2322 -0.4219
 5783TIP3    H238765   4.857   6.377   2.483 -0.1291  1.2780 -0.6178
 5784TIP3   OH238766   2.040   5.924  15.616  0.0606  0.4644 -0.3091
 5784TIP3    H138767   2.044   6.017  15.637  0.9850 -0.1480  2.4087
 5784TIP3    H238768   1.947   5.904  15.611 -0.1448  1.2904  0.1853
 5785TIP3   OH238769   2.254   4.353   0.249  0.5591  0.3307  0.4096
 5785TIP3    H138770   2.293   4.272   0.283  2.3639  0.7331 -0.6093
 5785TIP3    H238771   2.182   4.372   0.309  0.8781 -1.3723  1.3784
 5786TIP3   OH238772   2.144   0.418   3.075  0.2112  0.5387  0.4658
 5786TIP3    H138773   2.138   0.341   3.019  0.6556 -0.3193  1.5752
 5786TIP3    H238774   2.062   0.465   3.060  0.4608  0.4736 -1.1154
 5787TIP3   OH238775   0.372   0.697  11.363  0.6290  0.3327  0.4314
 5787TIP3    H138776   0.314   0.623  11.382  1.0721 -0.0056  0.4619
 5787TIP3    H238777   0.398   0.683  11.272  2.3800 -0.6828  1.0822
 5788TIP3   OH238778   1.160   0.935   2.264  0.0457 -0.5257  0.0735
 5788TIP3    H138779   1.176   0.898   2.351  0.6651 -2.1111 -0.6804
 5788TIP3    H238780   1.128   0.860   2.213  0.0933  0.2936 -1.1607
 5789TIP3   OH238781   5.195   3.148  16.279 -0.6292  0.2403 -0.4606
 5789TIP3    H138782   5.201   3.061  16.320  1.1069  0.4899 -0.1615
 5789TIP3    H238783   5.262   3.147  16.211  0.1764  1.7514  0.3019
 5790TIP3   OH238784   6.189   4.839   6.689  0.2421 -0.5285  0.2376
 5790TIP3    H138785   6.185   4.931   6.664  1.2990 -0.7975 -0.9793
 5790TIP3    H238786   6.115   4.799   6.644 -0.3490 -0.2410  0.9440
 5791TIP3   OH238787   6.200   4.816   3.550  0.0645 -0.2907  0.0742
 5791TIP3    H138788   6.224   4.900   3.589 -0.6884 -0.0174 -0.0583
 5791TIP3    H238789   6.279   4.763   3.559  1.0227  0.8954 -1.1157
 5792TIP3   OH238790   6.746   4.819  16.056 -0.6659  0.0682 -0.5886
 5792TIP3    H138791   6.685   4.866  16.000  0.7635  2.7612  0.0183
 5792TIP3    H238792   6.705   4.818  16.143 -0.4520  0.6799 -0.4816
 5793TIP3   OH238793   4.732   4.606  11.513 -0.1115  0.1413  0.0989
 5793TIP3    H138794   4.720   4.532  11.572  0.9218  0.3128  0.5364
 5793TIP3    H238795   4.818   4.641  11.535 -0.0037  0.6339 -1.0315
 5794TIP3   OH238796   3.847   4.847   5.402  0.0642 -0.0037 -0.4393
 5794TIP3    H138797   3.794   4.889   5.470 -1.5584 -3.4179  0.5277
 5794TIP3    H238798   3.920   4.806   5.450 -0.2705 -1.1739 -0.9137
 5795TIP3   OH238799   3.951   4.295   5.860 -0.1118  0.0921  0.3302
 5795TIP3    H138800   3.912   4.339   5.784 -0.3619 -1.1382 -0.2660
 5795TIP3    H238801   4.029   4.347   5.880  0.5127 -0.1480 -1.3955
 5796TIP3   OH238802   4.994   3.509  11.888 -0.0751 -0.1269  0.5526
 5796TIP3    H138803   5.085   3.531  11.911 -0.6176 -0.0681  2.8217
 5796TIP3    H238804   4.995   3.496  11.793  2.3375 -0.2535  0.5652
 5797TIP3   OH238805   1.051   2.722   5.089  0.6226  0.3538 -0.1317
 5797TIP3    H138806   1.131   2.727   5.141  2.2104 -2.6394 -2.1311
 5797TIP3    H238807   1.065   2.782   5.017  0.5647  0.7171  0.1601
 5798TIP3   OH238808   1.122   0.677  11.961 -0.0578 -0.1631 -0.1666
 5798TIP3    H138809   1.131   0.670  12.056  4.3288  2.7224 -0.2531
 5798TIP3    H238810   1.117   0.586  11.931 -0.1008 -1.1605  2.6892
 5799TIP3   OH238811   3.282   4.349  15.963 -0.0585 -0.2947 -0.2445
 5799TIP3    H138812   3.368   4.347  16.005  0.7294 -0.3178 -1.8211
 5799TIP3    H238813   3.267   4.259  15.935  0.0398 -0.0035 -1.2309
 5800TIP3   OH238814   0.577   5.155  11.561  0.2802  0.2673  0.0847
 5800TIP3    H138815   0.607   5.073  11.600  0.6678 -0.4932 -1.7828
 5800TIP3    H238816   0.655   5.210  11.556  0.2276  0.3700  0.3756
 5801TIP3   OH238817   4.439   5.996   4.608 -0.1412 -0.2501  0.1272
 5801TIP3    H138818   4.361   6.021   4.656  0.4903  0.4959  0.7762
 5801TIP3    H238819   4.448   5.902   4.624 -0.2167 -0.1014  1.0651
 5802TIP3   OH238820   1.071   3.749   1.917  0.0380 -0.0652 -0.9400
 5802TIP3    H138821   1.025   3.665   1.925  0.4615 -0.2679 -0.6146
 5802TIP3    H238822   1.001   3.814   1.915 -0.2213 -0.2183  1.5662
 5803TIP3   OH238823   2.648   5.829  10.719 -0.6624 -0.1959  0.1588
 5803TIP3    H138824   2.633   5.759  10.783  1.3187 -0.6362  0.1602
 5803TIP3    H238825   2.734   5.864  10.741 -1.0675  1.3775 -0.6783
 5804TIP3   OH238826   2.307   6.099  11.193  0.1700 -0.5057  0.0994
 5804TIP3    H138827   2.298   6.195  11.189  0.8750 -0.4222  0.4575
 5804TIP3    H238828   2.263   6.067  11.115 -1.8918 -0.0084  1.0199
 5805TIP3   OH238829   3.397   5.422   0.453  0.7203 -0.0681 -0.2811
 5805TIP3    H138830   3.390   5.337   0.410  0.2877  0.3553 -1.0743
 5805TIP3    H238831   3.320   5.471   0.422  1.0441  0.6633  0.0453
 5806TIP3   OH238832   6.489   3.517   6.775  0.3474 -0.0873  0.3708
 5806TIP3    H138833   6.463   3.609   6.774 -1.1842 -0.5138  0.5870
 5806TIP3    H238834   6.583   3.520   6.793  0.1545  1.4010  1.2529
 5807TIP3   OH238835   1.684   2.466  15.210 -0.5075 -0.6518  0.1240
 5807TIP3    H138836   1.608   2.446  15.265 -1.6863  2.2580 -0.3893
 5807TIP3    H238837   1.651   2.525  15.142  2.4563  1.7049  0.6223
 5808TIP3   OH238838   3.600   4.984   4.197  0.5161  0.2107 -0.2654
 5808TIP3    H138839   3.624   5.020   4.111 -1.7850  1.8691 -0.2776
 5808TIP3    H238840   3.682   4.953   4.234  1.9502  1.7739 -2.0248
 5809TIP3   OH238841   2.318   1.454   5.718 -0.1840  0.1656  0.3806
 5809TIP3    H138842   2.271   1.474   5.799  0.7331  1.5943  0.5851
 5809TIP3    H238843   2.409   1.442   5.745  0.1328  0.6886 -0.4351
 5810TIP3   OH238844   2.451   0.929   3.883  0.6956 -0.0561 -0.2055
 5810TIP3    H138845   2.499   0.999   3.838  0.1705 -0.9540 -2.2294
 5810TIP3    H238846   2.365   0.929   3.841  0.5324 -1.6070  0.1200
 5811TIP3   OH238847   0.484   2.591  16.119 -0.0299  0.1957  0.5320
 5811TIP3    H138848   0.531   2.670  16.094  0.2330  0.4728  1.8440
 5811TIP3    H238849   0.401   2.622  16.155 -0.9792 -0.2617 -1.2259
 5812TIP3   OH238850   6.452   4.945  14.416  0.4978  0.4974  0.0379
 5812TIP3    H138851   6.436   5.011  14.483  1.2908  0.5671  0.1671
 5812TIP3    H238852   6.416   4.864  14.453 -1.6683  1.0966 -0.6700
 5813TIP3   OH238853   5.336   5.987  11.251  0.4605 -0.0241 -0.0434
 5813TIP3    H138854   5.337   6.056  11.317 -0.4212  0.1133 -0.1723
 5813TIP3    H238855   5.244   5.958  11.248  0.6717 -0.6472 -0.5606
 5814TIP3   OH238856   3.624   6.588   4.303  0.2691  0.0634 -0.1798
 5814TIP3    H138857   3.579   6.667   4.333 -1.2408 -1.5694  2.0155
 5814TIP3    H238858   3.704   6.620   4.261 -1.4529  2.8471 -1.4010
 5815TIP3   OH238859   1.552   4.803  16.457 -0.5024 -0.3103 -0.1656
 5815TIP3    H138860   1.476   4.745  16.446 -0.2978 -1.1015  2.2957
 5815TIP3    H238861   1.627   4.747  16.439 -0.3782 -0.4535  0.7372
 5816TIP3   OH238862   3.980   0.761   1.255  0.2681 -0.2521 -0.1799
 5816TIP3    H138863   3.950   0.786   1.343  2.2670 -1.5102  0.9027
 5816TIP3    H238864   3.900   0.743   1.206 -0.7971 -2.7173  2.3530
 5817TIP3   OH238865   1.217   6.077   1.275  0.4033  0.5713  0.2504
 5817TIP3    H138866   1.204   6.125   1.193  1.2842  2.7697  1.3610
 5817TIP3    H238867   1.140   6.099   1.328  0.0386 -0.5110  0.1750
 5818TIP3   OH238868   5.141   4.770   3.221  0.8004  0.4696 -0.2751
 5818TIP3    H138869   5.131   4.703   3.288  0.4874  0.4413 -0.3511
 5818TIP3    H238870   5.052   4.791   3.193  0.9066  0.7706 -0.3969
 5819TIP3   OH238871   0.767   0.974   4.877 -0.0988  0.2612 -0.2571
 5819TIP3    H138872   0.731   0.892   4.911 -0.5195 -0.3471 -2.1385
 5819TIP3    H238873   0.727   0.984   4.791  0.1413  2.3251 -0.1493
 5820TIP3   OH238874   6.357   4.176   1.186 -0.2965  0.0574  0.6333
 5820TIP3    H138875   6.383   4.211   1.101  1.3070  0.7650  1.3892
 5820TIP3    H238876   6.278   4.225   1.209 -0.7121 -0.1057 -0.4104
 5821TIP3   OH238877   5.120   4.945  13.091  0.4843 -0.0617 -0.4772
 5821TIP3    H138878   5.055   5.015  13.089 -0.8842 -1.3380 -1.2731
 5821TIP3    H238879   5.176   4.962  13.016 -0.9927 -0.8706 -1.7944
 5822TIP3   OH238880   1.026   0.630  13.040 -0.0194 -0.5125  0.1298
 5822TIP3    H138881   0.985   0.680  12.970 -1.0108 -1.7127 -0.1730
 5822TIP3    H238882   1.050   0.695  13.106 -1.1597  0.3659 -0.3105
 5823TIP3   OH238883   6.218   0.745  16.793 -0.7202  0.0707  0.4606
 5823TIP3    H138884   6.186   0.762  16.881  3.8752 -2.7574  2.8999
 5823TIP3    H238885   6.276   0.820  16.774 -1.0453  0.2556  0.1993
 5824TIP3   OH238886   2.570   5.575  13.768 -0.4674 -0.0461  0.1867
 5824TIP3    H138887   2.609   5.582  13.681  0.4600  1.9510  0.7282
 5824TIP3    H238888   2.635   5.614  13.827 -1.1253 -1.2751  1.7576
 5825TIP3   OH238889   5.254   2.805   3.342 -0.1492  0.1539 -0.5183
 5825TIP3    H138890   5.162   2.779   3.339  0.1085 -1.1462  1.7169
 5825TIP3    H238891   5.259   2.864   3.417  0.9958 -0.3689 -0.1827
 5826TIP3   OH238892   3.166   5.129   1.582  0.2882  0.2022  0.5361
 5826TIP3    H138893   3.216   5.197   1.628  0.3634  0.4652  0.0675
 5826TIP3    H238894   3.191   5.047   1.625  1.6955  0.2474 -0.1981
 5827TIP3   OH238895   1.887   3.302   4.864  0.2975 -0.7952  0.1194
 5827TIP3    H138896   1.979   3.327   4.879 -0.0134 -0.5450  1.7221
 5827TIP3    H238897   1.887   3.207   4.867  0.4383 -0.7823  0.5103
 5828TIP3   OH238898   4.981   5.996   5.577 -0.3393 -0.4337  0.3057
 5828TIP3    H138899   5.018   6.025   5.661 -0.1361 -1.9798  0.7571
 5828TIP3    H238900   4.886   6.006   5.588 -0.1710  2.9891 -0.6499
 5829TIP3   OH238901   5.613   3.933  13.818  0.2166  0.1543 -0.4897
 5829TIP3    H138902   5.627   3.843  13.847  0.6646  0.6198  0.7670
 5829TIP3    H238903   5.580   3.924  13.729 -0.4925 -1.2784 -0.0964
 5830TIP3   OH238904   6.490   5.688   9.712  0.3049  0.2447 -0.1096
 5830TIP3    H138905   6.486   5.765   9.768 -0.4803 -0.0679  0.2783
 5830TIP3    H238906   6.492   5.614   9.773  2.2028 -0.0035 -0.4676
 5831TIP3   OH238907   3.581   1.516  14.294  0.2561  0.4954  0.3903
 5831TIP3    H138908   3.604   1.424  14.289  0.5335  0.6139 -0.6678
 5831TIP3    H238909   3.569   1.543  14.203  2.8265  2.1460  0.4801
 5832TIP3   OH238910   1.370   2.887  10.537  0.0343 -0.5810 -0.2542
 5832TIP3    H138911   1.371   2.923  10.625  1.2773  0.9018 -0.8457
 5832TIP3    H238912   1.290   2.922  10.497 -0.3411 -0.9596  0.1733
 5833TIP3   OH238913   4.353   4.251   5.004  0.0366  0.3240  0.0627
 5833TIP3    H138914   4.283   4.309   4.975  0.6087  0.0605 -1.9533
 5833TIP3    H238915   4.309   4.180   5.051 -1.0384  0.2413 -1.0559
 5834TIP3   OH238916   3.530   4.924  16.694 -0.5873  0.2305  0.2365
 5834TIP3    H138917   3.572   4.972  16.623 -0.2425 -0.4917 -0.0573
 5834TIP3    H238918   3.541   4.980  16.771 -1.3354  1.2135 -0.3589
 5835TIP3   OH238919   5.242   3.718   2.009 -0.5373 -0.3353 -0.0469
 5835TIP3    H138920   5.285   3.653   2.064 -1.1295 -0.4444  0.2892
 5835TIP3    H238921   5.300   3.728   1.933  0.8772  0.6777  1.1484
 5836TIP3   OH238922   3.050   5.560   6.475 -0.3565 -0.0226 -0.4407
 5836TIP3    H138923   3.048   5.609   6.557 -0.5990  0.0887 -0.5126
 5836TIP3    H238924   3.070   5.470   6.501  0.3426  0.1636 -0.3316
 5837TIP3   OH238925   1.572   1.507  15.006 -0.1218  0.2718 -0.5571
 5837TIP3    H138926   1.503   1.477  14.948 -1.1138  2.2132 -0.4184
 5837TIP3    H238927   1.548   1.473  15.092 -0.3084 -0.0146 -0.7242
 5838TIP3   OH238928   1.447   6.147  13.762  0.0272  0.0768  0.1220
 5838TIP3    H138929   1.400   6.069  13.732  1.6806 -0.9236  0.0560
 5838TIP3    H238930   1.457   6.201  13.684  0.3539 -0.4187 -0.1769
 5839TIP3   OH238931   6.622   6.480   0.822  0.5083  0.5051 -0.2411
 5839TIP3    H138932   6.715   6.502   0.819  0.2489  1.6893  0.1593
 5839TIP3    H238933   6.588   6.527   0.898 -0.3052 -0.3583 -0.0648
 5840TIP3   OH238934   5.143   1.184  14.634 -0.0812 -0.1041  0.4245
 5840TIP3    H138935   5.068   1.243  14.629  0.6193  0.6821 -0.9617
 5840TIP3    H238936   5.216   1.233  14.595  0.7912 -1.4250  0.3553
 5841TIP3   OH238937   3.857   4.218   1.989 -0.1686  0.0127 -0.1424
 5841TIP3    H138938   3.869   4.165   2.069  0.2152 -0.3850 -0.4620
 5841TIP3    H238939   3.820   4.300   2.021  0.7447  0.1657  0.5418
 5842TIP3   OH238940   3.359   4.943  17.151  1.1385  0.5621  0.4474
 5842TIP3    H138941   3.382   4.876  17.087  1.2675  0.1688  0.9039
 5842TIP3    H238942   3.390   4.908  17.235  0.7245  0.9476  0.7663
 5843TIP3   OH238943   2.764   5.111  11.993  0.0851  0.1412 -0.2479
 5843TIP3    H138944   2.762   5.204  12.016  1.3408  0.2360 -0.4807
 5843TIP3    H238945   2.805   5.108  11.906  2.2568 -0.7881  0.7544
 5844TIP3   OH238946   4.893   0.214   1.107  0.2926 -0.9590 -0.6108
 5844TIP3    H138947   4.892   0.166   1.189  2.1194 -0.4456 -0.2458
 5844TIP3    H238948   4.913   0.148   1.041 -0.2999 -1.2215 -0.5320
 5845TIP3   OH238949   2.202   2.526   3.002  0.1768  0.3151 -0.6048
 5845TIP3    H138950   2.206   2.451   3.062  0.0470  1.6015  1.0166
 5845TIP3    H238951   2.121   2.512   2.953 -0.5454  0.0955  0.6301
 5846TIP3   OH238952   5.249   4.184  16.379 -0.1066 -0.1254  0.0017
 5846TIP3    H138953   5.295   4.104  16.354  0.0736 -0.2765  0.8097
 5846TIP3    H238954   5.160   4.171  16.347 -0.1355 -0.7449  0.3366
 5847TIP3   OH238955   0.803   2.823  12.454 -0.2199  0.3839  0.1514
 5847TIP3    H138956   0.872   2.819  12.387  0.7505 -0.3964  1.1831
 5847TIP3    H238957   0.825   2.754  12.516 -2.5865 -0.6304 -0.0899
 5848TIP3   OH238958   4.243   6.026  12.693  0.3448  0.2198 -0.0100
 5848TIP3    H138959   4.215   6.013  12.603 -1.5392 -0.9072  0.6870
 5848TIP3    H238960   4.163   6.055  12.738  1.4694  1.6364  1.1079
 5849TIP3   OH238961   4.473   0.825  15.347 -0.3358 -0.3360 -0.4719
 5849TIP3    H138962   4.411   0.782  15.407  0.2912  2.8185  2.6201
 5849TIP3    H238963   4.540   0.863  15.405  1.6311  0.7638 -3.3797
 5850TIP3   OH238964   2.355   1.676  13.790  0.1991 -0.3413  0.1570
 5850TIP3    H138965   2.327   1.585  13.779 -0.1465 -0.2096 -0.0648
 5850TIP3    H238966   2.280   1.728  13.760  0.8491  0.0093 -0.8941
 5851TIP3   OH238967   0.987   1.453  15.847  0.1435 -0.2692  0.0154
 5851TIP3    H138968   0.994   1.403  15.928 -2.6241  0.5695  0.8194
 5851TIP3    H238969   1.062   1.424  15.795  1.1624 -1.8713  2.2740
 5852TIP3   OH238970   3.054   2.678  12.568  0.1542  0.0802  0.0425
 5852TIP3    H138971   3.004   2.760  12.559  1.5604  1.1760  1.8461
 5852TIP3    H238972   3.013   2.632  12.641  2.5457  1.6476  2.4907
 5853TIP3   OH238973   1.932   3.438   4.111 -0.1110 -0.2864 -0.1971
 5853TIP3    H138974   1.953   3.509   4.049 -0.6222  0.5829  0.6137
 5853TIP3    H238975   2.002   3.374   4.098  0.3566  0.3604 -0.9549
 5854TIP3   OH238976   4.462   2.028  15.299  0.7153 -0.5639  0.8373
 5854TIP3    H138977   4.425   2.116  15.293  1.4269 -0.3062  0.1819
 5854TIP3    H238978   4.428   1.983  15.221  0.6297 -0.7646  0.9893
 5855TIP3   OH238979   0.544   6.164  17.126 -0.1689  0.3229 -0.5985
 5855TIP3    H138980   0.551   6.193  17.035 -0.4472  0.0947 -0.6923
 5855TIP3    H238981   0.633   6.171  17.160  0.2519 -1.1819 -1.3661
 5856TIP3   OH238982   3.072   6.786   5.459  0.2678 -0.1391 -0.0272
 5856TIP3    H138983   3.046   6.784   5.367  1.0738 -2.5140 -0.2203
 5856TIP3    H238984   2.991   6.799   5.507 -0.0617  2.0840 -1.0761
 5857TIP3   OH238985   1.808   3.594   2.288 -0.3736 -0.3804 -0.3325
 5857TIP3    H138986   1.766   3.671   2.252  0.7922 -0.9600 -3.0358
 5857TIP3    H238987   1.872   3.628   2.351 -1.7549  0.6761  0.5441
 5858TIP3   OH238988   0.932   3.799   3.029 -0.2529 -0.0018  0.0327
 5858TIP3    H138989   0.949   3.767   2.940  1.4826 -2.0858  1.0712
 5858TIP3    H238990   0.938   3.895   3.022  3.0905 -0.2612 -1.4904
 5859TIP3   OH238991   3.194   6.642   0.519  0.9475  0.2621 -0.1493
 5859TIP3    H138992   3.244   6.713   0.477 -1.4541  1.0849 -1.7065
 5859TIP3    H238993   3.103   6.659   0.494  0.1296 -2.3851  0.9208
 5860TIP3   OH238994   3.790   5.483   1.509 -0.2837 -0.4790  0.3364
 5860TIP3    H138995   3.836   5.400   1.499  3.4132  1.6529 -1.7698
 5860TIP3    H238996   3.751   5.500   1.423  0.9555  1.0206  0.0463
 5861TIP3   OH238997   3.153   2.813  13.235  0.3732  0.6612  0.1600
 5861TIP3    H138998   3.202   2.780  13.310 -0.3617 -1.6995 -0.3683
 5861TIP3    H238999   3.064   2.826  13.268 -0.1937 -1.3400 -0.5315
 5862TIP3   OH239000   1.991   0.888  14.052  0.4597 -0.2160 -0.3482
 5862TIP3    H139001   1.999   0.945  13.975  1.6224  0.1528  0.0359
 5862TIP3    H239002   2.081   0.864  14.074  0.0158 -1.7887 -0.1801
 5863TIP3   OH239003   3.201   4.705  16.979 -0.3637 -0.0019  0.2357
 5863TIP3    H139004   3.289   4.717  16.941 -0.5994  0.3826 -0.1950
 5863TIP3    H239005   3.217   4.663  17.063  0.1096 -1.9438 -0.7707
 5864TIP3   OH239006   1.200   4.096  13.174  0.1915 -0.0782  0.2813
 5864TIP3    H139007   1.180   4.037  13.246  1.1781 -1.5894 -0.6434
 5864TIP3    H239008   1.170   4.182  13.204 -0.6486 -0.9211  1.9230
 5865TIP3   OH239009   2.269   2.950  13.851  0.1251 -0.3782  0.4567
 5865TIP3    H139010   2.333   2.997  13.797 -2.3984  0.5490 -1.8478
 5865TIP3    H239011   2.282   2.986  13.939  0.8166  1.8893 -0.5303
 5866TIP3   OH239012   3.286   1.721   5.203 -0.0046 -0.0296  0.1622
 5866TIP3    H139013   3.268   1.657   5.272  1.3201  1.9661  2.4298
 5866TIP3    H239014   3.381   1.729   5.202 -0.0957  0.9902 -0.9794
 5867TIP3   OH239015   3.360   3.362   4.799  0.2756 -0.3356 -0.5924
 5867TIP3    H139016   3.371   3.457   4.802 -0.9714 -0.1854 -0.3496
 5867TIP3    H239017   3.383   3.332   4.887  1.6907 -0.3883 -0.9685
 5868TIP3   OH239018   2.953   3.786   5.374 -0.0427  0.3536  0.4493
 5868TIP3    H139019   2.992   3.797   5.287 -0.7120  1.9352  0.3385
 5868TIP3    H239020   3.020   3.739   5.424  1.3271  1.5438 -0.2294
 5869TIP3   OH239021   5.120   0.398  13.806 -0.4309 -0.3976  0.2415
 5869TIP3    H139022   5.147   0.308  13.825 -0.5621 -0.0427  2.3155
 5869TIP3    H239023   5.024   0.393  13.804 -0.4135 -0.4402 -0.3424
 5870TIP3   OH239024   1.062   0.762  17.026  0.8993  0.6497 -0.3049
 5870TIP3    H139025   1.013   0.792  16.950  1.3834  2.0122 -0.1021
 5870TIP3    H239026   1.128   0.702  16.990  0.0914  0.0143 -0.7485
 5871TIP3   OH239027   5.780   0.663   1.760  0.2852 -0.2235 -0.0510
 5871TIP3    H139028   5.710   0.703   1.709  0.2132  1.2669  1.1898
 5871TIP3    H239029   5.841   0.629   1.694 -1.9419 -2.2478 -1.1395
 5872TIP3   OH239030   3.127   0.217  17.068  0.6030  0.4048  0.0252
 5872TIP3    H139031   3.078   0.187  17.145  2.4735 -0.1953  1.0075
 5872TIP3    H239032   3.120   0.145  17.006 -1.1869  1.0207 -0.5304
 5873TIP3   OH239033   2.514   0.620   5.511 -0.0881 -1.1381 -0.2424
 5873TIP3    H139034   2.520   0.669   5.429 -0.5864  0.4283  0.6522
 5873TIP3    H239035   2.604   0.593   5.529  0.4771  1.0260  0.2211
 5874TIP3   OH239036   4.704   3.655   1.728  0.4335 -0.2191 -0.4534
 5874TIP3    H139037   4.698   3.597   1.653 -0.4151  0.2300 -0.7342
 5874TIP3    H239038   4.659   3.735   1.701  0.7799  0.2292  0.2603
 5875TIP3   OH239039   1.684   5.693   3.976 -0.6759 -0.5766  0.0030
 5875TIP3    H139040   1.652   5.775   3.937 -1.0924 -0.8058 -0.1472
 5875TIP3    H239041   1.682   5.709   4.070  0.4715  0.0316 -0.0724
 5876TIP3   OH239042   5.447   3.135  12.265 -0.0500  0.4421 -0.3448
 5876TIP3    H139043   5.530   3.091  12.254  0.0046 -0.0820  1.8471
 5876TIP3    H239044   5.388   3.092  12.203  0.5006 -1.3777  0.3697
 5877TIP3   OH239045   6.511   5.936  10.159  0.2142  0.2926  0.0991
 5877TIP3    H139046   6.605   5.941  10.174  0.1968 -0.0579  0.3453
 5877TIP3    H239047   6.482   5.864  10.216  0.1721 -1.1987 -1.7596
 5878TIP3   OH239048   5.422   0.347  15.590 -0.4626 -0.3139 -0.3668
 5878TIP3    H139049   5.337   0.386  15.566 -0.0809  0.4974 -0.4141
 5878TIP3    H239050   5.451   0.304  15.510 -0.3502  0.2848 -0.6512
 5879TIP3   OH239051   5.158   3.647   6.355  0.3867 -0.7480  0.2604
 5879TIP3    H139052   5.170   3.676   6.264  2.9811 -0.1467  0.7673
 5879TIP3    H239053   5.159   3.728   6.406  0.2460 -1.1938  0.9778
 5880TIP3   OH239054   1.683   6.675   5.018 -0.2262 -0.0239 -0.7047
 5880TIP3    H139055   1.729   6.680   4.934  0.4226 -1.0805 -0.4127
 5880TIP3    H239056   1.711   6.754   5.065  1.1485 -0.5461 -0.6115
 5881TIP3   OH239057   4.656   0.831   6.149 -0.2609 -0.2927 -0.2228
 5881TIP3    H139058   4.583   0.807   6.206 -0.1503  2.3836  1.1124
 5881TIP3    H239059   4.729   0.779   6.182 -0.6655 -0.2242  0.8270
 5882TIP3   OH239060   1.505   6.149   3.522 -0.1647 -0.2802  0.5070
 5882TIP3    H139061   1.597   6.121   3.518 -0.1537 -0.5073  2.1953
 5882TIP3    H239062   1.495   6.186   3.609 -1.4798  0.4808  0.0372
 5883TIP3   OH239063   1.878   3.624  12.799 -0.0097  0.5336  0.2355
 5883TIP3    H139064   1.959   3.666  12.769  0.8108 -0.6754  0.7546
 5883TIP3    H239065   1.852   3.675  12.876  1.1489 -0.0823  1.0476
 5884TIP3   OH239066   6.255   3.906   2.592 -0.1801 -0.8560 -0.3840
 5884TIP3    H139067   6.298   3.851   2.527  1.5311  1.4791 -1.3041
 5884TIP3    H239068   6.325   3.960   2.628 -1.5816 -0.2062  1.4435
 5885TIP3   OH239069   0.650   2.312  11.569  0.6589 -0.3876 -0.3957
 5885TIP3    H139070   0.706   2.234  11.560  1.1812  0.1055 -1.6012
 5885TIP3    H239071   0.572   2.280  11.614  1.3850 -1.3609  0.1989
 5886TIP3   OH239072   5.061   3.850  17.046  0.0763  0.7399 -0.2644
 5886TIP3    H139073   5.059   3.804  16.962  2.0277  0.0334  0.0409
 5886TIP3    H239074   5.010   3.930  17.031  0.3033  0.5606 -2.0807
 5887TIP3   OH239075   5.278   3.663   2.436 -0.1605  0.1497 -0.1307
 5887TIP3    H139076   5.306   3.748   2.403  0.7668 -0.5202 -1.0752
 5887TIP3    H239077   5.184   3.661   2.418 -0.2976  1.1923  0.4022
 5888TIP3   OH239078   4.596   5.070  15.938  0.0459 -0.5279 -0.0584
 5888TIP3    H139079   4.502   5.055  15.952 -0.9140  2.3070 -2.7736
 5888TIP3    H239080   4.617   5.142  15.998  0.5857 -1.3195  0.7201
 5889TIP3   OH239081   3.943   4.205   4.075 -0.2350  0.1731 -0.1838
 5889TIP3    H139082   3.909   4.177   4.159 -0.3240 -2.0435 -0.9243
 5889TIP3    H239083   4.038   4.190   4.081 -0.3707 -1.0231 -0.8368
 5890TIP3   OH239084   6.321   0.365   3.249  0.1192 -0.1416  0.4301
 5890TIP3    H139085   6.301   0.459   3.256  1.0250  0.1103 -0.2568
 5890TIP3    H239086   6.354   0.341   3.336  0.4631  0.3239  0.4318
 5891TIP3   OH239087   0.162   2.421   4.780  0.4175 -0.5011  0.0791
 5891TIP3    H139088   0.103   2.496   4.785  1.6213  0.6791 -2.3667
 5891TIP3    H239089   0.191   2.407   4.870 -0.3458  1.5679  0.6662
 5892TIP3   OH239090   5.037   3.851  13.243 -0.4564  0.0111 -0.6388
 5892TIP3    H139091   5.108   3.854  13.178 -0.7163  0.0214 -0.9214
 5892TIP3    H239092   5.050   3.769  13.290 -1.1143 -0.6855 -1.6551
 5893TIP3   OH239093   3.861   2.261   0.610 -0.6923 -0.3701 -0.2193
 5893TIP3    H139094   3.846   2.174   0.646  1.0038 -1.0132 -1.0226
 5893TIP3    H239095   3.895   2.246   0.522 -0.1286  1.0878 -0.2742
 5894TIP3   OH239096   1.401   5.697  16.337 -0.1682  0.3590  0.0909
 5894TIP3    H139097   1.380   5.623  16.280  0.1791 -0.3082  0.8264
 5894TIP3    H239098   1.435   5.764  16.277 -2.2455  0.6384 -0.8239
 5895TIP3   OH239099   6.300   3.240   2.819  0.2476 -0.1027 -0.7281
 5895TIP3    H139100   6.331   3.165   2.769 -1.1752  1.1757 -3.6424
 5895TIP3    H239101   6.380   3.282   2.851  1.2775 -0.4062 -2.7963
 5896TIP3   OH239102   2.715   2.685  13.097  0.2036  0.0797  0.2691
 5896TIP3    H139103   2.666   2.703  13.177 -1.0401  1.2163 -0.7159
 5896TIP3    H239104   2.783   2.622  13.123 -2.3105 -2.2161  1.4767
 5897TIP3   OH239105   1.978   3.538   3.468 -0.2490 -0.1378  0.2839
 5897TIP3    H139106   1.960   3.531   3.562 -1.6717  0.4917  0.0658
 5897TIP3    H239107   2.013   3.626   3.457  1.7082 -0.8652  0.4912
 5898TIP3   OH239108   3.057   3.326   1.308 -0.0183  0.6568 -0.0810
 5898TIP3    H139109   2.980   3.353   1.358  0.3483  0.3757  0.6423
 5898TIP3    H239110   3.131   3.342   1.366  0.4988  1.1228 -0.8500
 5899TIP3   OH239111   0.566   0.994   4.651 -0.5648  0.2868  0.6090
 5899TIP3    H139112   0.551   0.975   4.558  1.8249 -1.1877  0.5085
 5899TIP3    H239113   0.592   1.086   4.652 -0.2793  0.2230 -0.2140
 5900TIP3   OH239114   3.757   5.013  11.827 -0.2545  0.1759 -0.3308
 5900TIP3    H139115   3.826   4.949  11.814 -0.6076  0.0369 -1.6996
 5900TIP3    H239116   3.802   5.098  11.824  0.3079 -0.0171  2.1951
 5901TIP3   OH239117   4.283   6.308   1.118 -0.0792 -0.1317 -0.1000
 5901TIP3    H139118   4.298   6.267   1.204  1.2200  1.7818  0.6250
 5901TIP3    H239119   4.372   6.323   1.084 -0.4655  3.3423  0.2882
 5902TIP3   OH239120   5.660   2.991  15.699 -0.1565  0.0810  0.9498
 5902TIP3    H139121   5.718   2.917  15.685 -0.5824 -0.1972  0.6527
 5902TIP3    H239122   5.574   2.952  15.714 -0.8718  0.5881 -1.6717
 5903TIP3   OH239123   2.519   4.265   5.734  0.5427  0.0759  0.1110
 5903TIP3    H139124   2.484   4.235   5.818 -2.5691 -2.4821 -1.9634
 5903TIP3    H239125   2.462   4.338   5.709  0.4832 -0.1685 -0.4791
 5904TIP3   OH239126   1.372   6.747   5.335 -0.3230 -0.1020  0.1514
 5904TIP3    H139127   1.348   6.823   5.388  2.0655  0.5263  0.3851
 5904TIP3    H239128   1.449   6.710   5.379  0.6721 -0.5762 -1.9229
 5905TIP3   OH239129   0.329   2.153  16.429  0.8975  0.1038  0.2039
 5905TIP3    H139130   0.307   2.182  16.340  0.0954  0.0076  0.3734
 5905TIP3    H239131   0.347   2.234  16.476  1.7979  0.1291 -0.1667
 5906TIP3   OH239132   5.521   5.089  14.828 -0.3108 -0.0792  0.2416
 5906TIP3    H139133   5.489   5.029  14.760 -3.6959  1.6389  0.2426
 5906TIP3    H239134   5.452   5.088  14.894  1.6625  0.4444  2.3535
 5907TIP3   OH239135   3.955   2.581  12.726  0.3207 -0.3603 -0.5196
 5907TIP3    H139136   3.954   2.504  12.783 -1.4048  1.4291  1.9827
 5907TIP3    H239137   3.883   2.635  12.758  2.3414  2.9450 -1.3073
 5908TIP3   OH239138   2.956   3.921  16.010 -0.5602  0.3712  0.3806
 5908TIP3    H139139   3.025   3.953  16.067  0.5130 -0.9990 -0.1191
 5908TIP3    H239140   2.875   3.955  16.048  0.4628  3.0307  0.2787
 5909TIP3   OH239141   5.051   1.327  12.608  0.1225 -0.2098  0.2675
 5909TIP3    H139142   5.022   1.385  12.538 -0.4136 -1.5270 -0.6461
 5909TIP3    H239143   5.099   1.258  12.562 -0.2834 -1.1120  1.1868
 5910TIP3   OH239144   6.433   0.073  13.371 -0.0333  0.0249 -1.2258
 5910TIP3    H139145   6.363   0.027  13.326  0.3769 -1.7815 -0.0587
 5910TIP3    H239146   6.500   0.087  13.304 -0.6087 -0.1191 -1.8343
 5911TIP3   OH239147   4.414   2.882  13.663  0.0012  0.1036  0.5482
 5911TIP3    H139148   4.367   2.801  13.681 -0.5918  0.8300  2.3211
 5911TIP3    H239149   4.350   2.938  13.620  0.1925 -0.0505  0.0450
 5912TIP3   OH239150   3.958   6.234  15.746 -0.1837 -0.1499  0.1762
 5912TIP3    H139151   3.935   6.142  15.730  2.6307 -0.8929  0.0827
 5912TIP3    H239152   3.895   6.284  15.693 -0.8520 -2.0632 -0.9102
 5913TIP3   OH239153   4.320   2.154   5.973 -0.2505 -0.6478 -0.2147
 5913TIP3    H139154   4.402   2.198   5.949 -1.4582  1.4113 -0.6960
 5913TIP3    H239155   4.325   2.145   6.068  0.6003 -0.6661 -0.2570
 5914TIP3   OH239156   4.298   0.739   1.120  0.0134 -0.3655 -0.1169
 5914TIP3    H139157   4.383   0.696   1.113 -1.2719 -2.9467 -0.2405
 5914TIP3    H239158   4.239   0.671   1.151 -2.2194  1.1605 -0.9058
 5915TIP3   OH239159   1.184   1.316   0.079  0.6214 -0.0502  0.4638
 5915TIP3    H139160   1.245   1.246   0.101  0.3377 -1.4231 -2.8117
 5915TIP3    H239161   1.101   1.271   0.062 -0.4310  1.4436  1.5369
 5916TIP3   OH239162   2.291   6.612  14.853  0.0731 -0.4355 -0.6258
 5916TIP3    H139163   2.233   6.610  14.776  0.0263  1.4295 -0.6624
 5916TIP3    H239164   2.374   6.645  14.819  0.1920 -0.0313  0.0541
 5917TIP3   OH239165   4.537   1.053  13.464  0.6423  1.0124  0.3571
 5917TIP3    H139166   4.554   1.054  13.558  0.4182  3.1413  0.4010
 5917TIP3    H239167   4.614   1.012  13.426  0.3089 -0.7523  1.5365
 5918TIP3   OH239168   0.966   6.013  16.551 -0.2180 -0.5201 -0.1403
 5918TIP3    H139169   1.052   6.041  16.584  0.4855 -2.4903 -0.2549
 5918TIP3    H239170   0.986   5.948  16.483 -1.7793 -0.0344 -1.0934
 5919TIP3   OH239171   0.860   1.640   2.284  0.0607  0.2276 -0.6170
 5919TIP3    H139172   0.778   1.623   2.331 -0.9367 -0.8605 -2.6741
 5919TIP3    H239173   0.869   1.566   2.224  1.5877  1.2744 -1.7149
 5920TIP3   OH239174   1.106   3.649  12.573  0.2366  0.4359  0.0222
 5920TIP3    H139175   1.172   3.600  12.622  0.3591  0.0115 -0.5613
 5920TIP3    H239176   1.031   3.591  12.568  0.4826  0.1775 -0.9175
 5921TIP3   OH239177   3.692   5.169  13.537  0.5544 -0.7664  0.4570
 5921TIP3    H139178   3.748   5.101  13.499  1.1593 -0.0919  0.1312
 5921TIP3    H239179   3.753   5.229  13.580 -0.1055 -1.4570  2.4080
 5922TIP3   OH239180   1.116   2.508  14.519 -0.2826  0.0852  0.5183
 5922TIP3    H139181   1.031   2.470  14.500 -0.5248  1.9320 -2.4922
 5922TIP3    H239182   1.103   2.603  14.509  2.4158  0.3158 -1.3841
 5923TIP3   OH239183   1.205   0.448  14.205 -0.4152 -0.4612 -0.1570
 5923TIP3    H139184   1.294   0.419  14.188 -0.2724 -0.7868  1.1035
 5923TIP3    H239185   1.156   0.423  14.127  0.1749 -2.0515 -0.0255
 5924TIP3   OH239186   4.606   5.267   3.745 -0.2173 -0.0260  0.0329
 5924TIP3    H139187   4.687   5.246   3.698  0.0265  1.4787 -0.2662
 5924TIP3    H239188   4.628   5.253   3.837 -0.0017 -0.8197 -0.1337
 5925TIP3   OH239189   4.500   5.087  14.769  0.3535  0.0219  0.4911
 5925TIP3    H139190   4.542   5.163  14.809  0.3027  1.9872 -3.0635
 5925TIP3    H239191   4.573   5.034  14.737  0.3104 -0.4021  1.0731
 5926TIP3   OH239192   1.671   3.135   3.358  0.2820 -0.3594 -0.1370
 5926TIP3    H139193   1.634   3.218   3.388 -1.0560 -0.9139 -0.2131
 5926TIP3    H239194   1.639   3.071   3.422  1.3747 -0.8029 -0.0356
 5927TIP3   OH239195   6.142   5.545  11.291  0.2997  0.3321  0.1001
 5927TIP3    H139196   6.060   5.497  11.304  0.2425  0.3571 -0.1514
 5927TIP3    H239197   6.210   5.478  11.292  0.2780  0.3141  0.3333
 5928TIP3   OH239198   6.775   6.590   4.416  0.6446  0.5281  0.3175
 5928TIP3    H139199   6.738   6.620   4.499  1.6661  0.7742  0.7021
 5928TIP3    H239200   6.865   6.564   4.438  0.8270  0.3070 -0.6500
 5929TIP3   OH239201   2.986   5.451  14.149 -0.0860 -0.2212  0.1710
 5929TIP3    H139202   2.985   5.480  14.058 -0.6207 -0.8452 -0.0291
 5929TIP3    H239203   3.072   5.477  14.183 -0.0877  0.4758 -0.3583
 5930TIP3   OH239204   6.745   2.713  12.701  0.0678  0.4749  0.4587
 5930TIP3    H139205   6.769   2.797  12.740  1.2228 -0.1679  1.1617
 5930TIP3    H239206   6.790   2.648  12.755  1.1971 -0.4750 -1.5998
 5931TIP3   OH239207   3.160   6.381   5.070  0.1596 -0.0406 -0.0937
 5931TIP3    H139208   3.113   6.424   5.142 -1.0760 -2.2512  0.4386
 5931TIP3    H239209   3.095   6.377   4.999  0.4323 -0.5834 -0.3076
 5932TIP3   OH239210   2.343   1.399   3.351  0.2755  0.3276  0.0495
 5932TIP3    H139211   2.333   1.316   3.303  0.0345 -0.0733  0.7816
 5932TIP3    H239212   2.414   1.383   3.413  0.7965  0.9457 -0.3880
 5933TIP3   OH239213   4.933   1.127   5.076 -0.0766  0.0773 -0.6038
 5933TIP3    H139214   4.851   1.119   5.124 -0.3841  0.0472 -1.1269
 5933TIP3    H239215   4.984   1.051   5.102 -0.2445  0.0590 -0.3308
 5934TIP3   OH239216   2.704   2.910  15.028  0.0762 -0.6483 -0.2860
 5934TIP3    H139217   2.696   2.831  15.081  0.9003  0.1948  1.1159
 5934TIP3    H239218   2.615   2.924  14.994 -0.4416 -1.2793  0.7608
 5935TIP3   OH239219   1.118   1.459  11.469  0.0092 -0.1844 -0.0307
 5935TIP3    H139220   1.037   1.418  11.498 -0.2692  0.2482 -0.1979
 5935TIP3    H239221   1.184   1.427  11.531 -0.8380  1.8373  1.9783
 5936TIP3   OH239222   6.434   1.256   1.142  0.1168  0.1363 -0.0074
 5936TIP3    H139223   6.500   1.195   1.106  0.1793 -0.7789  1.5976
 5936TIP3    H239224   6.429   1.232   1.234 -0.7986  1.7580  0.3622
 5937TIP3   OH239225   0.033   4.528   1.056  0.0917 -0.2504  1.2013
 5937TIP3    H139226   0.062   4.611   1.094  1.6845 -0.0092 -0.4854
 5937TIP3    H239227   0.105   4.467   1.074 -0.8553 -1.1604  1.9940
 5938TIP3   OH239228   5.523   4.557  11.367  0.5655 -0.5800  0.1342
 5938TIP3    H139229   5.434   4.577  11.395  0.2370 -1.8590 -0.0021
 5938TIP3    H239230   5.537   4.611  11.290  0.1135  0.0479  0.4901
 5939TIP3   OH239231   4.264   4.057   5.177 -0.7117 -0.1962 -0.8112
 5939TIP3    H139232   4.239   3.969   5.207 -0.0654 -0.1686 -0.1914
 5939TIP3    H239233   4.211   4.116   5.231  1.1898 -0.1152  1.0167
 5940TIP3   OH239234   1.232   5.123  10.879 -0.3422  0.1442 -0.6146
 5940TIP3    H139235   1.172   5.062  10.923 -0.3451 -0.9281 -2.0689
 5940TIP3    H239236   1.258   5.078  10.799  0.9132  1.4072 -0.9451
 5941TIP3   OH239237   4.664   5.628  14.246 -0.1732  0.9260 -0.8665
 5941TIP3    H139238   4.728   5.556  14.245  0.9585  1.7870  2.5818
 5941TIP3    H239239   4.587   5.590  14.287  0.3015  1.5546  0.6281
 5942TIP3   OH239240   1.037   0.791   4.603  0.4936  0.0636  0.1956
 5942TIP3    H139241   0.946   0.776   4.580  0.3650 -0.1883  0.8712
 5942TIP3    H239242   1.041   0.884   4.626  0.4949  0.1708 -0.2353
 5943TIP3   OH239243   0.247   1.000  13.062  0.2070  0.7833 -0.2706
 5943TIP3    H139244   0.161   0.992  13.021 -0.2034  0.1769  0.6692
 5943TIP3    H239245   0.306   0.951  13.005 -0.7157 -1.7761  0.8563
 5944TIP3   OH239246   4.770   4.042   0.605  0.1979  0.1076  0.3034
 5944TIP3    H139247   4.704   4.038   0.536  0.3379 -0.9010  0.2251
 5944TIP3    H239248   4.834   4.106   0.573  0.0208 -0.0101 -0.2822
 5945TIP3   OH239249   3.187   4.565   1.418 -0.6776 -0.1784  0.4227
 5945TIP3    H139250   3.207   4.621   1.343  2.4464 -0.9536  0.6108
 5945TIP3    H239251   3.261   4.578   1.477 -2.3956 -0.6911  2.7415
 5946TIP3   OH239252   1.636   2.300   2.131  0.5439 -0.1861 -0.0459
 5946TIP3    H139253   1.619   2.218   2.085  1.4803  0.6422 -1.9908
 5946TIP3    H239254   1.550   2.334   2.155 -0.0805 -0.0539 -2.3556
 5947TIP3   OH239255   5.004   5.067   1.052 -0.1132 -0.8203 -0.4172
 5947TIP3    H139256   5.051   5.087   0.971 -0.1573 -0.6269 -0.3934
 5947TIP3    H239257   5.000   5.150   1.099  0.3748 -1.0411  0.0225
 5948TIP3   OH239258   5.549   0.894   0.882 -0.2312  0.4308 -0.2645
 5948TIP3    H139259   5.553   0.989   0.887 -1.1715  0.4135  1.0923
 5948TIP3    H239260   5.516   0.875   0.794  1.0510  1.3186 -0.9462
 5949TIP3   OH239261   3.980   3.453   2.684 -0.2520 -0.4022  0.1419
 5949TIP3    H139262   4.011   3.466   2.594  0.6015 -0.3691  0.4390
 5949TIP3    H239263   3.925   3.529   2.702  0.3587  0.0783 -0.0134
 5950TIP3   OH239264   3.758   5.343  15.612  0.3116  0.1550  0.4265
 5950TIP3    H139265   3.732   5.349  15.704 -1.2087  1.0502 -0.0394
 5950TIP3    H239266   3.718   5.262  15.581 -1.5222  1.2519 -0.1460
 5951TIP3   OH239267   3.186   0.888  12.463  0.5364  0.0456 -0.3858
 5951TIP3    H139268   3.177   0.885  12.368  1.0430  1.1590 -0.4808
 5951TIP3    H239269   3.280   0.877  12.479  0.7027  1.6425 -0.1263
 5952TIP3   OH239270   3.011   0.761   0.909 -0.1754 -0.3479 -0.3774
 5952TIP3    H139271   3.026   0.815   0.986 -1.0330 -0.2168 -0.2904
 5952TIP3    H239272   2.973   0.680   0.943  1.4632 -1.1640 -0.4752
 5953TIP3   OH239273   0.811   2.361  12.855 -0.0237 -0.7075 -0.2444
 5953TIP3    H139274   0.747   2.300  12.819  0.7788 -1.8949  0.2969
 5953TIP3    H239275   0.787   2.370  12.947  1.7337 -2.6978  0.4373
 5954TIP3   OH239276   4.532   5.925   1.800 -0.3672 -0.2459 -0.6232
 5954TIP3    H139277   4.613   5.966   1.769 -1.8325  0.9505 -3.0110
 5954TIP3    H239278   4.489   5.894   1.720 -1.6837 -1.9578  0.7300
 5955TIP3   OH239279   3.949   1.728  13.634 -0.1345 -0.5783 -0.4821
 5955TIP3    H139280   3.893   1.658  13.600 -0.7246 -0.7433  0.7951
 5955TIP3    H239281   3.887   1.795  13.664  0.3015 -1.0937  1.6636
 5956TIP3   OH239282   5.611   4.556  16.858  0.1797 -0.1666 -0.2232
 5956TIP3    H139283   5.559   4.481  16.830  0.4495 -0.8163  0.9790
 5956TIP3    H239284   5.547   4.626  16.873  0.1300  0.5743 -3.5520
 5957TIP3   OH239285   4.695   2.099  16.155  0.1606 -0.2802  0.2704
 5957TIP3    H139286   4.687   2.188  16.123 -1.3132 -0.8870 -1.1556
 5957TIP3    H239287   4.779   2.067  16.121  0.2722  0.2665  0.0418
 5958TIP3   OH239288   6.206   5.791   3.460 -0.0539  0.2376 -0.4628
 5958TIP3    H139289   6.218   5.886   3.464  1.4747  0.0297 -0.0166
 5958TIP3    H239290   6.212   5.762   3.551 -1.4994 -0.1870 -0.4851
 5959TIP3   OH239291   2.817   0.262   6.363  0.1337  0.3060  0.1943
 5959TIP3    H139292   2.836   0.232   6.452 -2.4690  1.7729  1.2891
 5959TIP3    H239293   2.766   0.190   6.325 -0.0740  0.3479  0.3967
 5960TIP3   OH239294   0.583   2.206   0.928 -0.6621  0.2922 -0.1129
 5960TIP3    H139295   0.582   2.130   0.986  3.2948 -1.3142 -1.9825
 5960TIP3    H239296   0.652   2.262   0.963 -0.3299  0.7456 -1.4425
 5961TIP3   OH239297   6.258   2.311   2.825  0.1705 -0.2011 -0.4596
 5961TIP3    H139298   6.332   2.367   2.803 -0.1694  0.5210  0.2103
 5961TIP3    H239299   6.209   2.303   2.743 -0.1458  1.0417 -0.4042
 5962TIP3   OH239300   3.555   6.276   2.736  0.0542  0.2806  0.3008
 5962TIP3    H139301   3.619   6.307   2.800  3.8050 -1.8850 -2.1962
 5962TIP3    H239302   3.525   6.193   2.771  2.1882 -0.9575 -0.7040
 5963TIP3   OH239303   1.058   6.671  10.789  0.5252 -0.1783  0.1109
 5963TIP3    H139304   1.151   6.693  10.780  0.4161 -0.5808 -2.5522
 5963TIP3    H239305   1.020   6.746  10.835  1.7640  1.0681 -0.8382
 5964TIP3   OH239306   5.632   2.831  16.531 -0.1729  0.2292  0.0648
 5964TIP3    H139307   5.552   2.780  16.518 -0.2210  0.3410 -0.0756
 5964TIP3    H239308   5.660   2.809  16.620 -0.6182  0.5468  0.2890
 5965TIP3   OH239309   1.655   5.530  11.132  0.1734  0.5810 -0.4446
 5965TIP3    H139310   1.696   5.586  11.198  1.7302 -3.0096  1.7811
 5965TIP3    H239311   1.696   5.557  11.050  0.9169  2.6450  0.5603
 5966TIP3   OH239312   0.320   6.053   2.589 -0.3174  0.0956 -0.1842
 5966TIP3    H139313   0.326   5.960   2.568 -1.5202  0.3122 -1.5622
 5966TIP3    H239314   0.354   6.097   2.512  0.0433  0.8138  0.3807
 5967TIP3   OH239315   3.524   3.692  12.187  0.1568  0.1682 -0.3010
 5967TIP3    H139316   3.528   3.765  12.248  1.1883  0.4366 -0.6740
 5967TIP3    H239317   3.509   3.615  12.242 -0.5775  0.6067  0.1219
 5968TIP3   OH239318   5.587   3.218  13.284 -0.1339 -0.4649 -0.4094
 5968TIP3    H139319   5.507   3.255  13.323 -0.2545 -0.0870 -1.0046
 5968TIP3    H239320   5.653   3.287  13.295 -0.7461  0.5890 -2.8878
 5969TIP3   OH239321   4.658   1.148   3.668  0.3074 -0.3508 -0.4361
 5969TIP3    H139322   4.588   1.109   3.721 -1.5488  0.6094 -2.0895
 5969TIP3    H239323   4.690   1.221   3.721  0.5084 -1.1950  0.6221
 5970TIP3   OH239324   5.221   1.493   0.004  0.3083  0.3137  0.3197
 5970TIP3    H139325   5.173   1.548   0.066  0.8870  1.0020  0.1669
 5970TIP3    H239326   5.163   1.485  -0.072  0.8861  2.1142 -0.3435
 5971TIP3   OH239327   1.418   0.186   3.627  0.5408 -0.1500  0.3670
 5971TIP3    H139328   1.453   0.275   3.623 -1.4752  0.6018 -1.0346
 5971TIP3    H239329   1.484   0.132   3.584  1.0700  0.8943 -0.1394
 5972TIP3   OH239330   4.608   1.580  12.193 -0.0775 -0.7866  0.0368
 5972TIP3    H139331   4.516   1.605  12.208  0.4744  0.7938  0.9226
 5972TIP3    H239332   4.603   1.490  12.161 -1.9726 -0.5735 -0.3618
 5973TIP3   OH239333   4.731   4.682  13.743 -0.0398 -0.0302 -0.5193
 5973TIP3    H139334   4.636   4.691  13.733 -0.1820 -1.2618 -0.4278
 5973TIP3    H239335   4.768   4.723  13.665 -0.7915 -2.4747 -2.2313
 5974TIP3   OH239336   3.639   4.128   5.380  0.2324 -0.1914  0.3808
 5974TIP3    H139337   3.618   4.182   5.303  0.2129  0.4166  0.8078
 5974TIP3    H239338   3.681   4.050   5.344  0.2711  0.1165 -0.2481
 5975TIP3   OH239339   0.931   5.562  12.438 -0.7408  0.2005  0.2464
 5975TIP3    H139340   0.914   5.467  12.443  0.8598 -0.0566  1.0637
 5975TIP3    H239341   1.020   5.572  12.471 -1.2495  2.1253  1.0972
 5976TIP3   OH239342   0.220   6.292   1.603 -0.2051 -0.0866 -0.2620
 5976TIP3    H139343   0.156   6.240   1.555 -1.1731 -0.6971  1.6173
 5976TIP3    H239344   0.255   6.353   1.538 -0.0029 -2.1983 -2.1945
 5977TIP3   OH239345   6.421   6.694  13.706 -0.9087 -0.1494  0.3408
 5977TIP3    H139346   6.363   6.760  13.744  0.9304  0.7524  1.6934
 5977TIP3    H239347   6.396   6.613  13.750 -0.2291  0.5011  1.9936
 5978TIP3   OH239348   5.931   5.489  10.332 -0.2399 -0.1167 -0.1138
 5978TIP3    H139349   5.952   5.401  10.365 -0.3089  0.3979  1.3496
 5978TIP3    H239350   5.836   5.487  10.320 -0.0154 -0.8246 -1.8615
 5979TIP3   OH239351   4.552   2.874  12.192 -0.0520  0.2248  0.2233
 5979TIP3    H139352   4.537   2.969  12.186 -0.1580  0.3532  2.0508
 5979TIP3    H239353   4.473   2.834  12.157  0.5189  0.7988 -1.7629
 5980TIP3   OH239354   2.998   2.006   4.458  0.0723 -0.1154 -0.4091
 5980TIP3    H139355   2.983   2.049   4.542 -1.8758 -1.1721 -0.2018
 5980TIP3    H239356   3.091   1.984   4.458 -0.1737 -1.2708  2.0289
 5981TIP3   OH239357   6.536   3.325  12.391 -0.6889  0.5679 -0.0339
 5981TIP3    H139358   6.531   3.317  12.296 -1.1909 -0.8269  0.0892
 5981TIP3    H239359   6.528   3.235  12.423  2.7751  0.6256  1.1986
 5982TIP3   OH239360   2.510   6.435  15.746  0.4089  0.4095 -0.0184
 5982TIP3    H139361   2.605   6.442  15.752  0.3370  1.0208  0.4259
 5982TIP3    H239362   2.477   6.510  15.795 -0.2706  1.1149 -1.5137
 5983TIP3   OH239363   0.160   6.404   3.967 -0.0616 -1.0802 -0.0458
 5983TIP3    H139364   0.234   6.422   3.910  2.4879  1.3486  3.7535
 5983TIP3    H239365   0.161   6.309   3.979  1.8612 -1.1682 -0.8215
 5984TIP3   OH239366   0.840   5.134  13.183  0.7058  0.8567  0.4159
 5984TIP3    H139367   0.768   5.111  13.241  0.1893 -1.4090 -1.0216
 5984TIP3    H239368   0.904   5.063  13.195  1.0307  0.8852 -1.0302
 5985TIP3   OH239369   2.721   3.608  14.485  1.0704 -0.2651 -0.6309
 5985TIP3    H139370   2.751   3.563  14.564  2.6099  0.9602 -0.4883
 5985TIP3    H239371   2.684   3.539  14.430  1.1649 -1.3217  0.6125
 5986TIP3   OH239372   0.220   5.608   1.911 -0.0014  0.0512  0.6021
 5986TIP3    H139373   0.266   5.673   1.858 -1.1710 -2.0138 -3.1606
 5986TIP3    H239374   0.133   5.646   1.924 -0.0357  0.1296  0.1527
 5987TIP3   OH239375   6.420   0.413  15.351  0.1661 -0.0577  0.2270
 5987TIP3    H139376   6.329   0.437  15.335  0.5528  0.1302 -1.7625
 5987TIP3    H239377   6.427   0.409  15.447 -2.1238 -0.9120  0.3853
 5988TIP3   OH239378   5.842   4.026  16.581 -0.1363  0.1323 -0.0671
 5988TIP3    H139379   5.857   4.110  16.624 -1.7128  0.0686  0.6633
 5988TIP3    H239380   5.759   4.038  16.534 -0.2820 -0.9532 -0.0977
 5989TIP3   OH239381   6.753   6.145   3.394 -0.0672  0.7482 -0.4475
 5989TIP3    H139382   6.816   6.114   3.330  1.7580 -1.9199  2.4688
 5989TIP3    H239383   6.669   6.107   3.366  1.0504 -1.9573 -0.2748
 5990TIP3   OH239384   5.778   2.268   5.121  0.4001 -0.4105 -0.1803
 5990TIP3    H139385   5.713   2.282   5.052  0.5426 -1.7334 -0.5981
 5990TIP3    H239386   5.774   2.174   5.138  1.8203 -0.4086  0.1722
 5991TIP3   OH239387   6.339   6.569   0.517 -0.2345  0.1786 -0.5000
 5991TIP3    H139388   6.325   6.585   0.424 -1.6239  1.1922 -0.1432
 5991TIP3    H239389   6.412   6.626   0.541 -2.8673  3.5095 -0.0028
 5992TIP3   OH239390   4.935   5.391   3.737 -0.0871 -0.4329  0.2223
 5992TIP3    H139391   4.910   5.299   3.730  0.6731 -0.6275  0.0106
 5992TIP3    H239392   5.015   5.398   3.684  1.0309 -0.1212  1.9075
 5993TIP3   OH239393   2.019   1.664  10.586 -0.0231 -0.2237  0.5949
 5993TIP3    H139394   2.075   1.630  10.656  1.1686  0.5778  0.0513
 5993TIP3    H239395   2.004   1.756  10.609  0.3034  0.0232 -0.1416
 5994TIP3   OH239396   0.188   4.840   3.608 -0.0194 -0.3863 -0.5117
 5994TIP3    H139397   0.283   4.837   3.620 -0.1681 -1.2474  0.5433
 5994TIP3    H239398   0.162   4.748   3.599 -0.8137 -0.1857 -0.2729
 5995TIP3   OH239399   4.278   4.985  11.803 -0.1928  0.5023 -0.1937
 5995TIP3    H139400   4.318   4.974  11.716 -0.9467 -0.7703 -0.3838
 5995TIP3    H239401   4.228   5.067  11.795 -2.0284 -0.7001 -1.6736
 5996TIP3   OH239402   2.568   5.832  16.509  0.0755 -0.2839  0.3077
 5996TIP3    H139403   2.602   5.875  16.587 -2.7946  0.1242  1.3914
 5996TIP3    H239404   2.545   5.903  16.450  0.2157 -0.5129 -0.0268
 5997TIP3   OH239405   2.164   0.138  15.451  0.3535  0.4316 -0.3254
 5997TIP3    H139406   2.114   0.204  15.501  0.3080  1.6497 -1.9308
 5997TIP3    H239407   2.138   0.153  15.360  1.0394 -1.2353 -0.8090
 5998TIP3   OH239408   5.426   6.254   0.549  0.9482 -0.5359  0.0550
 5998TIP3    H139409   5.392   6.165   0.537  0.3236 -0.4120  0.8382
 5998TIP3    H239410   5.390   6.304   0.475 -0.4221 -0.4560  0.7592
 5999TIP3   OH239411   5.319   3.915  11.019  0.1209 -0.1651  0.3254
 5999TIP3    H139412   5.290   3.936  10.930  0.1951 -0.2406  0.2844
 5999TIP3    H239413   5.314   3.998  11.066 -2.6536 -0.6439  0.9993
 6000TIP3   OH239414   3.315   1.646  16.381  0.5289  0.6791  0.3517
 6000TIP3    H139415   3.239   1.642  16.440  1.9390 -1.0329  2.1558
 6000TIP3    H239416   3.321   1.558  16.345  0.1218  1.5294 -1.8247
 6001TIP3   OH239417   6.683   5.927  13.417 -0.4368 -0.2450  0.0309
 6001TIP3    H139418   6.647   5.976  13.344 -2.1244  0.6796  1.4474
 6001TIP3    H239419   6.610   5.876  13.451  0.5673 -1.4262  0.4531
 6002TIP3   OH239420   4.788   0.279  12.474 -0.6939  0.3051 -0.5079
 6002TIP3    H139421   4.850   0.209  12.491 -2.5563 -1.5239 -1.1095
 6002TIP3    H239422   4.749   0.299  12.560 -3.3321 -2.4818 -0.9802
 6003TIP3   OH239423   0.156   5.160  14.179  0.2971 -0.5914 -0.3875
 6003TIP3    H139424   0.184   5.233  14.123 -0.2295 -0.1251 -0.0466
 6003TIP3    H239425   0.103   5.105  14.121 -2.4301  1.2432  0.2900
 6004TIP3   OH239426   3.911   5.211   1.073 -0.0369 -0.5895  0.6296
 6004TIP3    H139427   3.981   5.248   1.021 -0.3873  0.2941  0.7869
 6004TIP3    H239428   3.855   5.285   1.095 -0.6752 -1.1862  1.0395
 6005TIP3   OH239429   6.715   4.651  14.130 -0.2347 -0.0536 -0.3898
 6005TIP3    H139430   6.806   4.628  14.149  0.5330  0.4621 -3.3121
 6005TIP3    H239431   6.696   4.723  14.190  1.5463  0.3701 -0.3049
 6006TIP3   OH239432   5.933   4.149  17.213 -0.3590  0.3235  0.1457
 6006TIP3    H139433   5.973   4.062  17.220 -0.0329  0.4726  0.1258
 6006TIP3    H239434   6.006   4.209  17.198 -0.5387  0.6529  0.5453
 6007TIP3   OH239435   6.134   0.156  12.582 -0.2140  0.2204 -0.6693
 6007TIP3    H139436   6.139   0.118  12.495 -1.0511  1.3820 -1.2306
 6007TIP3    H239437   6.222   0.191  12.598  0.8451 -2.6912  0.2292
 6008TIP3   OH239438   1.261   6.455   0.287 -0.1268 -0.1623  0.0114
 6008TIP3    H139439   1.294   6.385   0.232 -1.3691 -0.4839 -0.3464
 6008TIP3    H239440   1.191   6.414   0.339  0.2251  0.4193  0.9586
 6009TIP3   OH239441   5.932   1.394   1.465 -0.0396  0.0396 -0.1208
 6009TIP3    H139442   5.903   1.449   1.392 -1.7562  2.3079  2.1840
 6009TIP3    H239443   6.019   1.427   1.486 -0.2729  0.5789  0.0016
 6010TIP3   OH239444   6.324   2.767  14.804 -0.4294  0.0883 -0.2154
 6010TIP3    H139445   6.410   2.763  14.845  0.3833 -0.3817 -1.9157
 6010TIP3    H239446   6.292   2.677  14.804  0.4410 -0.2472 -2.3643
 6011TIP3   OH239447   5.277   1.999  16.952 -0.2671  0.1061  0.1155
 6011TIP3    H139448   5.246   1.985  16.862  0.0288 -1.4030  0.2366
 6011TIP3    H239449   5.317   1.916  16.977 -0.1874  0.5685  1.5863
 6012TIP3   OH239450   6.293   0.119   0.210  0.4400  0.8229 -0.7122
 6012TIP3    H139451   6.333   0.186   0.155 -1.3722  0.2870 -2.7577
 6012TIP3    H239452   6.199   0.135   0.203 -0.0330 -1.8813 -1.2559
 6013TIP3   OH239453   5.689   5.285  11.719 -0.4797  0.5115 -0.5347
 6013TIP3    H139454   5.607   5.316  11.681 -2.5711 -2.8148  1.0308
 6013TIP3    H239455   5.694   5.329  11.804  0.0491  1.7360 -1.1956
 6014TIP3   OH239456   5.523   5.173   4.979  0.9330 -0.2126  0.3735
 6014TIP3    H139457   5.483   5.220   5.053 -1.1744  0.0651 -0.9016
 6014TIP3    H239458   5.499   5.081   4.994  0.3012 -0.1251 -0.0746
 6015TIP3   OH239459   3.100   6.194   1.318 -0.7621  0.0702  0.2760
 6015TIP3    H139460   3.168   6.234   1.265 -1.0538  1.4136  0.8982
 6015TIP3    H239461   3.029   6.175   1.257 -1.1116  1.6443  0.1867
 6016TIP3   OH239462   5.321   3.993   5.278  0.1357 -0.3750 -0.0464
 6016TIP3    H139463   5.283   3.955   5.199  1.5007  3.0190 -2.4937
 6016TIP3    H239464   5.416   3.982   5.267  0.4646  2.1873 -0.0841
 6017TIP3   OH239465   3.121   6.524   1.271 -0.8004  0.4372 -0.5594
 6017TIP3    H139466   3.070   6.580   1.211  0.9530  1.9352 -0.6898
 6017TIP3    H239467   3.199   6.500   1.221  0.1423  0.7775  0.7240
 6018TIP3   OH239468   6.678   2.918   5.658  0.4282 -0.0003  0.3348
 6018TIP3    H139469   6.695   3.010   5.679 -1.3549  0.2748  0.6210
 6018TIP3    H239470   6.623   2.887   5.730 -2.5769 -0.0973 -1.9377
 6019TIP3   OH239471   4.727   2.700  14.256  0.1000 -0.5009 -0.7530
 6019TIP3    H139472   4.673   2.667  14.184 -0.9411  1.7399 -1.0160
 6019TIP3    H239473   4.666   2.710  14.329  0.8227 -1.0847 -0.0525
 6020TIP3   OH239474   3.380   0.357  16.497  0.4785 -0.0973  0.5744
 6020TIP3    H139475   3.459   0.374  16.446  0.9754 -0.2578  1.2831
 6020TIP3    H239476   3.378   0.426  16.563 -0.6792  0.6708 -0.2487
 6021TIP3   OH239477   2.979   6.431   3.447  0.2975 -0.2361  0.3132
 6021TIP3    H139478   3.056   6.422   3.391  1.1495  3.0378  0.8452
 6021TIP3    H239479   2.907   6.398   3.393  1.8789 -2.5143 -0.5185
 6022TIP3   OH239480   6.508   5.392  14.090 -0.0645 -0.2352 -0.3612
 6022TIP3    H139481   6.599   5.413  14.068  0.0133 -0.7982 -0.5949
 6022TIP3    H239482   6.510   5.376  14.184  0.1485 -0.5798 -0.4213
 6023TIP3   OH239483   6.754   6.318   2.872 -0.0869  0.6939 -0.3375
 6023TIP3    H139484   6.792   6.396   2.912  1.1492 -0.0474 -0.0405
 6023TIP3    H239485   6.690   6.351   2.810  0.0893  1.9290  0.1318
 6024TIP3   OH239486   1.500   5.763   3.497 -0.2776  0.4301  0.6231
 6024TIP3    H139487   1.491   5.668   3.502 -1.1785  0.3312 -1.9739
 6024TIP3    H239488   1.551   5.778   3.418 -0.6018  2.1293  0.7217
 6025TIP3   OH239489   0.348   0.458   5.352  0.1467  0.7027  0.7217
 6025TIP3    H139490   0.395   0.495   5.427 -0.2960  1.7103  0.5004
 6025TIP3    H239491   0.256   0.460   5.377  0.3636 -3.9166  2.3364
 6026TIP3   OH239492   1.551   2.343  17.227  0.3684  0.5739 -0.3646
 6026TIP3    H139493   1.616   2.304  17.169  0.5079  0.8505 -0.3933
 6026TIP3    H239494   1.467   2.310  17.195  0.6121 -1.1327  0.7089
 6027TIP3   OH239495   0.416   5.181   0.032 -0.3331 -0.1881 -0.0480
 6027TIP3    H139496   0.490   5.153   0.087  0.2240  0.1920 -0.6016
 6027TIP3    H239497   0.339   5.158   0.084  0.2057  1.3066  1.4752
 6028TIP3   OH239498   0.822   2.190   4.765  0.3223 -0.2126  0.0229
 6028TIP3    H139499   0.778   2.106   4.757  1.2338 -0.5921 -1.2092
 6028TIP3    H239500   0.906   2.170   4.806  1.4170 -0.2419 -2.1309
 6029TIP3   OH239501   3.978   0.608  12.235 -0.3227 -0.1616  0.3325
 6029TIP3    H139502   3.971   0.688  12.184  0.3064  0.1146  0.6839
 6029TIP3    H239503   3.955   0.538  12.173 -0.6348  0.2597 -0.0347
 6030TIP3   OH239504   6.479   5.302  16.340  0.0282 -0.0776 -0.3018
 6030TIP3    H139505   6.430   5.341  16.412 -0.7176 -0.8041 -0.4017
 6030TIP3    H239506   6.520   5.224  16.378 -0.1660 -0.3278 -0.6008
 6031TIP3   OH239507   1.640   3.521   0.432  0.0042  0.2264  0.1775
 6031TIP3    H139508   1.584   3.556   0.362  0.6529  1.9008  0.4503
 6031TIP3    H239509   1.582   3.510   0.507 -0.3349  0.1935 -0.0897
 6032TIP3   OH239510   6.047   3.538  13.680 -0.3669 -1.0488 -0.1160
 6032TIP3    H139511   6.131   3.493  13.680  0.6038  0.7095  0.9014
 6032TIP3    H239512   6.054   3.604  13.611 -1.2673 -1.5140 -0.6687
 6033TIP3   OH239513   3.142   3.095   3.687 -0.1568  0.0977  0.0507
 6033TIP3    H139514   3.130   3.005   3.716 -1.3417  0.0175 -0.6616
 6033TIP3    H239515   3.134   3.091   3.592 -2.1480  1.2292  0.1510
 6034TIP3   OH239516   1.986   5.561  15.793  0.6569  0.1429 -0.3134
 6034TIP3    H139517   2.050   5.597  15.732  0.4821  0.2061 -0.4590
 6034TIP3    H239518   2.038   5.516  15.859  0.8320 -0.2950 -0.7430
 6035TIP3   OH239519   0.724   2.739   4.908 -0.2346  0.1663 -0.3692
 6035TIP3    H139520   0.764   2.667   4.956 -2.4536 -0.3566  0.7302
 6035TIP3    H239521   0.744   2.817   4.960 -1.4718 -0.2214  0.6986
 6036TIP3   OH239522   2.978   4.857   3.929 -0.1825  0.3998  0.5630
 6036TIP3    H139523   2.901   4.834   3.982  0.5534 -1.7832  0.7198
 6036TIP3    H239524   3.052   4.825   3.979  0.5324 -1.8954 -1.8594
 6037TIP3   OH239525   0.951   0.759  13.985  0.1952 -0.5712  0.1683
 6037TIP3    H139526   0.866   0.769  14.029  0.7175 -2.5030  1.7153
 6037TIP3    H239527   0.939   0.683  13.928  1.3940 -1.9938  1.7675
 6038TIP3   OH239528   1.461   6.500   2.661 -0.2637 -0.7216 -0.2176
 6038TIP3    H139529   1.407   6.443   2.607 -0.9521 -0.4634  0.1932
 6038TIP3    H239530   1.527   6.535   2.601 -0.3766 -1.2604 -0.6548
 6039TIP3   OH239531   0.181   5.404   3.785 -0.4085 -0.6402 -0.1648
 6039TIP3    H139532   0.226   5.378   3.704  0.3532 -0.2314  0.1275
 6039TIP3    H239533   0.241   5.379   3.855  0.2360  1.6026  0.1469
 6040TIP3   OH239534   0.572   5.169  12.534  0.1191  0.0762  0.2006
 6040TIP3    H139535   0.629   5.119  12.591 -0.7184 -0.9416  0.1516
 6040TIP3    H239536   0.547   5.107  12.465  0.7099  1.1373 -0.9976
 6041TIP3   OH239537   4.950   3.179   1.504 -0.5147  0.0769 -0.3933
 6041TIP3    H139538   4.947   3.084   1.517 -1.7224  0.0010 -1.1323
 6041TIP3    H239539   4.986   3.190   1.416 -0.7669  0.2996 -0.4670
 6042TIP3   OH239540   3.956   1.511  11.740  0.3056 -0.0107 -0.2042
 6042TIP3    H139541   3.939   1.416  11.742  0.1998  0.0222  0.8498
 6042TIP3    H239542   4.050   1.518  11.754  0.3625  0.0349 -0.5943
 6043TIP3   OH239543   6.745   1.245   3.120 -0.4292  0.2354 -0.7463
 6043TIP3    H139544   6.698   1.223   3.039 -0.8812  3.2823 -1.3748
 6043TIP3    H239545   6.686   1.219   3.190 -1.5272  0.7096 -1.4858
 6044TIP3   OH239546   4.964   1.735  11.183 -0.1026 -0.5991 -0.0664
 6044TIP3    H139547   5.020   1.659  11.199 -1.6239 -1.2028  2.6713
 6044TIP3    H239548   4.875   1.700  11.183 -0.8230  1.1240  1.2053
 6045TIP3   OH239549   3.142   6.478  17.229 -0.0211  0.3936 -0.3633
 6045TIP3    H139550   3.137   6.441  17.141 -2.1975 -0.7802  0.2239
 6045TIP3    H239551   3.157   6.402  17.286 -0.8609  0.8547  0.4899
 6046TIP3   OH239552   6.111   4.706   1.696  0.5291 -0.5830 -0.3456
 6046TIP3    H139553   6.076   4.795   1.700  0.6262 -0.4529 -1.9923
 6046TIP3    H239554   6.200   4.716   1.662 -0.2878 -1.4642 -2.8954
 6047TIP3   OH239555   3.142   0.403  15.672  0.0004 -0.1245  0.1249
 6047TIP3    H139556   3.167   0.453  15.595 -2.8646  0.6957 -0.3424
 6047TIP3    H239557   3.121   0.316  15.639 -1.1162  0.1943 -0.0333
 6048TIP3   OH239558   3.525   0.743  17.207  0.7850  0.1343  0.5582
 6048TIP3    H139559   3.445   0.770  17.161 -0.1720 -0.9965  1.5081
 6048TIP3    H239560   3.591   0.807  17.181 -0.5800  1.4171  0.1783
 6049TIP3   OH239561   5.441   0.787  17.018 -0.6083  0.1080  0.7256
 6049TIP3    H139562   5.377   0.845  17.061 -1.6521 -0.0750 -0.5658
 6049TIP3    H239563   5.404   0.770  16.932  1.3734  0.2924 -0.1900
 6050TIP3   OH239564   4.983   1.102  15.736 -0.5096 -0.2855  0.0252
 6050TIP3    H139565   5.009   1.072  15.823  0.2166  1.2715  0.3650
 6050TIP3    H239566   4.928   1.178  15.753  0.8435  0.9086 -0.9107
 6051TIP3   OH239567   3.262   3.000  13.059 -0.4235  0.0692 -0.1457
 6051TIP3    H139568   3.323   2.937  13.019 -0.7550  0.0640 -0.6389
 6051TIP3    H239569   3.217   2.949  13.127 -0.8540 -0.2940 -0.6939
 6052TIP3   OH239570   6.333   4.418  16.350  0.2326  0.6548  0.5564
 6052TIP3    H139571   6.276   4.489  16.320 -0.7731  0.6946  2.4869
 6052TIP3    H239572   6.274   4.348  16.374  1.0064  0.4761  2.0384
 6053TIP3   OH239573   1.430   3.128   0.433  0.3816  0.0323 -0.0398
 6053TIP3    H139574   1.393   3.060   0.377  1.3315 -0.6269  0.1277
 6053TIP3    H239575   1.387   3.115   0.518  1.0809 -0.8299  0.1971
 6054TIP3   OH239576   2.080   0.637   0.399 -0.1464  0.3775  0.4724
 6054TIP3    H139577   2.105   0.646   0.307  0.1000  0.9673  0.5995
 6054TIP3    H239578   2.040   0.550   0.404 -0.9629  0.7067 -0.3689
 6055TIP3   OH239579   1.255   0.983   1.263 -0.1694 -0.6598  0.2330
 6055TIP3    H139580   1.329   0.976   1.322  0.6212 -1.3680 -0.8226
 6055TIP3    H239581   1.246   0.896   1.225 -1.0652 -0.3790 -0.2133
 6056TIP3   OH239582   6.355   6.130   5.586 -0.1244  0.0572 -0.2529
 6056TIP3    H139583   6.363   6.037   5.607 -2.2581  0.2088  1.4317
 6056TIP3    H239584   6.304   6.132   5.505  0.4466 -0.2626 -0.6187
 6057TIP3   OH239585   2.003   5.820   2.866 -1.1740 -0.1896 -0.0704
 6057TIP3    H139586   2.021   5.897   2.812 -1.7544  0.2614  0.3566
 6057TIP3    H239587   2.080   5.765   2.857 -0.0501  1.1916  0.8822
 6058TIP3   OH239588   1.581   3.381   3.430  0.0069  0.3366  0.0211
 6058TIP3    H139589   1.675   3.366   3.439 -0.1481 -0.7640 -0.1597
 6058TIP3    H239590   1.575   3.469   3.393  0.8819  1.5954  2.6937
 6059TIP3   OH239591   1.757   0.493  14.582  0.6343  0.1024  0.7189
 6059TIP3    H139592   1.668   0.458  14.586  0.6007  0.1431  0.2764
 6059TIP3    H239593   1.810   0.422  14.546  0.9040 -0.1653  1.6361
 6060TIP3   OH239594   0.331   3.446  15.332  0.3923  0.2509 -0.0897
 6060TIP3    H139595   0.319   3.399  15.415 -0.2122 -1.4734 -1.1252
 6060TIP3    H239596   0.424   3.433  15.311  0.1646 -0.7523 -0.5136
 6061TIP3   OH239597   0.840   1.362   5.786  0.0844 -0.4269 -0.1111
 6061TIP3    H139598   0.769   1.330   5.730 -1.1615 -0.0940  1.2388
 6061TIP3    H239599   0.809   1.347   5.875  1.7393 -0.3026  0.5019
 6062TIP3   OH239600   0.258   3.413   4.335  0.0009  0.6085  0.3017
 6062TIP3    H139601   0.214   3.430   4.252 -0.1215 -1.1915 -0.0246
 6062TIP3    H239602   0.319   3.486   4.345 -2.1454  2.4742  0.1533
 6063TIP3   OH239603   5.389   0.401   0.140  0.1792 -0.3328  0.2289
 6063TIP3    H139604   5.438   0.419   0.220 -1.5107  1.2504  0.9230
 6063TIP3    H239605   5.423   0.465   0.077  1.1472 -1.2454 -0.1957
 6064TIP3   OH239606   4.833   5.325   2.577 -0.0428 -0.2585  0.0242
 6064TIP3    H139607   4.884   5.263   2.629  0.6698 -0.4747 -0.9302
 6064TIP3    H239608   4.745   5.321   2.615 -0.1020 -2.1334 -0.2848
 6065TIP3   OH239609   4.269   2.751  11.761 -0.2766  0.6193 -0.1927
 6065TIP3    H139610   4.244   2.676  11.706  0.7208 -0.3674  0.6610
 6065TIP3    H239611   4.364   2.756  11.752  0.2429 -1.1061  3.3127
 6066TIP3   OH239612   1.957   4.502  15.588  0.0631  0.1645 -0.2050
 6066TIP3    H139613   1.911   4.434  15.539  0.1656  0.4943 -0.7756
 6066TIP3    H239614   2.020   4.455  15.642 -0.3080 -0.2320 -0.1189
 6067TIP3   OH239615   1.792   0.830  17.118 -0.3176 -0.2218  0.3151
 6067TIP3    H139616   1.716   0.804  17.066 -0.9826  0.6434  0.8443
 6067TIP3    H239617   1.838   0.748  17.134 -2.1962 -1.0504  1.6437
 6068TIP3   OH239618   5.060   6.781  12.799 -0.4482 -0.1359 -0.1686
 6068TIP3    H139619   5.055   6.782  12.895  2.2686 -0.2291  0.0347
 6068TIP3    H239620   5.040   6.691  12.774  0.4258 -0.5194  0.4717
 6069TIP3   OH239621   3.591   2.861   4.355  0.0129 -0.3552  0.2224
 6069TIP3    H139622   3.523   2.823   4.411  0.3729 -0.1058  0.8402
 6069TIP3    H239623   3.598   2.801   4.281 -0.6813 -0.5304  0.2994
 6070TIP3   OH239624   1.871   1.385   2.836 -0.2468  0.3729 -0.1410
 6070TIP3    H139625   1.879   1.430   2.920 -0.6506  1.1564 -0.5146
 6070TIP3    H239626   1.952   1.408   2.790  0.7410 -1.3911  0.6473
 6071TIP3   OH239627   0.856   0.875   0.526 -0.1923 -0.0744  0.4599
 6071TIP3    H139628   0.852   0.931   0.449 -0.9302 -1.1190 -0.2742
 6071TIP3    H239629   0.837   0.788   0.493  1.0442 -0.7817  1.5860
 6072TIP3   OH239630   2.804   1.664  11.126 -0.1592  0.0912 -0.1310
 6072TIP3    H139631   2.842   1.692  11.043  0.6320  0.3985  0.3263
 6072TIP3    H239632   2.846   1.579  11.144 -1.9018 -0.9933 -1.0843
 6073TIP3   OH239633   5.710   1.475   5.774  0.0946 -0.4714  0.0839
 6073TIP3    H139634   5.753   1.390   5.776  0.3912 -0.3024  0.9901
 6073TIP3    H239635   5.782   1.538   5.774 -0.1345 -0.1809  2.0839
 6074TIP3   OH239636   3.322   1.355   2.338 -0.4496  0.1998  0.7097
 6074TIP3    H139637   3.266   1.328   2.265  3.0922 -2.5028 -1.2424
 6074TIP3    H239638   3.355   1.442   2.312 -0.6450  0.0462 -0.0809
 6075TIP3   OH239639   6.577   0.197  13.166 -0.7511  0.0950 -0.0759
 6075TIP3    H139640   6.514   0.269  13.164 -1.3561 -0.4534 -1.4486
 6075TIP3    H239641   6.576   0.162  13.077  0.4308 -0.8401  0.2705
 6076TIP3   OH239642   6.589   3.015  14.262  0.1679 -0.4591 -0.4218
 6076TIP3    H139643   6.548   3.072  14.197 -0.4985 -0.0139  0.3710
 6076TIP3    H239644   6.599   3.071  14.340 -0.2900 -1.3670  0.2928
 6077TIP3   OH239645   2.497   3.691   4.981  0.5184  0.3331 -0.1213
 6077TIP3    H139646   2.466   3.739   5.058  0.5420 -0.6293  0.4884
 6077TIP3    H239647   2.540   3.613   5.017 -0.8786 -0.9411 -1.1679
 6078TIP3   OH239648   1.155   2.059   3.920 -0.3332  0.0055 -0.0504
 6078TIP3    H139649   1.243   2.055   3.956 -1.9345 -0.9759  3.9553
 6078TIP3    H239650   1.129   2.151   3.931 -0.4278 -0.0688  0.3626
 6079TIP3   OH239651   3.684   3.050   5.436  0.3775 -0.2171  0.3437
 6079TIP3    H139652   3.691   3.142   5.462  1.3510 -0.1786 -0.0266
 6079TIP3    H239653   3.721   3.002   5.510  2.1996 -0.1614 -0.4897
 6080TIP3   OH239654   5.066   5.349  12.687  0.1252 -0.1578  0.3595
 6080TIP3    H139655   5.006   5.335  12.760 -0.2829 -1.3349 -0.2025
 6080TIP3    H239656   5.093   5.441  12.696  0.4130 -0.4084  2.2332
 6081TIP3   OH239657   0.517   0.873  11.815  0.5342 -0.0640  0.3952
 6081TIP3    H139658   0.501   0.783  11.788  0.5401 -0.0460  0.3324
 6081TIP3    H239659   0.512   0.924  11.734  2.4766 -0.2550  0.1358
 6082TIP3   OH239660   6.154   1.261  14.069 -0.0155  0.2691  0.4923
 6082TIP3    H139661   6.183   1.231  13.983  1.4300  0.3453  0.9312
 6082TIP3    H239662   6.181   1.353  14.073 -0.7259  0.4713  0.7522
 6083TIP3   OH239663   1.950   6.234   2.083  0.0278  0.8049  0.0242
 6083TIP3    H139664   1.929   6.192   2.167  0.6157 -0.0350 -0.2416
 6083TIP3    H239665   1.972   6.324   2.106  0.0040  0.6254  0.7570
 6084TIP3   OH239666   5.994   5.718  11.628 -0.4629 -0.5821  0.2951
 6084TIP3    H139667   6.031   5.654  11.689 -1.2002 -2.9177 -1.5892
 6084TIP3    H239668   5.900   5.715  11.644 -0.4499  0.4749  0.5856
 6085TIP3   OH239669   4.837   0.736  14.361 -0.0234  0.5181  0.1123
 6085TIP3    H139670   4.815   0.774  14.276 -1.9420 -0.0017  0.3494
 6085TIP3    H239671   4.798   0.649  14.360  0.7470  0.1434  1.1740
 6086TIP3   OH239672   5.798   4.854  11.942 -0.3939  0.5175 -0.3217
 6086TIP3    H139673   5.798   4.838  12.037  1.5600  0.2980 -0.3421
 6086TIP3    H239674   5.790   4.949  11.934  1.1231  0.7051  0.1320
 6087TIP3   OH239675   6.208   2.376  15.326  0.0826 -0.0433  0.2784
 6087TIP3    H139676   6.254   2.388  15.409  0.1921  1.9997 -0.0349
 6087TIP3    H239677   6.131   2.431  15.333 -0.3012 -0.4500 -0.6878
 6088TIP3   OH239678   6.104   3.838  16.691 -0.8736 -0.0666  0.3210
 6088TIP3    H139679   6.012   3.839  16.663 -0.2690  0.9419 -1.6752
 6088TIP3    H239680   6.120   3.928  16.720 -0.2600 -0.0058 -0.2017
 6089TIP3   OH239681   6.080   0.912  16.578 -0.5256  0.4376  0.3930
 6089TIP3    H139682   6.064   0.993  16.626 -0.4439  0.9698 -0.4729
 6089TIP3    H239683   6.174   0.897  16.587 -0.3273  1.1033 -0.4766
 6090TIP3   OH239684   5.961   3.802  13.971 -0.4721 -0.0243  0.0315
 6090TIP3    H139685   5.892   3.825  14.033  0.7832  0.4898  1.2504
 6090TIP3    H239686   5.981   3.710  13.989 -0.1432  0.1104  0.3557
 6091TIP3   OH239687   2.338   6.266  15.367  0.1418 -0.3685 -0.3564
 6091TIP3    H139688   2.381   6.193  15.411 -0.3076  0.7964  2.1310
 6091TIP3    H239689   2.301   6.318  15.439 -1.0424  1.3488 -2.1687
 6092TIP3   OH239690   6.084   3.143  17.145  0.3267 -0.1645 -0.2835
 6092TIP3    H139691   6.012   3.205  17.133 -0.9402 -1.3629  0.8791
 6092TIP3    H239692   6.162   3.190  17.116 -0.6584  1.8370  0.2374
 6093TIP3   OH239693   5.543   4.319   0.378 -0.0925  0.0282 -0.0324
 6093TIP3    H139694   5.534   4.384   0.308  1.1144  0.0441 -0.1787
 6093TIP3    H239695   5.636   4.298   0.379 -0.5330 -2.0326 -0.2758
 6094TIP3   OH239696   4.498   4.771  13.175 -0.2697 -0.4097  0.1213
 6094TIP3    H139697   4.555   4.728  13.239  0.7543  0.9993  0.1698
 6094TIP3    H239698   4.409   4.750  13.204  0.1394 -4.1667 -0.9816
 6095TIP3   OH239699   4.569   3.685   5.475 -0.1909 -0.0753 -0.0268
 6095TIP3    H139700   4.514   3.761   5.494  0.2120  0.3263 -0.4526
 6095TIP3    H239701   4.658   3.713   5.499  0.2304  0.2086 -1.8352
 6096TIP3   OH239702   2.680   0.761   3.316 -0.2672 -0.2105  0.1254
 6096TIP3    H139703   2.659   0.668   3.321 -1.4234  0.0554  0.3795
 6096TIP3    H239704   2.708   0.784   3.405  2.1651 -0.7945 -0.4528
 6097TIP3   OH239705   5.792   2.033   5.325 -0.0583  0.3246 -0.1623
 6097TIP3    H139706   5.751   1.948   5.340 -0.6082  0.6588  0.2797
 6097TIP3    H239707   5.860   2.039   5.393 -0.5186  0.5470  0.2880
 6098TIP3   OH239708   5.360   3.056   2.807 -1.0652  0.1615 -0.1557
 6098TIP3    H139709   5.395   3.120   2.745 -0.9899 -0.7888 -1.1114
 6098TIP3    H239710   5.269   3.044   2.780 -0.3338 -2.1952 -1.7659
 6099TIP3   OH239711   1.184   0.755   0.625 -0.1353 -0.3046  0.3954
 6099TIP3    H139712   1.193   0.706   0.544 -0.3716  0.9577 -0.4026
 6099TIP3    H239713   1.126   0.828   0.604  0.1828  0.3151  1.5663
 6100TIP3   OH239714   1.829   0.831  15.114  0.0080  0.2205  0.4889
 6100TIP3    H139715   1.797   0.911  15.156  2.5836  1.5728 -0.0522
 6100TIP3    H239716   1.825   0.764  15.183  2.0673  1.8903  2.2827
 6101TIP3   OH239717   1.897   1.772  12.537  0.0139 -0.4236  0.1590
 6101TIP3    H139718   1.832   1.726  12.589 -2.5177  2.3624 -0.4073
 6101TIP3    H239719   1.981   1.735  12.565 -1.7671 -4.4019  0.6166
 6102TIP3   OH239720   3.833   4.316   5.351  0.0593  0.1231 -0.0148
 6102TIP3    H139721   3.750   4.272   5.339 -0.7618  1.3467  0.9974
 6102TIP3    H239722   3.845   4.368   5.272 -0.5044  0.5071  0.1481
 6103TIP3   OH239723   1.341   2.174   4.724  0.4065 -0.7344  0.1125
 6103TIP3    H139724   1.411   2.118   4.757  1.6697  0.9703  0.3949
 6103TIP3    H239725   1.364   2.190   4.632  0.4041 -0.1821  0.2018
 6104TIP3   OH239726   1.891   3.729   0.877 -0.2317  0.3268 -0.3072
 6104TIP3    H139727   1.835   3.661   0.840 -0.4141  1.1614 -1.6031
 6104TIP3    H239728   1.830   3.795   0.911 -0.0380  0.6385 -0.5657
 6105TIP3   OH239729   3.114   0.414   5.830 -0.5949  0.4674 -0.2335
 6105TIP3    H139730   3.085   0.419   5.921  1.2704 -1.9016  0.5593
 6105TIP3    H239731   3.150   0.500   5.811 -2.0731  1.3515  0.8776
 6106TIP3   OH239732   3.861   1.134  16.994  0.1426  0.1391 -0.3786
 6106TIP3    H139733   3.870   1.097  16.906 -0.4837  1.0133 -0.8169
 6106TIP3    H239734   3.951   1.155  17.020  0.2438  0.8058 -1.2241
 6107TIP3   OH239735   5.405   4.095   0.307 -0.8946 -0.8018  0.0591
 6107TIP3    H139736   5.482   4.039   0.317  0.6098  1.2517  0.4188
 6107TIP3    H239737   5.432   4.179   0.344 -2.6671  0.5185 -1.5521
 6108TIP3   OH239738   1.577   3.066   3.600 -0.2869  0.5575  0.5166
 6108TIP3    H139739   1.629   2.998   3.642 -0.1342  0.7176  0.5838
 6108TIP3    H239740   1.537   3.115   3.672 -0.1747  0.7143  0.4704
 6109TIP3   OH239741   3.646   5.701  11.700 -0.0755  0.2958  0.0291
 6109TIP3    H139742   3.720   5.647  11.728  0.8379  1.0953 -0.8052
 6109TIP3    H239743   3.632   5.678  11.608  1.4504  2.7067 -0.8508
 6110TIP3   OH239744   2.063   1.397  11.664  0.4125  0.5726 -0.2752
 6110TIP3    H139745   2.034   1.400  11.755  0.8715  0.0511 -0.1130
 6110TIP3    H239746   2.072   1.489  11.639  1.5258  0.7051  0.6020
 6111TIP3   OH239747   4.698   0.226   4.660 -0.3065 -0.3411  0.0109
 6111TIP3    H139748   4.770   0.236   4.598  1.0263 -0.0105  1.5669
 6111TIP3    H239749   4.715   0.143   4.704 -1.4711 -0.7816 -0.3372
 6112TIP3   OH239750   3.345   0.854  11.367  0.4307  0.1823  0.0879
 6112TIP3    H139751   3.393   0.894  11.295  0.9973  2.1216  1.5146
 6112TIP3    H239752   3.391   0.772  11.384  0.7389  0.0634 -1.2512
 6113TIP3   OH239753   4.924   3.112  11.308 -0.1164 -0.1204  0.1895
 6113TIP3    H139754   4.838   3.153  11.299  0.3985  0.4480 -2.5420
 6113TIP3    H239755   4.956   3.102  11.218  3.1168  0.6206  1.1695
 6114TIP3   OH239756   6.110   0.771   4.777  0.0533  0.4184  0.2486
 6114TIP3    H139757   6.144   0.840   4.835 -0.9487 -1.4562  3.1864
 6114TIP3    H239758   6.016   0.769   4.796 -0.2241 -0.4686 -1.2051
 6115TIP3   OH239759   3.574   0.434   2.555 -0.3271 -0.6864 -0.0539
 6115TIP3    H139760   3.513   0.370   2.593 -2.1770 -0.2507 -2.2207
 6115TIP3    H239761   3.603   0.394   2.473  2.4674 -0.9377  0.9715
 6116TIP3   OH239762   6.465   2.502   0.574  1.0403 -0.1332  0.0128
 6116TIP3    H139763   6.445   2.477   0.664 -0.2768  1.1839  0.1086
 6116TIP3    H239764   6.416   2.439   0.521 -0.6229  0.9119  0.2509
 6117TIP3   OH239765   2.807   1.162   2.590 -0.1936 -0.1513  0.5586
 6117TIP3    H139766   2.769   1.245   2.564  2.5640  2.0000  3.0160
 6117TIP3    H239767   2.745   1.127   2.655  0.3694  1.8021  2.2196
 6118TIP3   OH239768   1.517   0.998   6.237  0.0348  0.4345 -0.2685
 6118TIP3    H139769   1.530   0.955   6.322 -0.7806  0.9279  0.1166
 6118TIP3    H239770   1.532   0.929   6.172  0.2076 -0.0606  0.2922
 6119TIP3   OH239771   0.255   2.280   1.204  0.0897  0.8466  0.4353
 6119TIP3    H139772   0.171   2.249   1.168  1.2256 -0.7581 -0.9339
 6119TIP3    H239773   0.286   2.206   1.257  0.6033  1.4600  0.9899
 6120TIP3   OH239774   2.164   2.070   4.732 -0.1848 -0.3210 -0.3084
 6120TIP3    H139775   2.155   2.131   4.660 -0.2182 -2.9544 -2.6219
 6120TIP3    H239776   2.233   2.010   4.704 -0.5531 -1.6936  1.6176
 6121TIP3   OH239777   4.920   0.457  14.589  0.3538  0.2862  0.1351
 6121TIP3    H139778   4.904   0.389  14.523  2.0144  1.5442 -1.5885
 6121TIP3    H239779   4.834   0.496  14.604 -0.5172 -1.7513  0.6910
 6122TIP3   OH239780   5.689   0.988  16.707  0.6556  0.3638 -0.2908
 6122TIP3    H139781   5.612   0.982  16.651  0.0799 -0.8628  0.6060
 6122TIP3    H239782   5.751   1.041  16.657 -1.2495  2.4988 -0.4715
 6123TIP3   OH239783   0.850   4.390  17.200  0.0036 -0.6857  0.3411
 6123TIP3    H139784   0.834   4.469  17.148  0.6196 -2.4350 -2.6532
 6123TIP3    H239785   0.939   4.400  17.234  0.6399 -0.7008 -1.2600
 6124TIP3   OH239786   6.114   2.894  14.201 -0.6228 -0.5992  0.1099
 6124TIP3    H139787   6.020   2.883  14.183 -0.0723 -2.5283 -1.9234
 6124TIP3    H239788   6.128   2.849  14.284 -1.2294 -1.6868 -0.3668
 6125TIP3   OH239789   4.147   4.272  12.722 -0.3140  0.1090  0.5446
 6125TIP3    H139790   4.110   4.221  12.794 -0.2900  1.1769  1.3231
 6125TIP3    H239791   4.072   4.293  12.666 -0.2728 -1.0484  0.0435
 6126TIP3   OH239792   6.411   4.270  12.176 -0.6837 -0.1959  0.6390
 6126TIP3    H139793   6.355   4.323  12.119 -0.3212  0.1821  0.6282
 6126TIP3    H239794   6.351   4.216  12.226 -0.9797 -0.9727 -0.5395
 6127TIP3   OH239795   2.708   1.449  12.490 -0.0197  0.2057  0.7662
 6127TIP3    H139796   2.700   1.389  12.415 -1.2688  1.1886  0.0888
 6127TIP3    H239797   2.703   1.392  12.567 -0.3577 -0.6550  0.1164
 6128TIP3   OH239798   5.778   3.292  15.692 -0.2871 -0.4740 -0.0055
 6128TIP3    H139799   5.829   3.363  15.654  1.6264 -0.5788  2.1782
 6128TIP3    H239800   5.744   3.243  15.617  1.6957  0.4208 -1.5322
 6129TIP3   OH239801   6.223   3.448  12.261  0.1850 -0.0198  0.2324
 6129TIP3    H139802   6.282   3.507  12.307  0.3437 -0.8577  1.1251
 6129TIP3    H239803   6.196   3.385  12.327 -0.8595 -0.2908 -0.4330
 6130TIP3   OH239804   0.163   4.546  15.848 -0.1988  0.0839  0.1123
 6130TIP3    H139805   0.177   4.452  15.839  0.4911  0.0706  1.1275
 6130TIP3    H239806   0.175   4.563  15.942 -1.6152  0.9785  0.1500
 6131TIP3   OH239807   4.723   2.597   1.500  1.1688 -0.4305 -0.7050
 6131TIP3    H139808   4.657   2.627   1.563  2.9119 -0.1925  1.0546
 6131TIP3    H239809   4.731   2.669   1.437 -0.5883 -0.6733 -1.2314
 6132TIP3   OH239810   5.342   6.327   0.124  1.0049  0.1277  0.1839
 6132TIP3    H139811   5.381   6.246   0.159  1.4858  0.2851  0.0114
 6132TIP3    H239812   5.405   6.358   0.059 -0.2253 -0.5622 -1.3752
 6133TIP3   OH239813   4.661   0.443   0.315 -0.1557  0.9715  0.1203
 6133TIP3    H139814   4.604   0.367   0.312 -1.9364  2.2944 -0.9632
 6133TIP3    H239815   4.724   0.428   0.244 -0.9618  0.8395 -0.5806
 6134TIP3   OH239816   5.472   3.035   6.354 -0.1807 -0.8237  0.3000
 6134TIP3    H139817   5.555   3.009   6.395  0.7646  0.5263 -0.6924
 6134TIP3    H239818   5.424   3.078   6.424  1.0880  0.7501  0.2406
 6135TIP3   OH239819   1.450   1.105  13.054 -0.3220 -0.1961 -0.1548
 6135TIP3    H139820   1.419   1.026  13.010 -1.6637  0.5833 -0.6218
 6135TIP3    H239821   1.371   1.158  13.068 -0.0197 -0.5402  3.4468
 6136TIP3   OH239822   2.571   3.821  13.610 -0.8321  0.0584 -0.3134
 6136TIP3    H139823   2.503   3.755  13.622 -1.6311  1.3617  2.7005
 6136TIP3    H239824   2.527   3.904  13.627  0.8589  1.1459 -1.1400
 6137TIP3   OH239825   0.380   5.277  12.846 -0.4949 -0.1889 -0.4359
 6137TIP3    H139826   0.386   5.267  12.941  0.8187 -1.8318 -0.6718
 6137TIP3    H239827   0.336   5.198  12.815  1.3279 -0.8659 -1.4048
 6138TIP3   OH239828   2.988   1.607  17.120 -0.2896  0.1680  0.1432
 6138TIP3    H139829   2.999   1.659  17.200  0.1010 -1.5579  1.2172
 6138TIP3    H239830   2.997   1.516  17.148  0.2740 -0.4451 -1.9319
 6139TIP3   OH239831   0.789   2.660  13.248 -0.0667 -0.4569  0.2877
 6139TIP3    H139832   0.791   2.592  13.315  1.3548  0.3932  1.1171
 6139TIP3    H239833   0.696   2.671  13.228 -0.2373 -4.1373 -1.4000
 6140TIP3   OH239834   5.503   3.765   5.940 -1.0779  0.6967 -0.1515
 6140TIP3    H139835   5.472   3.856   5.939 -0.7595  0.8046 -0.6816
 6140TIP3    H239836   5.493   3.736   5.849 -2.9962 -0.4320  0.4089
 6141TIP3   OH239837   2.677   1.770  16.705  0.0714 -0.0166  0.2274
 6141TIP3    H139838   2.618   1.725  16.765  0.2048  0.4710  0.7354
 6141TIP3    H239839   2.638   1.857  16.694  0.6879  0.3106  0.5670
 6142TIP3   OH239840   6.601   4.863  11.506  0.3414  0.6265 -0.1323
 6142TIP3    H139841   6.514   4.904  11.503  0.1700  0.1644 -2.4087
 6142TIP3    H239842   6.657   4.931  11.543 -0.8516  1.1751  0.7211
 6143TIP3   OH239843   2.840   1.380   4.404 -0.5455  0.3688  0.5202
 6143TIP3    H139844   2.915   1.401   4.348 -1.1628  0.6860 -0.1832
 6143TIP3    H239845   2.871   1.306   4.457 -0.0137 -0.0503 -0.3585
 6144TIP3   OH239846   5.475   3.163   5.217 -0.7383  0.3927  0.2886
 6144TIP3    H139847   5.386   3.132   5.235 -1.1823  1.8838  0.7663
 6144TIP3    H239848   5.505   3.200   5.300  0.4366 -0.3339  0.1999
 6145TIP3   OH239849   6.495   4.184  14.794 -0.4525 -0.3500  0.0628
 6145TIP3    H139850   6.509   4.089  14.788 -0.0053 -0.3077  0.4558
 6145TIP3    H239851   6.434   4.203  14.723 -1.8940 -1.1907  1.0553
 6146TIP3   OH239852   5.011   5.852   0.130 -0.3828  0.1255 -0.5497
 6146TIP3    H139853   4.939   5.907   0.098 -0.4283 -0.9324 -2.3596
 6146TIP3    H239854   4.971   5.766   0.143  0.3223 -0.2143 -0.6049
 6147TIP3   OH239855   6.497   4.587  16.084 -0.5019 -0.0463 -0.3196
 6147TIP3    H139856   6.508   4.663  16.026  1.3828  0.3989  0.5860
 6147TIP3    H239857   6.476   4.625  16.170 -0.1131 -0.5835  0.0107
 6148TIP3   OH239858   4.743   1.485   3.550  0.5529 -0.1083  0.4286
 6148TIP3    H139859   4.686   1.513   3.622  0.2806 -1.9533  0.9478
 6148TIP3    H239860   4.697   1.515   3.471  0.9500  2.1070  0.9840
 6149TIP3   OH239861   5.459   1.178   4.185  0.4655 -0.2591 -0.0777
 6149TIP3    H139862   5.368   1.206   4.174  0.0831 -0.9782  1.1590
 6149TIP3    H239863   5.511   1.247   4.144 -0.6568 -0.0741 -1.2016
 6150TIP3   OH239864   5.906   1.408   5.107  0.1762  0.2263  0.9611
 6150TIP3    H139865   5.835   1.436   5.165  0.2516  1.2291  0.5885
 6150TIP3    H239866   5.902   1.469   5.033  0.8369 -0.2896  0.4925
 6151TIP3   OH239867   3.639   1.756   4.897  0.4843 -0.1028  0.1485
 6151TIP3    H139868   3.699   1.713   4.836 -1.2066 -2.7346  0.2781
 6151TIP3    H239869   3.556   1.762   4.850 -0.2439 -0.1845  1.4022
 6152TIP3   OH239870   6.694   3.785   5.180 -0.0914  0.0355 -0.3183
 6152TIP3    H139871   6.702   3.735   5.261 -0.8021  1.6922  0.8140
 6152TIP3    H239872   6.725   3.873   5.203  0.1509  0.4029 -1.9762
 6153TIP3   OH239873   2.888   1.265   1.064 -0.4865  0.0977  0.6282
 6153TIP3    H139874   2.867   1.311   0.983  0.9163  0.3614  0.4077
 6153TIP3    H239875   2.810   1.212   1.082 -1.1162  0.6370 -0.4616
 6154TIP3   OH239876   2.524   6.262  16.063 -0.5515 -0.0504  0.4062
 6154TIP3    H139877   2.533   6.260  15.967  0.5924 -0.2828  0.5194
 6154TIP3    H239878   2.435   6.295  16.077 -1.2166 -1.2559 -0.7561
 6155TIP3   OH239879   1.772   2.970  13.461  0.5187 -0.2612 -0.0983
 6155TIP3    H139880   1.744   3.060  13.446  1.0585 -0.2587 -1.1799
 6155TIP3    H239881   1.854   2.962  13.412  1.9207 -0.5428  2.2378
 6156TIP3   OH239882   1.099   4.633  12.409 -0.0674  0.0645 -0.4584
 6156TIP3    H139883   1.020   4.625  12.463 -0.1444  2.6618 -0.1391
 6156TIP3    H239884   1.075   4.696  12.341  2.7030  3.4818  1.5852
 6157TIP3   OH239885   3.563   4.440  13.733  0.0108 -0.4313  0.1541
 6157TIP3    H139886   3.476   4.462  13.699 -0.4281 -0.2469  1.3757
 6157TIP3    H239887   3.622   4.500  13.687 -0.5208 -0.4531 -0.5665
 6158TIP3   OH239888   2.403   5.182   4.944  0.1043  0.2896 -0.4729
 6158TIP3    H139889   2.462   5.173   5.019 -1.3822  2.4250  1.0177
 6158TIP3    H239890   2.377   5.092   4.923 -0.4978 -0.2758  2.4486
 6159TIP3   OH239891   4.110   4.392   1.005  0.4512 -0.1516  0.5869
 6159TIP3    H139892   4.035   4.337   0.981  0.4328 -0.5257  1.4854
 6159TIP3    H239893   4.144   4.424   0.922  0.5219 -1.6041  0.0451
 6160TIP3   OH239894   2.468   5.099  11.897 -0.0235 -0.2835 -0.8100
 6160TIP3    H139895   2.430   5.020  11.858  0.2695 -0.0196 -1.6424
 6160TIP3    H239896   2.549   5.114  11.848  1.7619 -1.4661  1.6848
 6161TIP3   OH239897   3.120   5.041   0.177  0.0868 -0.2164  0.0338
 6161TIP3    H139898   3.033   5.080   0.166  0.0951 -0.1579  0.1611
 6161TIP3    H239899   3.176   5.115   0.200  0.4034 -0.0740 -1.1632
 6162TIP3   OH239900   2.894   3.404  15.422 -0.7235  0.0273 -1.0695
 6162TIP3    H139901   2.908   3.316  15.457 -1.5089  0.2366 -0.2113
 6162TIP3    H239902   2.963   3.415  15.356 -0.4471 -1.1169 -0.9775
 6163TIP3   OH239903   3.128   6.014   3.935  0.1008  0.5452 -0.0612
 6163TIP3    H139904   3.219   6.012   3.962  0.1890 -0.9454 -0.3901
 6163TIP3    H239905   3.080   5.983   4.012  0.4010 -4.2866 -1.6319
 6164TIP3   OH239906   5.129   5.932   3.385  0.3605  0.3737  0.3573
 6164TIP3    H139907   5.221   5.908   3.400  0.0440 -0.2534  1.2586
 6164TIP3    H239908   5.080   5.853   3.404 -0.5521  1.3010  1.9037
 6165TIP3   OH239909   4.279   5.347   3.031  0.0011  0.2149  0.0535
 6165TIP3    H139910   4.195   5.314   3.065  0.2753 -0.2284  0.3049
 6165TIP3    H239911   4.256   5.428   2.985 -0.8072 -0.7304 -1.2586
 6166TIP3   OH239912   5.000   5.553   5.192  0.2489  0.2302 -0.4116
 6166TIP3    H139913   5.032   5.640   5.169  0.6081 -0.1416 -1.3111
 6166TIP3    H239914   5.075   5.509   5.232  0.0337  0.3645  0.1562
 6167TIP3   OH239915   1.761   4.308  14.427  0.5596  0.3206 -0.0420
 6167TIP3    H139916   1.771   4.373  14.497  2.3052  0.1339 -0.0834
 6167TIP3    H239917   1.748   4.225  14.473  1.1523  0.2804  0.0572
 6168TIP3   OH239918   1.192   5.707   1.972  0.1970 -0.7447  0.1830
 6168TIP3    H139919   1.143   5.784   1.943  0.4637 -0.9431 -0.7820
 6168TIP3    H239920   1.176   5.704   2.067  1.1872  1.1971  0.4302
 6169TIP3   OH239921   6.441   5.128   2.441  0.1664 -0.2246 -0.2161
 6169TIP3    H139922   6.450   5.071   2.517  1.1476 -0.7940 -0.7558
 6169TIP3    H239923   6.347   5.149   2.438 -0.1309 -1.4429  0.2451
 6170TIP3   OH239924   3.542   5.758  10.792  0.2350 -0.7432 -0.2618
 6170TIP3    H139925   3.463   5.811  10.805  0.3460 -0.9213  1.1751
 6170TIP3    H239926   3.521   5.673  10.832  0.8374 -1.0782 -0.6554
 6171TIP3   OH239927   4.086   4.821  11.284  0.0870  0.1451  0.4641
 6171TIP3    H139928   4.033   4.754  11.328 -0.2145  0.2123  0.2031
 6171TIP3    H239929   4.086   4.795  11.192 -1.0487  1.1743  0.1539
 6172TIP3   OH239930   3.432   3.272  13.281  0.5843 -0.3460  0.0224
 6172TIP3    H139931   3.513   3.310  13.247  0.7109 -0.2963  0.3798
 6172TIP3    H239932   3.370   3.281  13.209  0.6034  0.5728  0.1167
 6173TIP3   OH239933   3.669   2.896  16.231  0.0117 -0.1181 -0.2931
 6173TIP3    H139934   3.699   2.812  16.265  2.5515  0.5313 -0.8080
 6173TIP3    H239935   3.713   2.905  16.146 -0.5546  1.5478 -0.4348
 6174TIP3   OH239936   0.477   2.651   1.332 -0.2578 -0.0842 -0.4983
 6174TIP3    H139937   0.430   2.606   1.403  0.9029 -0.9297 -0.2477
 6174TIP3    H239938   0.544   2.588   1.304  1.6484  1.6093  0.1165
 6175TIP3   OH239939   3.580   2.974  13.288  0.1050  0.8197 -0.4628
 6175TIP3    H139940   3.491   2.998  13.315 -0.3936 -1.8162  0.3881
 6175TIP3    H239941   3.588   2.882  13.312  1.7489 -0.0270 -3.9254
 6176TIP3   OH239942   5.788   1.171  12.260 -0.5894 -0.0995  0.1219
 6176TIP3    H139943   5.733   1.241  12.225 -1.3524 -0.6132  0.2812
 6176TIP3    H239944   5.804   1.196  12.351  1.5534  1.3332 -0.6242
 6177TIP3   OH239945   0.321   0.840  12.854  0.1503 -0.3165 -0.6520
 6177TIP3    H139946   0.272   0.779  12.799 -2.2510 -1.3002  2.4237
 6177TIP3    H239947   0.398   0.790  12.884 -1.7093 -1.8795  1.7042
 6178TIP3   OH239948   1.323   0.614  16.942 -0.4342 -0.4675  0.2410
 6178TIP3    H139949   1.356   0.642  16.857 -1.2709  0.5203  0.2367
 6178TIP3    H239950   1.393   0.559  16.978  0.2120 -0.3221 -0.7787
 6179TIP3   OH239951   1.285   4.719  12.130 -0.8628  0.2983 -0.0613
 6179TIP3    H139952   1.312   4.692  12.042  1.1028  0.0537  0.5816
 6179TIP3    H239953   1.190   4.730  12.124 -0.5001  2.5046 -2.8020
 6180TIP3   OH239954   6.137   3.249   2.570  0.2286  0.5533  0.1420
 6180TIP3    H139955   6.057   3.226   2.523  0.2401  0.6509  0.0746
 6180TIP3    H239956   6.112   3.247   2.663 -0.3423  2.4641  0.0372
 6181TIP3   OH239957   2.495   6.082  14.700 -0.0864  0.3217 -0.3094
 6181TIP3    H139958   2.575   6.132  14.687 -0.2068  0.4442 -0.5817
 6181TIP3    H239959   2.425   6.139  14.668 -0.3673  0.5475  0.7097
 6182TIP3   OH239960   3.352   5.728   3.156 -0.5515  0.3926 -0.0831
 6182TIP3    H139961   3.339   5.813   3.115 -0.4858 -0.0759 -1.0988
 6182TIP3    H239962   3.434   5.736   3.204  0.0500  0.5621 -1.1129
 6183TIP3   OH239963   5.984   2.027   3.240 -0.5692  0.0090 -0.3310
 6183TIP3    H139964   5.894   2.058   3.233 -1.0593 -1.5205 -1.1650
 6183TIP3    H239965   5.982   1.939   3.202  0.5702 -1.4337  2.7256
 6184TIP3   OH239966   5.613   5.835   0.660 -0.0978  0.3967  0.6103
 6184TIP3    H139967   5.568   5.823   0.744  1.4406  0.5075  1.4817
 6184TIP3    H239968   5.667   5.913   0.673 -1.1883  1.4723 -1.0973
 6185TIP3   OH239969   1.951   3.594  10.697  0.0063  0.5360 -0.5978
 6185TIP3    H139970   2.021   3.554  10.646 -1.7913 -1.0981 -1.8467
 6185TIP3    H239971   1.925   3.671  10.646  3.4687  3.4960  1.8082
 6186TIP3   OH239972   1.998   5.617   5.911  0.1451 -0.3924 -0.4043
 6186TIP3    H139973   1.984   5.708   5.937  1.5793 -0.1021 -0.6374
 6186TIP3    H239974   2.092   5.604   5.915 -0.2116 -2.7207  2.3669
 6187TIP3   OH239975   5.840   5.540   1.752  0.0107 -0.2186  0.2336
 6187TIP3    H139976   5.805   5.496   1.675  0.4972 -0.3959  0.1077
 6187TIP3    H239977   5.785   5.617   1.763  0.5709  0.3600 -0.9014
 6188TIP3   OH239978   5.657   3.163  16.066 -0.0678 -0.2349  0.2231
 6188TIP3    H139979   5.658   3.244  16.116 -0.0840 -0.0015 -0.1493
 6188TIP3    H239980   5.743   3.159  16.024 -0.6297  0.3864 -1.0103
 6189TIP3   OH239981   5.689   3.885   5.231 -0.4356  0.1237 -0.4915
 6189TIP3    H139982   5.761   3.881   5.168 -0.2467 -2.6998 -0.1582
 6189TIP3    H239983   5.731   3.911   5.314  0.0667 -0.7270 -0.4787
 6190TIP3   OH239984   5.829   6.707   1.664  0.0563 -0.1818 -0.1773
 6190TIP3    H139985   5.924   6.693   1.675  0.2974 -0.4349 -2.3430
 6190TIP3    H239986   5.790   6.658   1.736  1.5707 -0.0339  0.7867
 6191TIP3   OH239987   3.747   4.181   4.303  0.5733 -0.0897  0.1012
 6191TIP3    H139988   3.810   4.219   4.365  1.6720 -1.2491 -0.2920
 6191TIP3    H239989   3.666   4.171   4.355  1.3077 -0.4953  1.1876
 6192TIP3   OH239990   0.534   2.243  13.385 -0.4670  0.7064  0.5040
 6192TIP3    H139991   0.523   2.330  13.424  1.0102  0.9712  0.3668
 6192TIP3    H239992   0.601   2.201  13.438 -1.3465 -0.4531  0.7152
 6193TIP3   OH239993   3.906   0.709   0.906  0.3803  0.0139  0.0996
 6193TIP3    H139994   3.943   0.649   0.971  0.7562 -1.1495 -1.1676
 6193TIP3    H239995   3.982   0.748   0.863  0.2404 -2.8234 -2.9264
 6194TIP3   OH239996   4.821   3.315  13.138  0.1618 -0.2819 -0.3460
 6194TIP3    H139997   4.794   3.297  13.047 -2.1163  0.2369  0.1836
 6194TIP3    H239998   4.843   3.408  13.137 -2.4618  0.3903  0.1806
 6195TIP3   OH239999   4.626   1.811  12.622 -0.7220 -0.2973 -0.2367
 6195TIP3    H140000   4.543   1.765  12.637  0.0417 -1.9242 -0.9486
 6195TIP3    H240001   4.682   1.747  12.579  1.0709  0.6452  0.6468
 6196TIP3   OH240002   1.854   3.514   1.661  0.5922 -0.1116  0.7196
 6196TIP3    H140003   1.838   3.431   1.616  0.6188  0.2629  0.0151
 6196TIP3    H240004   1.767   3.544   1.686  0.3433  0.8119 -1.1289
 6197TIP3   OH240005   2.092   2.031   4.091 -0.0289 -0.0214  0.5038
 6197TIP3    H140006   2.112   1.945   4.129  0.1762 -1.3278 -2.4536
 6197TIP3    H240007   2.178   2.069   4.071 -0.1767 -1.2929 -2.7828
 6198TIP3   OH240008   3.389   4.465   2.325 -0.5307 -0.1897 -0.8078
 6198TIP3    H140009   3.293   4.470   2.334 -0.1910  2.2822  2.1385
 6198TIP3    H240010   3.408   4.523   2.251 -1.2503 -0.3662 -1.1440
 6199TIP3   OH240011   6.386   0.489  16.941 -0.6790 -0.0834 -0.8622
 6199TIP3    H140012   6.399   0.584  16.939 -1.9150  0.1516  1.1670
 6199TIP3    H240013   6.312   0.476  17.000  0.2287 -2.3791 -0.1684
 6200TIP3   OH240014   6.532   1.722  16.379  0.2879  0.4739  0.1695
 6200TIP3    H140015   6.595   1.657  16.349 -0.4121 -0.3852  0.5386
 6200TIP3    H240016   6.585   1.788  16.423  1.0354  0.3127 -0.4937
 6201TIP3   OH240017   0.222   2.540  13.127  0.5251 -0.2614 -0.1993
 6201TIP3    H140018   0.146   2.585  13.091  1.2138  2.4130  1.5321
 6201TIP3    H240019   0.197   2.519  13.217  1.5443 -0.0287  0.1474
 6202TIP3   OH240020   6.623   0.834   5.340  0.0306 -0.4658  0.1713
 6202TIP3    H140021   6.689   0.899   5.364 -1.0466 -0.3151  2.8871
 6202TIP3    H240022   6.645   0.757   5.393 -1.3289 -0.7842  0.2906
 6203TIP3   OH240023   4.340   2.630   6.309  0.4848  0.3428 -0.0147
 6203TIP3    H140024   4.411   2.684   6.343 -1.7919  2.4715  1.5080
 6203TIP3    H240025   4.286   2.690   6.258 -0.5607 -1.1018 -0.6325
 6204TIP3   OH240026   5.454   6.303   1.259 -0.0268  0.0587  0.2998
 6204TIP3    H140027   5.408   6.269   1.336 -0.7475 -1.3331 -0.7222
 6204TIP3    H240028   5.418   6.253   1.186  0.8388  1.1865 -0.9146
 6205TIP3   OH240029   5.346   1.439   6.881  0.6860 -0.2720  0.0516
 6205TIP3    H140030   5.351   1.344   6.879  0.1856 -0.2758 -1.8211
 6205TIP3    H240031   5.406   1.468   6.812 -2.1199  0.5959 -2.1195
 6206TIP3   OH240032   1.374   4.000  15.797 -0.4530  0.1769  0.4492
 6206TIP3    H140033   1.405   4.059  15.866  0.2645  1.5243 -0.9841
 6206TIP3    H240034   1.433   4.016  15.723 -0.8180 -1.7003 -0.2694
 6207TIP3   OH240035   4.891   4.154   0.955 -0.7421  0.3949 -0.5030
 6207TIP3    H140036   4.930   4.230   0.997 -0.9737  1.2644 -1.8176
 6207TIP3    H240037   4.800   4.179   0.939 -1.7243 -1.4021  2.0320
 6208TIP3   OH240038   3.050   2.744  16.871  0.0531  0.0531  0.1208
 6208TIP3    H140039   2.995   2.674  16.905 -0.9110 -0.0080 -1.4889
 6208TIP3    H240040   3.135   2.730  16.911 -0.1820 -1.9183 -0.0369
 6209TIP3   OH240041   0.280   0.425   1.222  0.2899 -0.5916  0.2365
 6209TIP3    H140042   0.311   0.436   1.132  1.7920 -0.5586  0.7539
 6209TIP3    H240043   0.351   0.380   1.267 -0.1547  0.0320  1.5942
 6210TIP3   OH240044   4.448   1.422   4.525 -0.0037  0.3664 -0.0316
 6210TIP3    H140045   4.370   1.460   4.565  0.3394 -1.1527  2.2016
 6210TIP3    H240046   4.424   1.409   4.433 -2.0928  0.6539  0.4390
 6211TIP3   OH240047   0.071   6.558   0.712 -0.1497 -0.5208  0.5596
 6211TIP3    H140048   0.092   6.485   0.654  0.6351 -0.3726  0.6517
 6211TIP3    H240049   0.058   6.632   0.652  2.3134  0.0320  0.6274
 6212TIP3   OH240050   2.807   1.237  11.325 -0.0218  0.0637 -0.4235
 6212TIP3    H140051   2.816   1.142  11.313  2.7094  0.0737  1.0087
 6212TIP3    H240052   2.750   1.246  11.401 -0.2511 -0.4358 -0.5329
 6213TIP3   OH240053   0.929   3.621  13.180 -0.3820  0.3041 -0.2670
 6213TIP3    H140054   0.873   3.685  13.135 -0.2441  0.0778 -0.7577
 6213TIP3    H240055   0.867   3.564  13.226 -0.6399 -0.8206 -1.9602
 6214TIP3   OH240056   4.698   0.773   3.518  0.3523 -0.4762 -0.3828
 6214TIP3    H140057   4.714   0.822   3.437 -0.5940  0.0770 -0.2410
 6214TIP3    H240058   4.746   0.691   3.506  1.1411  0.0714 -1.0361
 6215TIP3   OH240059   1.259   3.581   1.780  0.1586 -0.2285  0.4680
 6215TIP3    H140060   1.269   3.509   1.717  0.5167 -1.8067  2.2755
 6215TIP3    H240061   1.198   3.641   1.738  1.6855 -0.3785 -2.1338
 6216TIP3   OH240062   1.709   3.237   4.685  0.0052 -0.3123 -0.3531
 6216TIP3    H140063   1.650   3.312   4.684 -0.9408 -1.0353  0.4211
 6216TIP3    H240064   1.771   3.255   4.755 -0.2520 -0.2819 -0.1350
 6217TIP3   OH240065   6.178   3.056   5.018 -0.0047  0.2264  0.5681
 6217TIP3    H140066   6.154   3.105   4.939  1.3965 -0.4705 -0.3088
 6217TIP3    H240067   6.175   3.121   5.089  1.8471  1.6132 -0.5680
 6218TIP3   OH240068   2.437   3.975   4.569 -0.0253 -0.1510 -0.2924
 6218TIP3    H140069   2.344   3.990   4.586 -0.2554 -1.4084 -0.3940
 6218TIP3    H240070   2.480   3.993   4.653 -0.2524  1.2818 -0.4753
 6219TIP3   OH240071   1.925   6.748  13.399  0.3423  0.3955  0.0456
 6219TIP3    H140072   1.944   6.682  13.332 -1.0397  2.8307 -2.8636
 6219TIP3    H240073   1.840   6.723  13.434  0.8743 -0.6519  0.5990
 6220TIP3   OH240074   2.153   0.712  16.762 -0.1609  0.3147  0.3872
 6220TIP3    H140075   2.190   0.660  16.833 -1.3904 -0.1397  0.7081
 6220TIP3    H240076   2.085   0.766  16.804 -2.3912 -1.5146 -0.7606
 6221TIP3   OH240077   0.725   0.187   2.445  0.6261 -0.8875 -0.1702
 6221TIP3    H140078   0.689   0.129   2.512  0.2425  1.0599  1.3567
 6221TIP3    H240079   0.798   0.138   2.407  0.4091 -2.3027  1.1964
 6222TIP3   OH240080   2.960   2.381  13.927  0.1377  0.2965  0.3487
 6222TIP3    H140081   3.021   2.312  13.953 -1.2530 -1.0150  0.2276
 6222TIP3    H240082   2.992   2.411  13.843 -0.3884 -1.6547 -0.5819
 6223TIP3   OH240083   6.711   5.681  14.302  0.2683 -0.3300  0.3463
 6223TIP3    H140084   6.730   5.670  14.396 -1.3149 -0.1182  0.7047
 6223TIP3    H240085   6.790   5.650  14.258  1.6895  1.1626  1.8023
 6224TIP3   OH240086   2.291   0.531   4.066  0.1356  0.2623  0.0480
 6224TIP3    H140087   2.311   0.535   3.973  2.1983  0.1659  0.4517
 6224TIP3    H240088   2.223   0.464   4.074  0.8008 -0.5774 -1.2570
 6225TIP3   OH240089   5.131   4.434   0.898 -0.0622 -0.1095  0.9847
 6225TIP3    H140090   5.037   4.415   0.896 -0.3575  1.4525 -0.9479
 6225TIP3    H240091   5.137   4.522   0.936  0.3858  0.9475 -1.4361
 6226TIP3   OH240092   1.099   2.420  12.507  0.3966 -0.4076 -0.5628
 6226TIP3    H140093   1.134   2.334  12.486 -0.8798 -0.9980 -0.3124
 6226TIP3    H240094   1.081   2.461  12.422  1.8023 -0.0467 -0.6928
 6227TIP3   OH240095   6.156   0.556   5.544  0.4073 -0.0053  0.0189
 6227TIP3    H140096   6.112   0.618   5.486 -0.5943 -1.2342 -0.5707
 6227TIP3    H240097   6.086   0.522   5.600  1.0467 -0.1822  0.7137
 6228TIP3   OH240098   5.015   6.272  14.866 -0.1014  0.0863 -0.1777
 6228TIP3    H140099   5.047   6.225  14.789 -0.0710  0.5170 -0.4328
 6228TIP3    H240100   4.922   6.286  14.848  0.1443  1.2115 -0.6813
 6229TIP3   OH240101   1.261   4.742  16.508 -0.2019  0.1902 -0.1163
 6229TIP3    H140102   1.201   4.789  16.451 -1.6866  0.0796  1.3451
 6229TIP3    H240103   1.235   4.650  16.499 -0.6806  0.2141  1.0226
 6230TIP3   OH240104   3.997   0.658   0.172  0.1246  0.0060  0.5388
 6230TIP3    H140105   3.947   0.618   0.101  1.1809  2.0375 -1.4061
 6230TIP3    H240106   4.034   0.584   0.220 -2.0282 -1.4391  0.0384
 6231TIP3   OH240107   2.149   2.603  15.517 -0.1073  0.4394 -0.4241
 6231TIP3    H140108   2.168   2.668  15.585 -0.2306  0.2322 -0.1915
 6231TIP3    H240109   2.225   2.546  15.516 -0.5495 -0.1656  0.2472
 6232TIP3   OH240110   0.607   4.804  14.869 -0.0485  0.3536 -0.0161
 6232TIP3    H140111   0.680   4.848  14.826  1.0817  0.1897  1.6794
 6232TIP3    H240112   0.634   4.713  14.876 -0.3723  0.3094  0.7207
 6233TIP3   OH240113   4.446   0.321   5.416 -0.2869  0.2404 -0.2339
 6233TIP3    H140114   4.403   0.261   5.478 -1.2975  1.2731  0.0977
 6233TIP3    H240115   4.441   0.407   5.459  0.7127  0.6472 -0.9095
 6234TIP3   OH240116   0.113   0.222  11.700  0.7408  0.5267  0.0894
 6234TIP3    H140117   0.036   0.267  11.665 -0.3490 -2.4964 -1.6197
 6234TIP3    H240118   0.091   0.129  11.696  3.6701 -0.3169  1.5874
 6235TIP3   OH240119   4.146   0.009   2.209  0.4257 -0.1452 -0.0586
 6235TIP3    H140120   4.231   0.032   2.246  0.5089 -0.4149 -0.0771
 6235TIP3    H240121   4.114  -0.062   2.265 -0.2471  0.6477  0.5594
 6236TIP3   OH240122   5.662   6.391  11.491  0.1777  0.3596  0.0119
 6236TIP3    H140123   5.646   6.305  11.452 -2.8031  0.9093 -0.0752
 6236TIP3    H240124   5.655   6.375  11.585  0.4299  0.3696  0.0319
 6237TIP3   OH240125   5.165   6.344  12.798  0.4177 -0.2286  0.6071
 6237TIP3    H140126   5.239   6.402  12.783 -0.5119  0.4937 -1.4252
 6237TIP3    H240127   5.094   6.402  12.825 -0.8257 -0.2090 -2.5128
 6238TIP3   OH240128   5.035   6.630  15.535 -0.5469 -0.0817  0.5178
 6238TIP3    H140129   4.995   6.713  15.508  1.0402  0.6730  0.4538
 6238TIP3    H240130   4.967   6.565  15.518 -0.8309  0.8362 -2.0968
 6239TIP3   OH240131   3.695   1.315  14.553  0.0294  0.0402  0.2558
 6239TIP3    H140132   3.645   1.258  14.494 -0.5878 -1.2586  1.9930
 6239TIP3    H240133   3.629   1.348  14.614  1.2082 -1.3130  2.2834
 6240TIP3   OH240134   2.447   2.857   4.859 -0.5140 -0.1361 -0.2224
 6240TIP3    H140135   2.463   2.775   4.904 -0.5277  0.4118  0.7942
 6240TIP3    H240136   2.454   2.835   4.766  2.7898 -0.6141  0.0902
 6241TIP3   OH240137   5.499   2.252  16.941  0.4608  0.2999  0.0144
 6241TIP3    H140138   5.455   2.171  16.915  0.5530  0.4031 -0.4666
 6241TIP3    H240139   5.443   2.322  16.907  0.8937  0.4319 -0.4291
 6242TIP3   OH240140   4.202   5.163  10.900 -0.1554 -0.0693 -0.0829
 6242TIP3    H140141   4.126   5.134  10.850  0.7816 -2.1718 -0.3526
 6242TIP3    H240142   4.277   5.126  10.853  0.9082  0.2484  1.3274
 6243TIP3   OH240143   4.345   0.566  12.777  0.4125 -0.3392  0.0961
 6243TIP3    H140144   4.385   0.565  12.864  0.9523  1.3411 -0.1229
 6243TIP3    H240145   4.252   0.583  12.794  0.8846  2.2876  0.2388
 6244TIP3   OH240146   6.140   0.287   3.055  0.2302  0.0979  0.4831
 6244TIP3    H140147   6.172   0.198   3.039  1.2225  0.4495  0.4483
 6244TIP3    H240148   6.187   0.314   3.135  0.1427  0.6876  0.3316
 6245TIP3   OH240149   6.131   6.148  16.156  0.0732 -0.2062 -0.0207
 6245TIP3    H140150   6.103   6.233  16.191 -0.9689 -0.2632 -0.6783
 6245TIP3    H240151   6.099   6.084  16.219 -2.9160 -0.4049 -1.6242
 6246TIP3   OH240152   0.745   5.699   0.401  0.1175  0.3103 -0.1410
 6246TIP3    H140153   0.807   5.626   0.395 -0.3067 -0.0056 -0.8204
 6246TIP3    H240154   0.700   5.685   0.484  0.0924 -0.1671 -0.2303
 6247TIP3   OH240155   6.475   2.970  15.717 -0.2493  0.2873  0.0358
 6247TIP3    H140156   6.438   3.055  15.694 -0.5174  0.4284  0.9712
 6247TIP3    H240157   6.564   2.990  15.746 -0.5221  0.3267  0.8549
 6248TIP3   OH240158   6.335   6.300   3.646 -0.5061 -0.9031 -0.0267
 6248TIP3    H140159   6.372   6.380   3.609 -1.0796 -0.2755  0.7316
 6248TIP3    H240160   6.341   6.312   3.741 -3.0230 -0.5831  0.1398
 6249TIP3   OH240161   4.075   4.588   2.283  0.0373  0.5172 -0.2723
 6249TIP3    H140162   4.130   4.551   2.214  0.6055  0.3287  0.2719
 6249TIP3    H240163   4.023   4.654   2.239  0.5087  0.5097 -0.8547
 6250TIP3   OH240164   5.893   4.553   3.863 -0.1896 -0.3734 -0.5817
 6250TIP3    H140165   5.925   4.466   3.841  1.0796  0.2131 -1.1055
 6250TIP3    H240166   5.972   4.607   3.872 -0.8222  0.1944  2.1159
 6251TIP3   OH240167   4.130   3.436  16.985 -0.1986 -0.0430  0.9177
 6251TIP3    H140168   4.131   3.349  17.025  0.8541 -0.5789 -0.2207
 6251TIP3    H240169   4.129   3.497  17.059 -0.5262 -1.0170  1.7272
 6252TIP3   OH240170   2.332   5.872  14.556 -0.0902 -0.2039  0.3269
 6252TIP3    H140171   2.383   5.892  14.477  0.3511 -1.1133  0.3675
 6252TIP3    H240172   2.376   5.920  14.626 -1.0312  1.3410 -0.1291
 6253TIP3   OH240173   1.286   5.233   5.723  0.0846  0.0432 -0.5938
 6253TIP3    H140174   1.292   5.138   5.731 -0.0793  0.1610  1.0854
 6253TIP3    H240175   1.202   5.256   5.763  0.8535  1.0330  0.5087
 6254TIP3   OH240176   5.740   6.235  13.054  0.5438  0.1487  0.5056
 6254TIP3    H140177   5.688   6.316  13.060  1.2952  0.8777 -2.2203
 6254TIP3    H240178   5.823   6.257  13.096  0.7599  0.8157 -0.2629
 6255TIP3   OH240179   3.768   0.779   2.755  0.0180 -0.5420 -0.4414
 6255TIP3    H140180   3.702   0.753   2.819 -0.1810 -0.6175 -0.6747
 6255TIP3    H240181   3.718   0.817   2.683  0.0491 -2.6540 -1.6228
 6256TIP3   OH240182   5.456   2.977  13.377  0.2092  0.1906 -0.4808
 6256TIP3    H140183   5.369   2.988  13.339  0.4360  0.7616 -0.8388
 6256TIP3    H240184   5.514   3.027  13.319  0.4210  1.9386  1.2040
 6257TIP3   OH240185   3.301   5.887  10.706  0.1800  0.1799  0.6936
 6257TIP3    H140186   3.208   5.907  10.713 -0.0000 -1.2506  2.9544
 6257TIP3    H240187   3.305   5.803  10.662  0.5557  1.4119 -1.6931
 6258TIP3   OH240188   3.959   4.792   6.293 -0.1855  0.5985 -0.0271
 6258TIP3    H140189   3.868   4.816   6.309 -0.5618  0.1960 -1.4881
 6258TIP3    H240190   4.009   4.872   6.314 -0.7816  0.5947  1.4727
 6259TIP3   OH240191   5.122   3.879   1.520 -0.2233  0.3685 -0.7034
 6259TIP3    H140192   5.189   3.857   1.455 -0.8537  0.3182 -1.3433
 6259TIP3    H240193   5.044   3.831   1.492 -1.0507  1.8411 -0.9944
 6260TIP3   OH240194   1.786   0.326  11.286 -0.1769 -0.1050 -0.0970
 6260TIP3    H140195   1.693   0.333  11.311  0.3120  1.8833  1.2407
 6260TIP3    H240196   1.803   0.407  11.237  1.2445  0.2686  1.0050
 6261TIP3   OH240197   5.908   0.090   0.123  0.0029  0.0192  0.0855
 6261TIP3    H140198   5.908   0.026   0.194 -2.6534  0.8653  0.9254
 6261TIP3    H240199   5.880   0.041   0.046 -0.7367 -0.1232  0.4415
 6262TIP3   OH240200   5.786   6.251  13.837  0.1812 -0.1254  0.1360
 6262TIP3    H140201   5.707   6.267  13.888  1.0775  1.6297  1.0113
 6262TIP3    H240202   5.825   6.338  13.825  0.9262 -0.7178 -2.0022
 6263TIP3   OH240203   1.393   0.893  11.560 -0.1216 -0.0472 -0.3825
 6263TIP3    H140204   1.379   0.841  11.640 -2.3368  1.3457  0.1857
 6263TIP3    H240205   1.391   0.828  11.489 -1.0593 -0.9719  0.4545
 6264TIP3   OH240206   2.434   5.978   6.313  0.1955 -0.1521 -0.2612
 6264TIP3    H140207   2.504   5.936   6.364  0.4039  0.8785  0.3106
 6264TIP3    H240208   2.366   5.911   6.306  0.0011 -0.1872  1.7081
 6265TIP3   OH240209   4.520   6.528   4.825 -0.5773  0.3081 -0.0535
 6265TIP3    H140210   4.436   6.556   4.860 -1.4704  0.2596 -2.1267
 6265TIP3    H240211   4.533   6.581   4.747  1.2546  0.2011  0.1595
 6266TIP3   OH240212   4.396   1.661   4.805 -0.5181 -0.4364 -0.0688
 6266TIP3    H140213   4.465   1.685   4.743 -0.7129  3.4026  1.0928
 6266TIP3    H240214   4.443   1.620   4.877  0.2674 -0.1503 -0.4089
 6267TIP3   OH240215   4.661   1.296   0.310  0.3731  0.3090  0.3531
 6267TIP3    H140216   4.577   1.267   0.274  0.2311  0.8545  0.2527
 6267TIP3    H240217   4.701   1.216   0.345 -0.8041  0.3036  1.6886
 6268TIP3   OH240218   4.818   2.541   0.493 -0.0187 -0.2429 -0.3704
 6268TIP3    H140219   4.767   2.602   0.547  1.6785  0.3098  0.6699
 6268TIP3    H240220   4.886   2.595   0.454  0.9481 -1.3165 -0.1915
 6269TIP3   OH240221   2.126   0.080  11.299 -0.0469 -0.2672  0.2882
 6269TIP3    H140222   2.209   0.062  11.254  0.1029  0.1906  0.3745
 6269TIP3    H240223   2.064   0.019  11.260  0.1333 -0.0217 -0.3945
 6270TIP3   OH240224   5.624   2.784  14.393 -0.0681 -0.1449 -0.4374
 6270TIP3    H140225   5.612   2.790  14.488  0.8667 -0.4590 -0.2924
 6270TIP3    H240226   5.537   2.768  14.358 -1.0686  3.8628  0.0166
 6271TIP3   OH240227   5.876   3.439   1.945 -0.9856 -0.4420 -0.1986
 6271TIP3    H140228   5.807   3.423   2.010  0.3362 -0.5974  1.1793
 6271TIP3    H240229   5.865   3.531   1.921 -0.5882  0.0004  1.3005
 6272TIP3   OH240230   0.225   0.474   4.704 -0.1175 -0.0207  0.3153
 6272TIP3    H140231   0.163   0.520   4.761 -2.0188  0.0783 -1.7558
 6272TIP3    H240232   0.249   0.539   4.638  1.9668 -0.1660  0.9038
 6273TIP3   OH240233   1.876   6.216  11.902  0.0710 -0.2604 -0.2047
 6273TIP3    H140234   1.868   6.311  11.904  0.5464 -0.2166 -0.4463
 6273TIP3    H240235   1.904   6.192  11.990  2.0075  0.0064 -0.7247
 6274TIP3   OH240236   5.433   5.455   0.142 -0.4770 -0.4403  0.3254
 6274TIP3    H140237   5.490   5.441   0.217 -2.6465  1.5438  2.4218
 6274TIP3    H240238   5.421   5.550   0.139 -1.0511 -0.5503 -2.0852
 6275TIP3   OH240239   2.184   3.222   0.129  0.4894 -0.5015  0.1747
 6275TIP3    H140240   2.235   3.303   0.120  1.7133 -1.4413 -1.8017
 6275TIP3    H240241   2.116   3.243   0.193  0.0337  2.4441 -1.2099
 6276TIP3   OH240242   6.064   6.507   2.387  0.2850  0.2960 -0.4876
 6276TIP3    H140243   6.110   6.580   2.428  0.8618 -0.3150 -0.0207
 6276TIP3    H240244   5.973   6.537   2.379  0.3937  0.8418  0.2424
 6277TIP3   OH240245   1.326   4.031   5.287  0.1000  0.5425  0.1489
 6277TIP3    H140246   1.232   4.031   5.304 -0.0238  1.3585 -0.5224
 6277TIP3    H240247   1.337   3.977   5.208  0.4174 -1.1736  1.3186
 6278TIP3   OH240248   1.518   3.103  14.294 -0.1503  0.0916 -0.2568
 6278TIP3    H140249   1.471   3.113  14.211 -0.0898  1.3455 -0.1475
 6278TIP3    H240250   1.574   3.027  14.280 -0.1792  0.2616 -1.3590
 6279TIP3   OH240251   3.277   4.736  11.443 -0.1344  0.2877 -0.1333
 6279TIP3    H140252   3.208   4.710  11.504 -0.1536 -1.0368 -0.7098
 6279TIP3    H240253   3.298   4.656  11.395  0.5392  1.1013 -1.2094
 6280TIP3   OH240254   5.975   0.331  14.217  0.2076  0.0766  0.3648
 6280TIP3    H140255   5.972   0.426  14.209 -1.9115  0.0209  0.1196
 6280TIP3    H240256   5.941   0.314  14.305  0.7681 -0.4360  0.4795
 6281TIP3   OH240257   5.867   3.808  11.549 -0.4504  0.1927 -0.2744
 6281TIP3    H140258   5.885   3.882  11.491 -1.2070  0.0243 -0.7463
 6281TIP3    H240259   5.894   3.837  11.636  2.5275 -0.2536 -1.0188
 6282TIP3   OH240260   2.599   6.272   0.015 -0.9158 -0.1514 -0.3726
 6282TIP3    H140261   2.539   6.197   0.011 -0.1483 -0.6657 -2.7336
 6282TIP3    H240262   2.658   6.259  -0.058  0.7305  1.5275  0.6306
 6283TIP3   OH240263   4.327   3.417   1.221  0.6874 -0.0545 -0.0400
 6283TIP3    H140264   4.234   3.401   1.231  0.7951 -1.3524 -1.0086
 6283TIP3    H240265   4.360   3.426   1.310 -0.1549 -0.7700  0.3442
 6284TIP3   OH240266   0.227   1.509  14.513 -0.6260 -0.4661  0.3053
 6284TIP3    H140267   0.261   1.560  14.439  2.5836 -2.9449 -0.0047
 6284TIP3    H240268   0.237   1.567  14.588 -3.4976  1.9195 -1.0542
 6285TIP3   OH240269   3.828   1.299  10.997  0.3000  0.2009  0.3616
 6285TIP3    H140270   3.877   1.225  10.960  1.0128  0.6245  0.4523
 6285TIP3    H240271   3.837   1.289  11.091 -1.4150 -0.8065  0.4488
 6286TIP3   OH240272   1.438   0.032  14.246  0.5625 -0.0403 -0.0394
 6286TIP3    H140273   1.370  -0.035  14.254  1.3510 -0.6907  1.3941
 6286TIP3    H240274   1.474   0.019  14.158  0.1410 -0.9655 -0.0808
 6287TIP3   OH240275   6.499   6.080  13.911 -0.1998 -0.9089 -0.1702
 6287TIP3    H140276   6.519   5.987  13.914 -0.6775 -1.0210 -0.3414
 6287TIP3    H240277   6.416   6.088  13.958 -0.8710 -0.7766 -1.3331
 6288TIP3   OH240278   4.971   1.014   4.328  0.3839 -0.2992 -0.3049
 6288TIP3    H140279   4.984   1.028   4.422 -0.0470  0.2045 -0.3148
 6288TIP3    H240280   5.057   0.988   4.295  0.8101  0.6497  0.0264
 6289TIP3   OH240281   5.363   3.491  14.705 -0.1214  0.5331 -0.1524
 6289TIP3    H140282   5.365   3.395  14.708 -2.5102  0.4802  0.9932
 6289TIP3    H240283   5.404   3.518  14.787 -0.8410  0.4392  0.2460
 6290TIP3   OH240284   5.421   4.492  13.627  0.1628 -0.3334 -0.4805
 6290TIP3    H140285   5.327   4.478  13.639  0.1993 -1.8597 -1.8076
 6290TIP3    H240286   5.461   4.455  13.706 -0.4278  1.6190  0.7623
 6291TIP3   OH240287   3.532   6.059  10.929  0.9145  0.0526  0.3347
 6291TIP3    H140288   3.609   6.093  10.974  0.0667  2.0336  0.3325
 6291TIP3    H240289   3.529   6.109  10.847 -0.5764  0.2483  0.5047
 6292TIP3   OH240290   2.053   5.463   4.415 -0.0744 -0.4131 -0.7181
 6292TIP3    H140291   2.148   5.469   4.423 -0.2004  1.3686 -0.4919
 6292TIP3    H240292   2.029   5.531   4.353 -1.2272 -0.7699 -0.6821
 6293TIP3   OH240293   6.433   1.598  11.753  0.0116  0.1117  0.7064
 6293TIP3    H140294   6.502   1.658  11.726  0.2111 -0.5762 -0.3309
 6293TIP3    H240295   6.352   1.650  11.749  0.0764  0.1127 -0.9310
 6294TIP3   OH240296   2.784   2.841  11.525  0.3412 -0.3882  0.7406
 6294TIP3    H140297   2.762   2.752  11.553 -1.2556  0.1398  1.2111
 6294TIP3    H240298   2.710   2.894  11.554  0.8315  0.9413 -0.3922
 6295TIP3   OH240299   6.657   6.129  14.665  0.2556 -0.2776  0.1681
 6295TIP3    H140300   6.603   6.208  14.662  1.1630  0.3596  0.5550
 6295TIP3    H240301   6.594   6.057  14.668 -0.5914  0.5306  3.2761
 6296TIP3   OH240302   2.384   6.081   2.218 -0.2954  0.5184  0.3892
 6296TIP3    H140303   2.347   6.165   2.243  1.0171  0.8445  1.2817
 6296TIP3    H240304   2.479   6.093   2.225  0.0694 -0.0128 -2.7156
 6297TIP3   OH240305   1.525   3.430  16.170  0.0796 -0.1355  0.2300
 6297TIP3    H140306   1.538   3.354  16.113  0.7219 -0.3080  0.6039
 6297TIP3    H240307   1.590   3.419  16.240  1.3212  1.6281 -0.6139
 6298TIP3   OH240308   5.955   6.329  11.186 -0.3215 -0.2495  0.5167
 6298TIP3    H140309   5.890   6.335  11.116 -1.0680  0.0095  1.2251
 6298TIP3    H240310   6.032   6.374  11.150  0.0518 -2.0293 -0.9625
 6299TIP3   OH240311   6.133   1.200   1.287 -0.9128  0.0694 -0.6952
 6299TIP3    H140312   6.052   1.172   1.329 -0.1563 -0.0189  0.7640
 6299TIP3    H240313   6.117   1.290   1.261 -0.7981  0.7344  1.4529
 6300TIP3   OH240314   3.066   1.241   1.279 -1.1997  0.0758  0.6258
 6300TIP3    H140315   3.011   1.241   1.201 -0.0228 -2.9944 -0.2865
 6300TIP3    H240316   3.149   1.279   1.250 -0.8329 -0.8714  0.4241
 6301TIP3   OH240317   4.508   0.078   3.403 -0.1243  0.2565 -0.3806
 6301TIP3    H140318   4.554   0.079   3.487  0.3600 -0.9932 -0.6289
 6301TIP3    H240319   4.478   0.168   3.392 -2.2571 -0.0921  2.2492
 6302TIP3   OH240320   4.672   3.695  16.959 -0.1409  0.1102  0.4076
 6302TIP3    H140321   4.579   3.701  16.980 -0.9138 -0.7768 -2.4968
 6302TIP3    H240322   4.708   3.638  17.028 -1.8593 -0.0620  1.2030
 6303TIP3   OH240323   3.334   1.004  13.783 -0.4918 -0.3891 -0.0303
 6303TIP3    H140324   3.393   1.042  13.718 -0.4644 -1.3654 -0.5881
 6303TIP3    H240325   3.257   1.062  13.782 -0.7176 -0.7052 -1.3258
 6304TIP3   OH240326   4.673   4.966   4.890 -0.2219 -0.1164 -0.4658
 6304TIP3    H140327   4.733   4.984   4.962 -0.7359  0.6172 -0.2080
 6304TIP3    H240328   4.722   4.988   4.811 -0.2806  0.8685 -0.2352
 6305TIP3   OH240329   5.841   4.201  12.605 -0.3171  0.2565 -0.0239
 6305TIP3    H140330   5.863   4.228  12.694  1.2672 -1.7298  0.2288
 6305TIP3    H240331   5.821   4.107  12.612 -1.7314  0.4041 -1.5154
 6306TIP3   OH240332   6.109   3.550   3.871  0.5491 -0.3945 -0.3907
 6306TIP3    H140333   6.141   3.462   3.855 -0.8780 -0.5696 -2.3738
 6306TIP3    H240334   6.096   3.554   3.966  0.8548 -2.2187 -0.2566
 6307TIP3   OH240335   3.388   4.619   3.319 -0.0332 -0.2573  0.2716
 6307TIP3    H140336   3.347   4.701   3.345  0.0476  0.2157 -1.0464
 6307TIP3    H240337   3.378   4.562   3.395  0.0250  1.0060  1.2523
 6308TIP3   OH240338   1.088   4.276  12.612 -0.3900  0.0252  0.2615
 6308TIP3    H140339   1.153   4.207  12.622 -0.1320  0.3845  1.2030
 6308TIP3    H240340   1.078   4.287  12.518 -1.8801 -2.6527  0.0658
 6309TIP3   OH240341   5.590   1.346  14.103 -0.0306 -0.7968  0.0847
 6309TIP3    H140342   5.636   1.268  14.133  0.7452 -0.7112 -0.8618
 6309TIP3    H240343   5.627   1.364  14.016  0.3396  1.0608  0.6071
 6310TIP3   OH240344   3.975   2.149  11.829 -0.3562 -0.3985  0.3378
 6310TIP3    H140345   4.014   2.069  11.794 -0.5265  0.3331 -1.5907
 6310TIP3    H240346   3.898   2.164  11.773 -0.9788  0.4723  1.4222
 6311TIP3   OH240347   4.496   3.921  14.626 -0.1146  0.3336 -0.3242
 6311TIP3    H140348   4.431   3.965  14.681 -0.3039  0.4465 -0.6307
 6311TIP3    H240349   4.506   3.980  14.551 -1.1420 -0.6379 -1.2478
 6312TIP3   OH240350   3.031   4.466   0.309 -0.2224  0.1219  0.0757
 6312TIP3    H140351   3.087   4.515   0.368  0.4358 -0.2806 -0.2020
 6312TIP3    H240352   3.084   4.391   0.282 -0.7138 -0.0004 -0.5785
 6313TIP3   OH240353   2.376   2.309  14.802  0.1086  0.0376 -0.0934
 6313TIP3    H140354   2.282   2.320  14.790  0.2199  0.1742 -0.9296
 6313TIP3    H240355   2.385   2.261  14.883 -0.7112 -0.4813 -0.3080
 6314TIP3   OH240356   4.290   4.662  12.930  0.2012 -0.1896  0.4760
 6314TIP3    H140357   4.332   4.661  13.016 -2.1438  0.3492  1.6851
 6314TIP3    H240358   4.362   4.666  12.868  1.9067  2.3535  2.5018
 6315TIP3   OH240359   6.255   2.510  11.856 -0.0228  0.1870  0.2999
 6315TIP3    H140360   6.185   2.514  11.922 -0.5831 -0.8006 -0.2173
 6315TIP3    H240361   6.335   2.500  11.906 -0.4782 -0.8455  0.8194
 6316TIP3   OH240362   4.733   4.783  12.236  0.3962 -0.1985 -0.6704
 6316TIP3    H140363   4.694   4.865  12.207  0.1992 -0.4731 -1.1862
 6316TIP3    H240364   4.661   4.720  12.232  0.4107 -0.2796  0.2356
 6317TIP3   OH240365   4.359   5.447  13.569  0.2565  0.0573  0.0356
 6317TIP3    H140366   4.352   5.416  13.659  1.4956  0.2442  0.2108
 6317TIP3    H240367   4.293   5.516  13.562 -0.1417 -0.2538  0.6658
 6318TIP3   OH240368   1.578   1.676  12.933  0.1532  0.2254  0.3204
 6318TIP3    H140369   1.492   1.639  12.951  0.0487  0.6730  0.7563
 6318TIP3    H240370   1.561   1.769  12.915  0.4793  0.1963 -0.1428
 6319TIP3   OH240371   3.664   0.243   2.353  0.1990 -1.1109 -0.0682
 6319TIP3    H140372   3.689   0.186   2.426 -3.1756  0.3747  2.3917
 6319TIP3    H240373   3.601   0.191   2.303 -1.1072 -0.3889  0.8288
 6320TIP3   OH240374   0.220   2.956   1.474 -0.5202 -0.1982 -0.9642
 6320TIP3    H140375   0.136   3.002   1.472 -1.0680 -1.1978 -1.3725
 6320TIP3    H240376   0.196   2.863   1.472  0.5833 -0.4939 -0.6286
 6321TIP3   OH240377   4.336   5.305  11.936  0.2115 -0.4976 -0.1595
 6321TIP3    H140378   4.343   5.319  11.842 -3.5520  2.8520 -0.0781
 6321TIP3    H240379   4.402   5.363  11.974  0.0551 -0.0044 -0.6387
 6322TIP3   OH240380   4.642   0.524  13.961 -0.3677  0.4006 -0.2020
 6322TIP3    H140381   4.619   0.616  13.967 -0.3583  0.3895  0.0147
 6322TIP3    H240382   4.560   0.480  13.940 -0.2838  0.5086 -0.7601
 6323TIP3   OH240383   3.913   5.392  15.393 -0.0981 -0.1378 -0.6920
 6323TIP3    H140384   3.838   5.377  15.451 -0.2474 -0.2326 -0.9057
 6323TIP3    H240385   3.911   5.486  15.374 -0.6647 -0.2838 -1.3720
 6324TIP3   OH240386   2.242   4.165  16.764 -0.2153  0.0114 -0.0654
 6324TIP3    H140387   2.318   4.213  16.732 -0.7042  1.0260  0.2880
 6324TIP3    H240388   2.255   4.157  16.858 -1.6652  2.2705  0.3794
 6325TIP3   OH240389   6.297   4.203  14.616  0.1009  0.1780  0.4087
 6325TIP3    H140390   6.248   4.149  14.554  0.1820 -0.4695  0.9098
 6325TIP3    H240391   6.245   4.283  14.624 -1.7928 -1.2092  2.3028
 6326TIP3   OH240392   1.895   3.661  11.836  0.0454 -1.0506 -0.6617
 6326TIP3    H140393   1.967   3.699  11.787 -1.3714  0.4103 -1.6563
 6326TIP3    H240394   1.866   3.731  11.895 -1.7324 -0.9952 -1.5686
 6327TIP3   OH240395   4.157   3.920   4.353  0.2072 -0.4678 -0.3847
 6327TIP3    H140396   4.121   3.907   4.265  0.0255  1.3843 -0.6007
 6327TIP3    H240397   4.080   3.934   4.409  0.3152 -1.7572  0.0993
 6328TIP3   OH240398   6.658   5.518  11.323  0.6103  0.1057 -0.2591
 6328TIP3    H140399   6.696   5.464  11.392  0.6945  0.4669 -0.0197
 6328TIP3    H240400   6.576   5.551  11.360  1.3008  1.3794  0.1777
 6329TIP3   OH240401   0.447   2.598   3.371  1.0039 -0.1774  0.0647
 6329TIP3    H140402   0.453   2.690   3.397  0.0843 -0.1683  0.2708
 6329TIP3    H240403   0.525   2.557   3.409  0.8922  0.3130  0.8386
 6330TIP3   OH240404   3.842   2.417  10.433  0.4228  0.3763  0.5083
 6330TIP3    H140405   3.843   2.513  10.433 -0.2249  0.3864  1.5804
 6330TIP3    H240406   3.902   2.393  10.504 -1.6893  0.0403  2.2564
 6331TIP3   OH240407   5.145   2.893   1.981 -0.9265  0.2183 -0.2960
 6331TIP3    H140408   5.149   2.984   1.950 -0.7645 -0.3564 -2.0109
 6331TIP3    H240409   5.199   2.893   2.060 -1.8590  1.8542  0.3700
 6332TIP3   OH240410   3.116   6.315   5.914 -1.1334  0.0472 -0.4014
 6332TIP3    H140411   3.043   6.358   5.869 -1.2379 -0.8406 -1.0888
 6332TIP3    H240412   3.091   6.223   5.918 -0.1802 -0.2140 -0.3732
 6333TIP3   OH240413   6.768   2.831  16.248  0.6133  0.2472  0.5679
 6333TIP3    H140414   6.684   2.863  16.280  0.1493 -0.3886 -0.0095
 6333TIP3    H240415   6.761   2.836  16.153  1.3309  0.4552  0.5187
 6334TIP3   OH240416   2.218   0.554   2.401 -0.2974 -0.1699 -0.5362
 6334TIP3    H140417   2.291   0.606   2.433 -0.2240  0.2538 -1.3933
 6334TIP3    H240418   2.253   0.465   2.395  0.1740  0.0418 -1.0102
 6335TIP3   OH240419   3.089   2.128   6.173  0.4679  0.3286 -0.4803
 6335TIP3    H140420   3.080   2.051   6.228  1.5201 -0.1549 -0.9618
 6335TIP3    H240421   3.009   2.178   6.187 -0.0821 -0.6999  0.0674
 6336TIP3   OH240422   0.618   1.628   5.373  0.3305  0.4731  0.0870
 6336TIP3    H140423   0.624   1.622   5.468  1.3953  0.0874  0.0081
 6336TIP3    H240424   0.549   1.693   5.357 -0.1684  0.2036  1.1098
 6337TIP3   OH240425   4.005   2.334   0.847  0.1896 -0.1440  0.1112
 6337TIP3    H140426   4.083   2.387   0.830 -1.7934  3.3314  1.3215
 6337TIP3    H240427   3.959   2.332   0.763 -0.0370  0.6415  0.2090
 6338TIP3   OH240428   0.592   1.491   2.818 -0.1804  1.0295 -0.2173
 6338TIP3    H140429   0.630   1.549   2.752 -0.0906  0.0207 -1.0659
 6338TIP3    H240430   0.552   1.420   2.768  1.8415 -0.9401  0.8430
 6339TIP3   OH240431   0.456   3.229  12.544  0.4831  0.1472  0.3454
 6339TIP3    H140432   0.486   3.138  12.542  0.5103  0.1748 -0.4977
 6339TIP3    H240433   0.364   3.225  12.519  0.4324  0.3391  0.4972
 6340TIP3   OH240434   2.945   3.056   3.433 -0.2412  0.6788 -0.0077
 6340TIP3    H140435   2.898   2.990   3.382  0.3479 -1.0353  1.6112
 6340TIP3    H240436   3.037   3.036   3.420  0.0628  3.0283 -1.8550
 6341TIP3   OH240437   5.338   0.239   2.776  0.1587  0.0099 -0.1108
 6341TIP3    H140438   5.346   0.322   2.824  1.3313 -1.7072  2.7374
 6341TIP3    H240439   5.262   0.196   2.814 -0.6796 -0.1187 -1.8556
 6342TIP3   OH240440   5.616   5.103   1.126 -0.2820  0.5579 -0.0733
 6342TIP3    H140441   5.632   5.034   1.062 -0.0926  1.8657 -1.4747
 6342TIP3    H240442   5.674   5.175   1.100 -1.0921  1.5696  0.8249
 6343TIP3   OH240443   5.107   5.858  13.780 -0.4356 -0.0252 -0.5546
 6343TIP3    H140444   5.184   5.804  13.798  0.3865  1.3810  0.2395
 6343TIP3    H240445   5.118   5.887  13.690  0.7020  1.3145 -0.0017
 6344TIP3   OH240446   1.824   6.145  15.892 -0.2501 -0.2789 -0.1907
 6344TIP3    H140447   1.879   6.204  15.840  0.7046 -0.8623  0.1467
 6344TIP3    H240448   1.780   6.090  15.828 -1.1901  0.8159 -0.5129
 6345TIP3   OH240449   2.044   2.532  10.865  0.2804  0.3686  0.1454
 6345TIP3    H140450   2.121   2.580  10.837  0.0665  0.3470 -0.4822
 6345TIP3    H240451   1.985   2.600  10.898 -0.0268  0.5459 -0.7529
 6346TIP3   OH240452   4.070   4.798  15.753  0.2411  0.3118  0.0521
 6346TIP3    H140453   4.016   4.720  15.766  1.2271 -0.2780  0.6755
 6346TIP3    H240454   4.084   4.801  15.658 -2.2748  1.4354 -0.3243
 6347TIP3   OH240455   1.800   5.789  11.247  0.5240  0.2531 -0.2230
 6347TIP3    H140456   1.752   5.778  11.328  1.3276  0.4801  0.2906
 6347TIP3    H240457   1.886   5.749  11.263 -0.1762 -2.0398 -1.8186
 6348TIP3   OH240458   1.081   5.353   0.566  0.6154  0.2321  0.8117
 6348TIP3    H140459   1.091   5.321   0.656  0.6051  0.7104  0.9884
 6348TIP3    H240460   1.126   5.438   0.567  0.5980  0.2437  0.3695
 6349TIP3   OH240461   4.886   2.854  13.758  0.1553  0.1178  0.2930
 6349TIP3    H140462   4.807   2.908  13.754  0.3333  0.4836  1.5302
 6349TIP3    H240463   4.926   2.865  13.672 -0.3795  1.1022  0.1574
 6350TIP3   OH240464   2.996   3.684  15.140 -0.0853  0.2873  0.3002
 6350TIP3    H140465   3.017   3.722  15.225 -0.8579  2.2680 -0.3381
 6350TIP3    H240466   2.992   3.760  15.081  0.1803 -1.0192 -1.4355
 6351TIP3   OH240467   6.401   4.407  14.375  0.4088 -0.2847  0.0425
 6351TIP3    H140468   6.321   4.367  14.409  0.1182 -1.0963 -1.5637
 6351TIP3    H240469   6.464   4.400  14.447 -1.2204  1.2201  1.6673
 6352TIP3   OH240470   0.513   5.135  13.858 -0.0554 -0.3102  0.6970
 6352TIP3    H140471   0.557   5.054  13.883 -0.4364  0.0042  2.5169
 6352TIP3    H240472   0.576   5.204  13.879  0.0268 -0.0887 -0.2581
 6353TIP3   OH240473   0.260   2.857   3.659  0.9985 -0.1892 -0.3340
 6353TIP3    H140474   0.202   2.837   3.585 -1.1323 -0.3225  1.3266
 6353TIP3    H240475   0.316   2.781   3.667  0.9536 -0.3663 -1.5322
 6354TIP3   OH240476   4.853   1.538   5.588  0.6963  0.1144 -0.3027
 6354TIP3    H140477   4.880   1.447   5.572 -0.3278 -0.1505 -0.5561
 6354TIP3    H240478   4.760   1.540   5.564  0.5202  1.0420  0.4279
 6355TIP3   OH240479   4.335   5.102   3.696 -0.5667  0.1235  0.2915
 6355TIP3    H140480   4.321   5.138   3.608  3.0423 -2.5615 -1.5065
 6355TIP3    H240481   4.417   5.141   3.726 -0.8191 -0.3809  1.6827
 6356TIP3   OH240482   4.697   2.957   5.514 -0.0054  0.1919  0.2348
 6356TIP3    H140483   4.791   2.954   5.495  0.0663  1.2123  0.4115
 6356TIP3    H240484   4.691   2.992   5.602 -0.5219 -0.7340  0.5753
 6357TIP3   OH240485   1.257   6.651  11.306 -0.5030  0.1638 -0.0165
 6357TIP3    H140486   1.298   6.671  11.222 -0.7362 -0.7879 -0.3710
 6357TIP3    H240487   1.323   6.600  11.353 -0.5823  0.2192  0.1555
 6358TIP3   OH240488   3.876   5.167   1.516  0.2228  0.0084 -0.5625
 6358TIP3    H140489   3.853   5.094   1.459 -0.4267  0.7798 -1.2815
 6358TIP3    H240490   3.972   5.174   1.508  0.4920 -1.7451  0.7132
 6359TIP3   OH240491   1.262   4.767   2.954 -0.2123  0.0221 -0.1398
 6359TIP3    H140492   1.309   4.716   3.021  0.2469  0.7003  0.0609
 6359TIP3    H240493   1.192   4.709   2.925 -0.5699 -0.1801  1.1115
 6360TIP3   OH240494   3.089   5.228   6.452 -0.1768  0.2808  0.2234
 6360TIP3    H140495   2.997   5.254   6.446  0.0785  1.2848  0.6352
 6360TIP3    H240496   3.089   5.136   6.425 -0.9840  0.8701 -1.8986
 6361TIP3   OH240497   4.530   2.383   1.777  0.3864 -0.0900 -0.1594
 6361TIP3    H140498   4.508   2.302   1.824 -2.9429 -0.3470 -1.9738
 6361TIP3    H240499   4.492   2.452   1.831 -3.3694 -0.3800 -2.1911
 6362TIP3   OH240500   0.341   0.322   0.067 -0.2164  0.2062 -0.4266
 6362TIP3    H140501   0.260   0.341   0.020 -0.3065  0.8041 -0.0296
 6362TIP3    H240502   0.410   0.360   0.013 -0.1208 -0.9008 -1.1204
 6363TIP3   OH240503   6.382   6.135  13.629 -0.1614  0.5017 -0.2324
 6363TIP3    H140504   6.393   6.230  13.622 -1.6707  0.6500 -0.6901
 6363TIP3    H240505   6.414   6.114  13.716  2.5279  1.0743 -1.0195
 6364TIP3   OH240506   2.142   2.662  16.083 -0.0727 -0.6021  0.0418
 6364TIP3    H140507   2.208   2.727  16.106 -0.2063 -0.5999  0.4255
 6364TIP3    H240508   2.133   2.669  15.988 -0.5322  0.3572  0.1555
 6365TIP3   OH240509   4.719   1.140  16.893  0.1005  0.5208 -0.2620
 6365TIP3    H140510   4.713   1.235  16.903  1.8074  0.4429  1.8648
 6365TIP3    H240511   4.636   1.107  16.927  0.4108  1.1312  1.0998
 6366TIP3   OH240512   2.511   3.092  15.315  0.0904  0.0641 -0.2776
 6366TIP3    H140513   2.569   3.161  15.283 -0.4487  1.4762  1.6795
 6366TIP3    H240514   2.424   3.116  15.280 -0.1364  0.4995  0.5857
 6367TIP3   OH240515   4.825   1.879  12.167  0.4952 -0.2537 -0.0135
 6367TIP3    H140516   4.755   1.919  12.220  0.7482 -0.4297  0.4596
 6367TIP3    H240517   4.782   1.849  12.088  0.3515  1.2744 -0.5388
 6368TIP3   OH240518   5.942   6.515  11.768  0.1810  0.1546 -0.0208
 6368TIP3    H140519   5.869   6.456  11.786  0.7256  0.0108  1.8377
 6368TIP3    H240520   6.020   6.468  11.798  0.7705  1.2858  0.2818
 6369TIP3   OH240521   4.826   4.217   2.983  0.1208  0.1659 -0.0446
 6369TIP3    H140522   4.749   4.162   2.991 -1.9737  3.2045  1.7162
 6369TIP3    H240523   4.886   4.185   3.050 -1.2332  0.2271  1.2189
 6370TIP3   OH240524   1.841   4.731  12.451  0.0636  0.2399  0.3109
 6370TIP3    H140525   1.919   4.759  12.498 -0.4123  1.1784  0.5582
 6370TIP3    H240526   1.869   4.654  12.401  1.7409  1.8602 -1.3445
 6371TIP3   OH240527   0.415   0.884  10.844  0.1448 -0.5478 -0.2002
 6371TIP3    H140528   0.410   0.949  10.914  0.0315  0.1664 -0.8532
 6371TIP3    H240529   0.375   0.805  10.880 -2.2934  0.5947 -0.3238
 6372TIP3   OH240530   0.013   2.557   6.160 -0.5576  0.0879 -0.3037
 6372TIP3    H140531  -0.008   2.628   6.099 -0.8872 -0.0180 -0.3137
 6372TIP3    H240532   0.095   2.521   6.128 -0.7621 -0.0095 -0.7214
 6373TIP3   OH240533   5.817   5.548   3.730 -0.6182 -0.6418 -0.2604
 6373TIP3    H140534   5.896   5.496   3.718  0.9145  1.5737 -0.0305
 6373TIP3    H240535   5.807   5.556   3.825 -0.8892 -0.5737 -0.2917
 6374TIP3   OH240536   1.651   3.265  17.017  0.1473  0.3303 -0.3268
 6374TIP3    H140537   1.655   3.339  16.955  0.9332 -0.2112 -0.9393
 6374TIP3    H240538   1.740   3.231  17.018 -0.1524 -0.4331  0.1731
 6375TIP3   OH240539   4.214   4.799   2.934  0.1288 -0.2189 -0.3426
 6375TIP3    H140540   4.248   4.875   2.886  0.2079  0.0747  0.1760
 6375TIP3    H240541   4.279   4.783   3.003 -0.6236  0.1426  0.4515
 6376TIP3   OH240542   5.145   1.466   2.025 -0.0315  0.2150  0.3371
 6376TIP3    H140543   5.206   1.473   1.952 -0.1034  2.3246  0.4484
 6376TIP3    H240544   5.201   1.454   2.102  0.2212  1.0910  0.3043
 6377TIP3   OH240545   4.085   2.900  16.554 -0.1222  0.4828  0.2021
 6377TIP3    H140546   4.029   2.972  16.582 -1.1508 -0.9108  1.8505
 6377TIP3    H240547   4.025   2.833  16.521  0.7124 -0.1448 -0.0768
 6378TIP3   OH240548   1.021   1.125  15.629 -0.4700  0.1972 -0.1262
 6378TIP3    H140549   1.094   1.183  15.652 -0.8872  0.0909  1.5576
 6378TIP3    H240550   1.008   1.139  15.535  1.4180  0.5422 -0.3495
 6379TIP3   OH240551   0.357   3.507   5.647  0.7323  0.2030  0.0427
 6379TIP3    H140552   0.326   3.487   5.559  0.0064  1.7217 -0.0516
 6379TIP3    H240553   0.440   3.460   5.654  0.9642  0.3546 -1.5729
 6380TIP3   OH240554   1.244   5.513   1.680 -0.4796  0.7311  0.0471
 6380TIP3    H140555   1.285   5.599   1.683  3.3165 -1.0486  1.5002
 6380TIP3    H240556   1.256   5.484   1.590  1.1927  0.3696  0.3776
 6381TIP3   OH240557   3.346   4.033  13.221  0.1036 -0.1375  0.0805
 6381TIP3    H140558   3.270   4.090  13.212  0.2525 -0.0622 -0.7105
 6381TIP3    H240559   3.420   4.087  13.195  0.2439 -0.6907 -0.6821
 6382TIP3   OH240560   3.792   3.645   5.603 -0.2555  0.1770 -0.2038
 6382TIP3    H140561   3.762   3.586   5.672 -0.3870 -0.6404 -0.9527
 6382TIP3    H240562   3.713   3.687   5.570 -0.2628  0.0901 -0.2962
 6383TIP3   OH240563   0.939   1.228  13.463 -0.3576  0.2323  0.0887
 6383TIP3    H140564   0.856   1.214  13.418 -0.9678  1.6063  0.7666
 6383TIP3    H240565   0.942   1.158  13.529  0.1330 -1.2479 -1.4567
 6384TIP3   OH240566   5.350   4.850   3.873 -0.0062  0.1082 -0.6203
 6384TIP3    H140567   5.325   4.909   3.801  1.1432  1.2843 -0.0688
 6384TIP3    H240568   5.445   4.845   3.868  0.0583 -0.0400  0.6279
 6385TIP3   OH240569   2.526   5.862  15.700  0.2795 -0.2477 -0.3303
 6385TIP3    H140570   2.528   5.808  15.620 -1.3857 -0.0607 -0.5049
 6385TIP3    H240571   2.617   5.891  15.711  0.9526 -2.0448 -0.9483
 6386TIP3   OH240572   0.774   5.834  14.141  0.4341  0.7267 -0.1386
 6386TIP3    H140573   0.739   5.800  14.223 -0.7441  0.1940 -0.8496
 6386TIP3    H240574   0.813   5.757  14.098 -1.5222  0.4075 -1.3857
 6387TIP3   OH240575   2.423   2.714  14.084  0.2262  0.5989  0.0634
 6387TIP3    H140576   2.443   2.765  14.162 -1.9963  0.5771  0.6857
 6387TIP3    H240577   2.392   2.630  14.117 -1.6328  0.9262 -0.8004
 6388TIP3   OH240578   3.264   5.130  11.959 -0.7075  0.2023 -0.1425
 6388TIP3    H140579   3.207   5.066  11.916 -0.0380  0.2593 -1.1330
 6388TIP3    H240580   3.206   5.179  12.017 -1.0396 -2.0096  1.4417
 6389TIP3   OH240581   2.331   1.959  14.414 -0.5598  0.1124 -0.0259
 6389TIP3    H140582   2.390   2.020  14.370 -0.4813  0.1611  0.1481
 6389TIP3    H240583   2.310   2.001  14.497 -0.9183  0.1424 -0.1286
 6390TIP3   OH240584   4.298   6.316  16.958  0.2132 -0.1343 -0.2903
 6390TIP3    H140585   4.286   6.369  16.879 -2.4209 -0.7865 -0.3824
 6390TIP3    H240586   4.298   6.226  16.927 -2.0402 -0.4519  0.5352
 6391TIP3   OH240587   5.050   4.441   5.810 -0.0180  0.0226 -0.5658
 6391TIP3    H140588   5.115   4.392   5.861 -0.1150 -0.9861 -1.3928
 6391TIP3    H240589   5.077   4.532   5.818  0.2584 -0.1700  0.8781
 6392TIP3   OH240590   0.556   0.487  17.178 -0.0157 -0.1460 -0.0776
 6392TIP3    H140591   0.614   0.563  17.177 -0.9961  0.6115 -0.2574
 6392TIP3    H240592   0.612   0.413  17.152  0.6540  0.7249 -1.1649
 6393TIP3   OH240593   5.180   4.785   6.609  0.0556  0.7043  0.0497
 6393TIP3    H140594   5.261   4.837   6.618  0.2642  1.1312 -3.4059
 6393TIP3    H240595   5.110   4.844   6.636  0.6484  1.3417  0.2028
 6394TIP3   OH240596   3.146   3.776  16.977 -0.6726 -0.7984  0.2251
 6394TIP3    H140597   3.184   3.690  16.998  0.0807 -0.7902 -1.0810
 6394TIP3    H240598   3.142   3.821  17.061  2.0382 -0.8847  0.4447
 6395TIP3   OH240599   1.913   2.290   0.135  0.5103  0.1435  0.1235
 6395TIP3    H140600   1.888   2.379   0.158 -1.0548 -0.5198  1.0779
 6395TIP3    H240601   1.912   2.242   0.218 -2.7573 -1.7035 -0.8948
 6396TIP3   OH240602   0.869   3.766   5.487 -0.1656 -0.0025  0.3220
 6396TIP3    H140603   0.781   3.801   5.484  0.1454  0.6884 -1.3774
 6396TIP3    H240604   0.878   3.731   5.576 -1.5645  1.3868  1.0441
 6397TIP3   OH240605   6.078   6.735  11.653  0.3151  0.5884 -0.2458
 6397TIP3    H140606   6.101   6.786  11.731 -0.2989 -0.0589  0.3575
 6397TIP3    H240607   6.034   6.657  11.687  1.8455 -0.6822 -1.1272
 6398TIP3   OH240608   6.269   0.359   1.330 -0.1193  0.2885  0.4080
 6398TIP3    H140609   6.254   0.399   1.416 -0.1431  0.5761  0.2687
 6398TIP3    H240610   6.185   0.319   1.308 -0.9768  2.6691 -0.7795
 6399TIP3   OH240611   0.442   5.650  15.290 -0.2012  0.2243 -0.3341
 6399TIP3    H140612   0.451   5.738  15.254  0.3321 -0.0838 -0.9593
 6399TIP3    H240613   0.422   5.664  15.383 -2.7187  1.0588 -0.9464
 6400TIP3   OH240614   3.606   1.940   1.735 -0.7850  0.6302 -0.4207
 6400TIP3    H140615   3.636   1.850   1.726 -1.0667  0.5470 -0.5059
 6400TIP3    H240616   3.516   1.939   1.704 -0.5293  1.1022 -1.1957
 6401TIP3   OH240617   5.522   2.856  13.753 -0.3370 -0.7276 -0.1616
 6401TIP3    H140618   5.608   2.895  13.741 -1.0281  1.5016  1.8396
 6401TIP3    H240619   5.525   2.817  13.841 -1.8765  0.8679  0.6381
 6402TIP3   OH240620   4.495   5.197   3.332 -0.5045  0.7415 -0.4789
 6402TIP3    H140621   4.518   5.290   3.328 -0.1819  0.6695 -0.3009
 6402TIP3    H240622   4.402   5.196   3.356 -0.5269  1.0206 -0.5585
 6403TIP3   OH240623   1.241   2.680   3.078  0.0877 -0.5919 -0.1980
 6403TIP3    H140624   1.168   2.720   3.032  2.1990  1.5526 -1.7512
 6403TIP3    H240625   1.213   2.589   3.092 -1.7018 -0.5881 -3.3084
 6404TIP3   OH240626   4.784   6.468   4.972  0.0713  0.0965 -0.8409
 6404TIP3    H140627   4.715   6.528   4.944 -0.4472 -0.2529 -0.3182
 6404TIP3    H240628   4.776   6.464   5.067  0.2606 -0.5994 -0.8459
 6405TIP3   OH240629   1.829   5.108  16.236 -0.5908  0.8627  0.2877
 6405TIP3    H140630   1.820   5.064  16.152  0.6880 -1.2412  1.2210
 6405TIP3    H240631   1.760   5.071  16.291 -0.1013  0.6803  0.7883
 6406TIP3   OH240632   3.033   0.715   3.183  0.0942  0.4200 -0.0234
 6406TIP3    H140633   2.977   0.686   3.111  0.7186  2.5814 -1.4435
 6406TIP3    H240634   2.972   0.732   3.255 -0.3840 -3.1452  0.4613
 6407TIP3   OH240635   0.032   3.679  12.656 -0.0127 -0.1399  0.2278
 6407TIP3    H140636   0.108   3.640  12.699 -1.1276  0.9979  3.4101
 6407TIP3    H240637  -0.035   3.611  12.659 -0.6940  0.5599  2.1664
 6408TIP3   OH240638   5.179   6.014   4.826 -0.6984 -0.4539  0.3858
 6408TIP3    H140639   5.204   6.106   4.837 -0.4665 -0.4850  0.1152
 6408TIP3    H240640   5.180   5.979   4.915 -0.9360 -0.1558  0.5063
 6409TIP3   OH240641   0.981   2.761   0.772  0.5061  0.3677 -0.1002
 6409TIP3    H140642   0.895   2.725   0.751 -0.2249  0.7521  2.1611
 6409TIP3    H240643   1.033   2.686   0.800  0.2079  0.4621  0.7173
 6410TIP3   OH240644   0.984   6.204   3.529 -0.1781 -0.4203 -0.5511
 6410TIP3    H140645   0.994   6.295   3.555 -1.2639 -0.5677  0.4307
 6410TIP3    H240646   1.001   6.204   3.434  0.2976  0.7077 -0.4700
 6411TIP3   OH240647   0.206   0.780  16.880 -0.3411 -0.2558  0.2671
 6411TIP3    H140648   0.150   0.801  16.804  0.7271 -0.2073 -0.5177
 6411TIP3    H240649   0.164   0.824  16.953 -0.0096  1.8066 -0.7458
 6412TIP3   OH240650   2.564   1.838   0.519 -0.4644 -0.3212 -0.2874
 6412TIP3    H140651   2.549   1.745   0.503 -1.7425  0.0225 -1.1545
 6412TIP3    H240652   2.617   1.840   0.599  1.9104 -1.8846 -1.7582
 6413TIP3   OH240653   3.575   1.681   5.544  0.1631  0.0996  0.0498
 6413TIP3    H140654   3.489   1.642   5.562 -0.0900  1.1976  1.3134
 6413TIP3    H240655   3.556   1.773   5.525  0.7858 -0.2716 -2.5811
 6414TIP3   OH240656   1.960   1.031  11.001 -0.0225  0.1753 -0.1912
 6414TIP3    H140657   1.956   1.122  10.970  2.4949  0.7450  1.0841
 6414TIP3    H240658   2.041   0.996  10.965  1.1905 -0.2279  2.7820
 6415TIP3   OH240659   1.482   1.219   3.412  0.3958 -0.8929 -0.2282
 6415TIP3    H140660   1.497   1.215   3.317  2.9969 -2.5206  0.2142
 6415TIP3    H240661   1.520   1.301   3.440 -1.3015  0.0901 -0.7089
 6416TIP3   OH240662   6.075   1.939   5.246  0.3179 -0.3851 -0.1222
 6416TIP3    H140663   6.030   1.931   5.162 -0.0645 -1.2192  0.1577
 6416TIP3    H240664   6.049   2.025   5.280 -2.4884 -1.5735  0.8567
 6417TIP3   OH240665   1.669   2.914   3.809  0.0129  0.1079 -0.2554
 6417TIP3    H140666   1.623   2.881   3.886  0.3821  1.6509  0.6500
 6417TIP3    H240667   1.761   2.897   3.827 -0.0144 -0.9227 -1.0571
 6418TIP3   OH240668   2.201   0.356  13.462  0.4789 -0.7824 -0.4522
 6418TIP3    H140669   2.146   0.294  13.510  1.1269 -0.6052  0.5474
 6418TIP3    H240670   2.146   0.434  13.451  0.7404 -0.3352  1.1773
 6419TIP3   OH240671   4.304   2.862  14.201 -0.5212 -0.2152 -0.1569
 6419TIP3    H140672   4.359   2.881  14.125  0.1265 -1.0416  0.0951
 6419TIP3    H240673   4.228   2.816  14.164 -0.4694 -0.1345 -0.3646
 6420TIP3   OH240674   5.440   6.192  16.565 -0.7443  0.2837  0.3975
 6420TIP3    H140675   5.531   6.187  16.536 -0.9700  0.5721 -0.3732
 6420TIP3    H240676   5.416   6.102  16.586 -0.0067  0.3235  1.4805
 6421TIP3   OH240677   5.780   5.329   1.202 -0.4667 -0.0192 -0.3082
 6421TIP3    H140678   5.871   5.339   1.228 -0.5728  4.0558 -1.1475
 6421TIP3    H240679   5.734   5.309   1.284  0.8862  0.0233  0.4772
 6422TIP3   OH240680   1.738   3.196   1.347 -0.1595  0.2719 -0.1978
 6422TIP3    H140681   1.798   3.259   1.308  1.0262 -1.1675 -0.7221
 6422TIP3    H240682   1.789   3.116   1.355 -1.5673 -0.5455  0.7265
 6423TIP3   OH240683   3.721   4.406  15.483  1.0583  0.2336 -0.1085
 6423TIP3    H140684   3.765   4.489  15.500  2.1152  0.2686 -2.7286
 6423TIP3    H240685   3.791   4.345  15.462  0.3184 -1.4702  2.1748
 6424TIP3   OH240686   1.606   6.440   4.519 -0.3343  0.0616  0.0492
 6424TIP3    H140687   1.583   6.520   4.565 -0.7348  0.5690 -1.0233
 6424TIP3    H240688   1.553   6.372   4.561 -0.6511  0.5039  0.3656
 6425TIP3   OH240689   4.937   0.896   1.562  0.4183 -0.2917 -0.1756
 6425TIP3    H140690   4.985   0.823   1.601 -0.7754 -0.8970  0.1948
 6425TIP3    H240691   4.851   0.860   1.541 -0.2510  1.0544  0.1712
 6426TIP3   OH240692   6.117   0.031  12.323 -0.7635  0.0684  0.3856
 6426TIP3    H140693   6.179  -0.042  12.330  0.0411  0.8341  1.3610
 6426TIP3    H240694   6.056   0.003  12.255 -0.5678 -1.5970  0.8509
 6427TIP3   OH240695   4.045   0.298  11.643 -0.2072  0.3856 -0.0709
 6427TIP3    H140696   4.011   0.255  11.722  0.2033 -0.3458 -0.2933
 6427TIP3    H240697   4.139   0.306  11.658  0.1693 -1.4346 -1.2626
 6428TIP3   OH240698   0.047   0.017   4.187 -0.3091 -0.2800 -0.6303
 6428TIP3    H140699  -0.026  -0.007   4.130 -1.1744 -0.5964  0.6007
 6428TIP3    H240700   0.090  -0.066   4.207 -0.3340 -0.2318 -0.3802
 6429TIP3   OH240701   3.231   1.014  14.124 -0.2996  0.3800 -0.1601
 6429TIP3    H140702   3.161   0.981  14.181  1.3379 -2.9882  0.0160
 6429TIP3    H240703   3.253   0.940  14.067  4.4114  0.6266  1.0977
 6430TIP3   OH240704   4.491   4.680  12.723 -0.2530  0.1088 -0.3291
 6430TIP3    H140705   4.529   4.691  12.636 -1.5380 -0.1624 -0.9403
 6430TIP3    H240706   4.566   4.663  12.780  0.6280  0.5666 -1.3313
 6431TIP3   OH240707   0.139   0.066   1.779 -0.0727 -0.3205 -0.0400
 6431TIP3    H140708   0.164  -0.021   1.746 -0.3852 -0.5014  0.2062
 6431TIP3    H240709   0.043   0.067   1.776 -0.0388  0.7198 -1.8760
 6432TIP3   OH240710   2.190   2.778  13.216  0.6744 -0.1281 -0.3153
 6432TIP3    H140711   2.253   2.757  13.284  0.2980  0.7452  0.3215
 6432TIP3    H240712   2.115   2.722  13.235  0.6242  0.0149 -0.0828
 6433TIP3   OH240713   6.479   1.075  10.870 -0.3236 -0.3539  0.2915
 6433TIP3    H140714   6.534   1.069  10.792  0.4866 -2.0646  0.9611
 6433TIP3    H240715   6.402   1.021  10.849 -1.4238  1.4025 -0.3440
 6434TIP3   OH240716   4.455   5.656  14.705 -0.1984 -0.1881  0.1476
 6434TIP3    H140717   4.410   5.708  14.772  1.3114  0.6456  0.5315
 6434TIP3    H240718   4.425   5.694  14.622 -1.6073 -0.8352  0.3354
 6435TIP3   OH240719   5.380   0.913   1.592 -0.0856  0.2962  0.0406
 6435TIP3    H140720   5.376   0.998   1.549 -1.9544  0.5182  0.6180
 6435TIP3    H240721   5.306   0.864   1.556 -0.4938 -0.2086  1.5189
 6436TIP3   OH240722   2.282   3.194  14.862 -0.5206 -0.5740  0.5207
 6436TIP3    H140723   2.256   3.261  14.798 -1.2710 -1.4193 -0.0642
 6436TIP3    H240724   2.201   3.148  14.883  0.2066 -2.1345 -0.0412
 6437TIP3   OH240725   0.463   5.355  15.277 -0.5751 -0.0043  0.2014
 6437TIP3    H140726   0.557   5.337  15.285 -0.6109  0.1984  1.2117
 6437TIP3    H240727   0.457   5.450  15.276 -0.7916 -0.0137  0.4808
 6438TIP3   OH240728   0.559   4.684   0.632 -0.0772  0.0830 -0.2240
 6438TIP3    H140729   0.526   4.763   0.590 -0.1220 -0.6036 -1.4689
 6438TIP3    H240730   0.518   4.611   0.586  1.5622 -0.7260 -0.4624
 6439TIP3   OH240731   0.966   5.499   2.801  0.2552  0.6676  0.3604
 6439TIP3    H140732   0.877   5.465   2.792 -0.0265  1.6991 -0.9418
 6439TIP3    H240733   1.010   5.437   2.859 -1.2320  0.0017  0.7953
 6440TIP3   OH240734   6.760   5.384  10.067 -0.6495 -0.2141 -0.5417
 6440TIP3    H140735   6.793   5.451  10.127  0.3599  1.7112 -3.1778
 6440TIP3    H240736   6.667   5.375  10.091 -0.3199  0.6119  1.1820
 6441TIP3   OH240737   0.481   6.669  14.226 -0.4536 -0.0547  0.0906
 6441TIP3    H140738   0.478   6.592  14.283  2.0344 -0.9360 -0.9139
 6441TIP3    H240739   0.530   6.734  14.276 -0.4773  0.0498 -0.0240
 6442TIP3   OH240740   1.749   5.598   4.810 -0.1302  0.4897 -0.7810
 6442TIP3    H140741   1.730   5.514   4.851  3.0935 -0.9046 -2.0069
 6442TIP3    H240742   1.751   5.660   4.883 -0.4412 -0.8684  0.4054
 6443TIP3   OH240743   5.250   6.541  16.674 -0.4649  0.3769  0.6930
 6443TIP3    H140744   5.242   6.614  16.736 -3.8718  0.3405  0.3603
 6443TIP3    H240745   5.249   6.463  16.730 -0.3053  0.4459  0.7952
 6444TIP3   OH240746   0.237   2.787  13.930 -0.5272 -0.0341  0.2223
 6444TIP3    H140747   0.187   2.724  13.982 -0.1134 -0.0446  0.6086
 6444TIP3    H240748   0.221   2.761  13.839 -0.4282 -0.6513  0.3761
 6445TIP3   OH240749   1.090   4.342   5.384  0.0847 -0.3129 -0.0893
 6445TIP3    H140750   1.083   4.392   5.302  0.2331 -0.7943 -0.3941
 6445TIP3    H240751   1.146   4.396   5.439  0.1353 -0.0725 -0.3718
 6446TIP3   OH240752   4.014   5.995  16.380 -0.3587  0.6638  0.1717
 6446TIP3    H140753   3.997   6.075  16.332  1.4028  1.2414  0.4713
 6446TIP3    H240754   3.929   5.969  16.416 -1.5700  0.5604 -2.6770
 6447TIP3   OH240755   5.065   5.342   1.395  0.1891  0.6938  0.7063
 6447TIP3    H140756   5.056   5.425   1.348  1.1695 -0.0398 -0.7990
 6447TIP3    H240757   4.990   5.290   1.367  0.2077  0.6313  0.7717
 6448TIP3   OH240758   0.591   3.093  14.883  0.3685 -0.2942 -0.0918
 6448TIP3    H140759   0.647   3.018  14.865  2.1552  1.2111 -0.9661
 6448TIP3    H240760   0.589   3.099  14.979  1.3998 -0.5736 -0.0509
 6449TIP3   OH240761   4.740   3.726  16.060  0.8879 -0.0371  0.0377
 6449TIP3    H140762   4.788   3.643  16.065 -0.4650 -0.7686  1.0683
 6449TIP3    H240763   4.795   3.788  16.106  2.1422 -0.2436 -1.1420
 6450TIP3   OH240764   1.554   2.113   4.439  0.3596  0.2836 -0.0286
 6450TIP3    H140765   1.502   2.186   4.472  1.1274  0.0323  1.7976
 6450TIP3    H240766   1.490   2.048   4.411 -0.3146  0.9466 -0.0253
 6451TIP3   OH240767   4.944   5.522  14.054  0.1145 -0.8821 -0.4048
 6451TIP3    H140768   5.035   5.493  14.043 -0.1727 -2.0483  0.1594
 6451TIP3    H240769   4.897   5.477  13.984 -0.3505 -1.8565  0.5225
 6452TIP3   OH240770   3.324   1.720   5.704 -0.5832 -0.1475  0.6568
 6452TIP3    H140771   3.238   1.759   5.721 -0.0235  0.7010  1.5807
 6452TIP3    H240772   3.336   1.656   5.774 -1.6354 -2.2532 -1.0356
 6453TIP3   OH240773   5.357   5.744  13.821 -0.2391 -0.4710 -0.4445
 6453TIP3    H140774   5.415   5.733  13.745  1.4446 -2.2056  1.0285
 6453TIP3    H240775   5.405   5.804  13.879 -1.4330  0.6945 -0.6282
 6454TIP3   OH240776   0.692   3.167   2.050 -0.0806  0.3950  0.0006
 6454TIP3    H140777   0.774   3.214   2.036 -0.0893  0.7008  0.9331
 6454TIP3    H240778   0.696   3.138   2.141  0.0258 -1.6160 -0.6099
 6455TIP3   OH240779   0.284   5.842   4.177 -0.1798  0.5829 -0.5718
 6455TIP3    H140780   0.270   5.937   4.185 -1.1043  0.3948 -0.0107
 6455TIP3    H240781   0.366   5.827   4.224 -0.9125  0.8490  0.8069
 6456TIP3   OH240782   6.710   5.180  10.986  0.2840  0.1909  0.1252
 6456TIP3    H140783   6.728   5.088  10.967  0.9655  0.4750 -0.5875
 6456TIP3    H240784   6.678   5.216  10.904 -2.4474 -0.0165  1.0658
 6457TIP3   OH240785   3.612   5.304   3.802  0.5231 -0.7259  0.1231
 6457TIP3    H140786   3.649   5.219   3.825  0.4500 -0.2757  1.9461
 6457TIP3    H240787   3.613   5.354   3.883  1.0628  1.2106 -1.0285
 6458TIP3   OH240788   6.512   3.975   2.139 -0.1689 -0.4587 -0.0214
 6458TIP3    H140789   6.520   4.009   2.050 -1.8202 -0.3917 -0.1652
 6458TIP3    H240790   6.555   4.041   2.194  0.6788 -0.4004 -0.7461
 6459TIP3   OH240791   4.830   5.941   2.713 -0.0502  0.5077  0.1135
 6459TIP3    H140792   4.892   5.877   2.749 -0.1327 -0.6664 -1.7528
 6459TIP3    H240793   4.881   6.021   2.706  1.0935 -0.2711 -0.7693
 6460TIP3   OH240794   5.743   0.386  11.569  0.1439 -0.2280 -0.3056
 6460TIP3    H140795   5.819   0.444  11.556 -0.2792  0.1245 -1.2273
 6460TIP3    H240796   5.680   0.439  11.616 -0.0954 -0.0667 -0.8127
 6461TIP3   OH240797   3.936   2.877   5.035  0.6853 -0.2856 -0.0860
 6461TIP3    H140798   4.002   2.858   4.969  1.0277 -0.2029  0.2288
 6461TIP3    H240799   3.857   2.898   4.985  0.6685 -1.1939 -0.4584
 6462TIP3   OH240800   5.618   1.705   0.792 -0.1456  0.0941 -0.1157
 6462TIP3    H140801   5.684   1.769   0.764 -0.1416  0.2101  0.1550
 6462TIP3    H240802   5.647   1.622   0.754 -0.8054  0.4770 -1.4814
 6463TIP3   OH240803   3.131   6.669   1.744  0.0567  0.0460 -0.3078
 6463TIP3    H140804   3.185   6.642   1.670 -0.2744 -1.8414  0.0935
 6463TIP3    H240805   3.050   6.619   1.734 -0.1603  0.0884  1.0716
 6464TIP3   OH240806   6.688   5.059  15.844 -0.1183  0.8689  0.3065
 6464TIP3    H140807   6.601   5.023  15.832 -0.0930  0.9162 -0.0373
 6464TIP3    H240808   6.740   4.986  15.879  0.9582 -0.7260 -4.2175
 6465TIP3   OH240809   0.315   5.870  14.791  0.8603  0.1153  0.2273
 6465TIP3    H140810   0.317   5.796  14.851  1.8001 -0.3056 -0.3190
 6465TIP3    H240811   0.245   5.927  14.826  0.7458 -0.5812  1.1583
 6466TIP3   OH240812   4.027   3.951  15.212 -0.6173 -0.1140  0.4943
 6466TIP3    H140813   3.933   3.966  15.212 -0.5941  0.0152 -0.2674
 6466TIP3    H240814   4.057   3.992  15.294 -0.9395  1.5973 -0.2247
 6467TIP3   OH240815   2.499   2.909   1.408 -0.1445 -0.4107 -0.2926
 6467TIP3    H140816   2.424   2.893   1.466  0.4275 -0.5476  0.4133
 6467TIP3    H240817   2.572   2.864   1.450  0.7164  1.1545 -0.0763
 6468TIP3   OH240818   3.765   3.795   3.705 -0.1709  0.2404  0.1040
 6468TIP3    H140819   3.830   3.729   3.731 -0.2722 -0.7188 -2.0036
 6468TIP3    H240820   3.720   3.756   3.630 -2.7570  1.1611  1.1089
 6469TIP3   OH240821   3.887   0.502  17.236  0.3098  0.1646 -0.1860
 6469TIP3    H140822   3.794   0.514  17.215  0.3549  0.6979 -0.1021
 6469TIP3    H240823   3.922   0.450  17.164 -0.5120 -1.8703  0.8302
 6470TIP3   OH240824   1.826   2.977   1.936  0.3834  0.8294 -0.1589
 6470TIP3    H140825   1.828   2.955   2.029  0.7290  2.4005  0.2193
 6470TIP3    H240826   1.856   2.897   1.892  0.3531  0.1228  1.0827
 6471TIP3   OH240827   0.078   0.067  11.161  0.1613  0.0026 -0.0477
 6471TIP3    H140828  -0.005   0.071  11.114 -0.3109 -0.4411  0.7373
 6471TIP3    H240829   0.054   0.044  11.251  1.1452 -0.2841  0.1525
 6472TIP3   OH240830   5.429   2.049   0.069 -0.1239 -0.0237  0.3934
 6472TIP3    H140831   5.504   2.104   0.047  0.5193 -0.9729  0.1863
 6472TIP3    H240832   5.354   2.093   0.028  0.1600  1.4364  1.3980
 6473TIP3   OH240833   1.093   4.967   1.483  0.2025  0.2114 -0.1920
 6473TIP3    H140834   1.087   4.929   1.395  0.8728 -0.7049  0.1488
 6473TIP3    H240835   1.023   4.925   1.532 -0.7678  1.4147 -0.5319
 6474TIP3   OH240836   3.426   0.334  14.438 -0.2450  0.3364  0.3063
 6474TIP3    H140837   3.515   0.354  14.409 -0.2272 -1.2716 -0.7958
 6474TIP3    H240838   3.401   0.257  14.387 -2.1250  0.5427  0.8976
 6475TIP3   OH240839   2.242   0.079   5.418  0.0252 -0.5039  0.0632
 6475TIP3    H140840   2.239   0.022   5.341 -0.7980 -0.3318 -0.0309
 6475TIP3    H240841   2.152   0.084   5.448 -0.0290  1.4012 -0.4009
 6476TIP3   OH240842   6.050   3.596   2.753 -0.0372  1.0268  0.7358
 6476TIP3    H140843   6.140   3.569   2.736 -0.6099 -1.0382  0.9037
 6476TIP3    H240844   6.047   3.611   2.848 -0.2980 -0.5691  0.9885
 6477TIP3   OH240845   0.885   1.741  14.297 -0.6452  0.1535 -0.3705
 6477TIP3    H140846   0.966   1.792  14.304 -1.2433  1.2115 -1.1732
 6477TIP3    H240847   0.837   1.761  14.377 -0.7719  0.6455 -0.5744
 6478TIP3   OH240848   3.257   6.588   1.507  0.0486  0.0885  0.2334
 6478TIP3    H140849   3.198   6.572   1.433 -0.0692  1.4449  0.0274
 6478TIP3    H240850   3.288   6.501   1.532 -1.1539 -0.5286 -0.3914
 6479TIP3   OH240851   5.711   2.056  12.079 -0.4807 -0.2627 -0.2579
 6479TIP3    H140852   5.791   2.027  12.035 -0.5602 -1.6589  0.5039
 6479TIP3    H240853   5.641   2.003  12.038 -0.8832  0.2274 -0.2092
 6480TIP3   OH240854   5.930   3.085   2.453  0.0126 -0.5468 -0.2432
 6480TIP3    H140855   6.000   3.030   2.487 -0.0890 -0.7389 -0.3486
 6480TIP3    H240856   5.883   3.029   2.391 -1.4310 -1.0376  1.2681
 6481TIP3   OH240857   2.596   6.353  14.043 -0.2257 -0.0687 -0.0534
 6481TIP3    H140858   2.565   6.429  13.993 -2.5402 -0.6394  0.4681
 6481TIP3    H240859   2.640   6.298  13.978  3.9176  2.8966  0.0150
 6482TIP3   OH240860   0.612   5.592   2.612 -0.2948  0.9935 -0.2559
 6482TIP3    H140861   0.536   5.575   2.557 -1.3151  1.5078  0.9565
 6482TIP3    H240862   0.611   5.687   2.625 -0.2814  0.8456  0.9276
 6483TIP3   OH240863   3.759   2.409   3.572  0.6169 -0.2354 -0.2203
 6483TIP3    H140864   3.748   2.345   3.642  1.2307  0.0926  0.1828
 6483TIP3    H240865   3.786   2.357   3.496  1.8910 -0.3837  0.3113
 6484TIP3   OH240866   0.226   3.657  11.467 -0.1098  0.4655  0.4411
 6484TIP3    H140867   0.224   3.739  11.517 -2.7670  0.3667  0.5612
 6484TIP3    H240868   0.222   3.684  11.376 -1.2713  0.4753  0.4892
 6485TIP3   OH240869   2.377   0.471   0.819  0.1983 -0.0463  0.1928
 6485TIP3    H140870   2.333   0.387   0.809  1.4731 -0.6964 -0.1314
 6485TIP3    H240871   2.445   0.454   0.884  0.1552  0.8611  0.4832
 6486TIP3   OH240872   1.008   0.694   2.739  0.3604 -0.5541  0.3328
 6486TIP3    H140873   1.102   0.691   2.717  0.5870  0.6320  1.1140
 6486TIP3    H240874   1.004   0.741   2.822 -0.9578 -0.4432  0.2154
 6487TIP3   OH240875   6.666   5.497  13.295  0.4170  0.2933 -0.0687
 6487TIP3    H140876   6.621   5.456  13.368 -0.2287  0.5219 -0.3328
 6487TIP3    H240877   6.725   5.561  13.335 -0.4647  0.9292  0.2182
 6488TIP3   OH240878   2.031   4.398   5.234 -0.0121  0.1731 -0.7062
 6488TIP3    H140879   2.073   4.479   5.263 -1.6956  0.7929  0.0622
 6488TIP3    H240880   2.068   4.381   5.147  1.1606  1.1673 -0.4095
 6489TIP3   OH240881   2.273   3.216  13.134  0.1746  0.3677  0.2483
 6489TIP3    H140882   2.279   3.282  13.204  0.7070 -0.7592  1.2883
 6489TIP3    H240883   2.182   3.220  13.105  0.4285  2.2061 -0.3441
 6490TIP3   OH240884   2.706   0.732   2.645 -0.0392  0.0324  0.2926
 6490TIP3    H140885   2.796   0.743   2.613  0.2177 -1.3025  0.5140
 6490TIP3    H240886   2.664   0.678   2.578 -0.0259 -1.2243  1.2735
 6491TIP3   OH240887   2.064   5.637  10.769 -0.0740  0.3207 -0.3316
 6491TIP3    H140888   2.081   5.712  10.711  0.9256  0.6260  0.3567
 6491TIP3    H240889   2.150   5.605  10.794 -0.5007 -0.5251  0.0792
 6492TIP3   OH240890   5.217   3.229   4.862 -0.0266  0.2623 -0.1481
 6492TIP3    H140891   5.224   3.171   4.938 -1.5392 -0.0932 -0.2647
 6492TIP3    H240892   5.187   3.172   4.791 -2.7787  1.4064  0.0500
 6493TIP3   OH240893   5.729   5.751  14.288  0.2856 -0.1707 -0.0629
 6493TIP3    H140894   5.743   5.695  14.364  0.3403  0.3128  0.2850
 6493TIP3    H240895   5.634   5.755  14.278  0.3321 -1.9053 -1.2747
 6494TIP3   OH240896   3.423   5.326  14.603 -0.4339  0.2936 -0.1065
 6494TIP3    H140897   3.391   5.305  14.690  1.3034 -1.3940  0.1597
 6494TIP3    H240898   3.455   5.243  14.568  1.0270  1.3807 -1.4420
 6495TIP3   OH240899   2.839   4.247  17.151  0.6536 -0.0252  0.2404
 6495TIP3    H140900   2.808   4.338  17.155  1.4430  0.4677 -3.2682
 6495TIP3    H240901   2.774   4.201  17.099  1.5406 -0.9012 -0.1134
 6496TIP3   OH240902   1.177   1.343   0.730 -0.0598 -0.0223 -0.1897
 6496TIP3    H140903   1.140   1.322   0.816  0.3392 -0.6217 -0.1596
 6496TIP3    H240904   1.269   1.361   0.748 -0.1312  0.5418 -0.3928
 6497TIP3   OH240905   5.482   0.927  14.652  0.1057 -0.0762  0.7109
 6497TIP3    H140906   5.447   0.870  14.583 -1.8983  0.6397  1.0822
 6497TIP3    H240907   5.445   0.893  14.733  1.7746 -0.4008  1.3534
 6498TIP3   OH240908   1.380   2.821  17.164  0.7497 -0.1639  0.5146
 6498TIP3    H140909   1.417   2.882  17.100  0.7675 -1.6063 -0.8787
 6498TIP3    H240910   1.457   2.780  17.204  0.7200 -0.8531 -0.1193
 6499TIP3   OH240911   1.747   5.382  11.788  0.6083  0.1805 -0.9092
 6499TIP3    H140912   1.800   5.317  11.833  2.4397 -0.3433 -3.6878
 6499TIP3    H240913   1.666   5.337  11.766  1.6813 -1.0585 -2.4052
 6500TIP3   OH240914   6.706   6.232   0.600 -0.1944 -0.4371  0.2472
 6500TIP3    H140915   6.619   6.272   0.597  1.3273  3.1954  1.8261
 6500TIP3    H240916   6.730   6.219   0.508 -0.2960  3.4502 -0.3943
 6501TIP3   OH240917   1.220   0.694   1.850 -0.3392 -0.0921 -0.3015
 6501TIP3    H140918   1.138   0.646   1.840  0.2658 -0.8279 -1.9264
 6501TIP3    H240919   1.288   0.627   1.848  0.5257  0.7628 -2.5963
 6502TIP3   OH240920   1.535   2.963   2.550 -0.2377  0.1932 -0.1616
 6502TIP3    H140921   1.630   2.947   2.545  0.5723  4.4078 -0.9586
 6502TIP3    H240922   1.517   2.970   2.643  0.1230 -1.2412  0.0178
 6503TIP3   OH240923   0.388   0.187  14.738 -0.5717  0.2551  0.4020
 6503TIP3    H140924   0.304   0.169  14.698 -0.2134  1.7118 -1.0948
 6503TIP3    H240925   0.380   0.276  14.772  0.3027  0.3599  0.3676
 6504TIP3   OH240926   5.861   1.995   0.274  0.1023  0.2263 -0.2973
 6504TIP3    H140927   5.816   2.021   0.355  1.0353  0.2589  0.2250
 6504TIP3    H240928   5.799   1.938   0.229  0.1851 -1.1494  1.2422
 6505TIP3   OH240929   4.287   6.762  13.573  0.1113 -0.2085  0.3296
 6505TIP3    H140930   4.274   6.814  13.494  2.3607 -0.5141 -0.2680
 6505TIP3    H240931   4.199   6.735  13.599 -0.7019  0.4329 -1.7010
 6506TIP3   OH240932   3.619   0.649  14.266 -0.0916 -0.0465 -0.3416
 6506TIP3    H140933   3.641   0.698  14.187 -0.5037 -0.6189 -0.8168
 6506TIP3    H240934   3.525   0.661  14.277  0.0252  0.3364  0.2738
 6507TIP3   OH240935   3.348   4.806   5.579  0.2252  0.2222  0.2250
 6507TIP3    H140936   3.267   4.831   5.623  0.4397  0.6171  0.3993
 6507TIP3    H240937   3.357   4.869   5.508  0.6847  0.5461  0.5675
 6508TIP3   OH240938   4.481   3.996   5.343  0.3571 -0.6907 -0.9607
 6508TIP3    H140939   4.465   4.085   5.375 -1.2719 -1.2696 -0.1048
 6508TIP3    H240940   4.411   3.981   5.280 -1.3390 -2.5385  1.3087
 6509TIP3   OH240941   5.778   2.182  15.851 -0.5340  0.5973 -0.0468
 6509TIP3    H140942   5.796   2.103  15.902 -2.8950 -0.0435 -0.1463
 6509TIP3    H240943   5.840   2.247  15.884 -0.2843 -0.5534  1.8073
 6510TIP3   OH240944   6.556   6.632  10.145  1.2230 -0.4266 -0.2619
 6510TIP3    H140945   6.563   6.616  10.239  3.7111 -0.0185 -0.3628
 6510TIP3    H240946   6.600   6.558  10.104  0.6627 -0.3054 -1.0987
 6511TIP3   OH240947   3.480   5.490  14.374  0.1319 -0.6213 -0.1421
 6511TIP3    H140948   3.523   5.443  14.303 -3.4300 -2.1359 -1.4128
 6511TIP3    H240949   3.457   5.422  14.437  1.5717  0.4656  1.5958
 6512TIP3   OH240950   4.542   4.116   3.001 -0.2124 -0.1071  0.2874
 6512TIP3    H140951   4.446   4.121   2.993 -0.2638 -2.4062 -1.0183
 6512TIP3    H240952   4.569   4.061   2.928  2.0859  0.0981  0.9476
 6513TIP3   OH240953   3.946   0.136  11.430 -0.1522 -0.1205 -0.0987
 6513TIP3    H140954   3.947   0.199  11.502 -0.6323 -0.3965  0.1541
 6513TIP3    H240955   3.853   0.127  11.408  0.1456  1.6317 -2.2189
 6514TIP3   OH240956   1.812   1.247  16.236 -0.3313  0.3912 -0.1800
 6514TIP3    H140957   1.825   1.238  16.330 -0.1687  0.1110 -0.2311
 6514TIP3    H240958   1.717   1.252  16.225 -0.3886 -0.4774 -0.0843
 6515TIP3   OH240959   1.415   2.288  12.494 -0.4193  0.0885 -0.4375
 6515TIP3    H140960   1.461   2.326  12.420 -0.8375  1.0864 -0.1951
 6515TIP3    H240961   1.428   2.351  12.566 -1.5184  0.0240 -0.1690
 6516TIP3   OH240962   5.708   0.149   0.526 -0.4035  0.2076  0.4114
 6516TIP3    H140963   5.727   0.100   0.606 -1.6547  1.0766  1.2685
 6516TIP3    H240964   5.722   0.086   0.456  0.8170 -0.5371  1.3076
 6517TIP3   OH240965   6.460   4.004   3.779  0.2026  0.1136 -0.8193
 6517TIP3    H140966   6.534   4.059   3.755  2.7886 -2.6840  0.4871
 6517TIP3    H240967   6.479   3.973   3.867 -3.0629  0.1574 -0.0073
 6518TIP3   OH240968   6.509   1.588  12.918  0.0643 -0.0695  0.1384
 6518TIP3    H140969   6.418   1.584  12.947  0.0389 -1.4341 -0.0930
 6518TIP3    H240970   6.506   1.565  12.825  0.5950  0.3739  0.0091
 6519TIP3   OH240971   0.671   0.132   5.065 -0.5748 -0.0741  0.1983
 6519TIP3    H140972   0.664   0.063   5.131 -1.6022 -0.9661 -0.8191
 6519TIP3    H240973   0.591   0.123   5.012 -0.8087  2.0073  0.1536
 6520TIP3   OH240974   3.360   0.436   4.518  0.1475 -0.9445 -0.1147
 6520TIP3    H140975   3.324   0.348   4.507 -2.3644 -0.0277  0.3944
 6520TIP3    H240976   3.331   0.462   4.606  2.1913 -0.1840  0.3673
 6521TIP3   OH240977   0.021   2.794   3.853 -0.6144  0.5991  0.6548
 6521TIP3    H140978   0.099   2.846   3.871  1.5387 -2.4142  0.3240
 6521TIP3    H240979  -0.022   2.786   3.939 -0.1705  1.6395  0.9837
 6522TIP3   OH240980   5.281   5.295  14.110 -0.3880 -0.1939  1.6287
 6522TIP3    H140981   5.370   5.261  14.106 -0.2969  0.1611 -0.0921
 6522TIP3    H240982   5.283   5.374  14.055 -1.5579  0.2958  2.2578
 6523TIP3   OH240983   5.659   0.047  15.265 -0.0307 -0.4459 -0.6383
 6523TIP3    H140984   5.672   0.019  15.356 -0.6108  0.0283 -0.4086
 6523TIP3    H240985   5.640  -0.034  15.217 -0.8225 -0.5629 -0.1384
 6524TIP3   OH240986   0.386   5.190  11.340  0.6565 -0.4324 -0.6946
 6524TIP3    H140987   0.422   5.194  11.428 -0.7817 -0.3538 -0.0978
 6524TIP3    H240988   0.322   5.119  11.343 -0.3637  0.4441 -1.3036
 6525TIP3   OH240989   6.615   3.959   0.249  0.3630 -0.3415  0.3151
 6525TIP3    H140990   6.669   3.911   0.312  1.0905  2.7340  2.1753
 6525TIP3    H240991   6.569   4.024   0.303  0.1451  1.6368 -2.1765
 6526TIP3   OH240992   1.713   4.968   0.135 -0.2455 -0.1407 -0.0468
 6526TIP3    H140993   1.656   5.044   0.125  0.8169  0.9309  1.7494
 6526TIP3    H240994   1.782   4.981   0.070 -0.2153  0.2937  0.0696
 6527TIP3   OH240995   3.721   2.657  15.677 -0.5321 -0.4481  0.5386
 6527TIP3    H140996   3.641   2.605  15.671  0.2494 -1.8873  1.9223
 6527TIP3    H240997   3.751   2.644  15.768  2.0860 -1.2083 -0.3881
 6528TIP3   OH240998   0.240   5.981  15.442 -0.5648 -0.1050  0.8246
 6528TIP3    H140999   0.294   6.026  15.508 -1.7778 -1.2811  2.6741
 6528TIP3    H241000   0.186   5.921  15.493 -0.5449 -2.0604 -1.4042
 6529TIP3   OH241001   2.702   2.254   4.481 -0.2105 -0.0284  0.3144
 6529TIP3    H141002   2.765   2.236   4.551 -2.1841 -2.5433  1.5219
 6529TIP3    H241003   2.704   2.175   4.427 -2.7400 -0.4076  0.7258
 6530TIP3   OH241004   4.392   1.816  15.600  0.0960  0.3670  0.2643
 6530TIP3    H141005   4.442   1.789  15.523  1.2918  1.5380  0.6128
 6530TIP3    H241006   4.303   1.786  15.582 -0.1335  2.4742 -2.5682
 6531TIP3   OH241007   0.531   5.742  12.640 -0.5739  0.0693 -0.2641
 6531TIP3    H141008   0.616   5.707  12.614 -0.2610 -0.1271  0.9670
 6531TIP3    H241009   0.540   5.837  12.630  0.4074  0.1929  1.5705
 6532TIP3   OH241010   2.027   4.121   2.401 -0.5429  0.1188  0.4703
 6532TIP3    H141011   2.008   4.139   2.493 -0.1383  1.3581  0.3201
 6532TIP3    H241012   2.079   4.040   2.402 -3.4356 -1.8040  1.0777
 6533TIP3   OH241013   4.313   5.981   5.410 -0.0575  0.2672  0.1377
 6533TIP3    H141014   4.363   5.899   5.411  0.0951  0.3582  0.1115
 6533TIP3    H241015   4.227   5.958   5.444 -0.2344 -0.0406 -0.5005
 6534TIP3   OH241016   4.847   6.763  16.091 -0.2624  0.0854 -0.6462
 6534TIP3    H141017   4.765   6.787  16.134  0.3975 -0.9020  1.2053
 6534TIP3    H241018   4.851   6.668  16.098  0.8460  0.0901 -1.0930
 6535TIP3   OH241019   3.568   6.706  16.126  0.9811  0.2194  0.5586
 6535TIP3    H141020   3.631   6.756  16.074 -1.0230  0.7082 -1.5063
 6535TIP3    H241021   3.490   6.761  16.127 -0.2110 -1.4486  0.9702
 6536TIP3   OH241022   5.454   1.349  15.080 -0.0463 -0.3015 -0.7039
 6536TIP3    H141023   5.441   1.311  15.166  0.8167 -0.5712 -0.6896
 6536TIP3    H241024   5.451   1.275  15.020  2.4085 -0.5103 -0.6012
 6537TIP3   OH241025   5.689   1.736   5.292  0.2381 -0.0749 -0.5822
 6537TIP3    H141026   5.729   1.650   5.276  0.7021  0.0566 -0.1547
 6537TIP3    H241027   5.615   1.739   5.232  0.8933 -0.3055 -1.4217
 6538TIP3   OH241028   1.357   0.358  13.979  0.0209  0.3056  0.2669
 6538TIP3    H141029   1.332   0.439  13.935 -0.7846 -1.0486 -1.8417
 6538TIP3    H241030   1.450   0.348  13.960 -0.3223 -0.2671 -1.1608
 6539TIP3   OH241031   0.259   3.464  16.344  0.1971 -0.0584  0.4356
 6539TIP3    H141032   0.265   3.553  16.378  3.2507 -1.2266  3.1961
 6539TIP3    H241033   0.334   3.456  16.285 -1.1137 -0.2608 -1.2312
 6540TIP3   OH241034   0.109   0.907   2.687  0.1070 -0.2638  0.2215
 6540TIP3    H141035   0.163   0.917   2.765  1.1612  1.5833 -0.7120
 6540TIP3    H241036   0.169   0.871   2.621  0.3604  2.1601 -0.9378
 6541TIP3   OH241037   6.473   5.999  13.129  0.2331 -0.3484  0.9822
 6541TIP3    H141038   6.529   6.066  13.169 -1.3568 -0.0620  2.7956
 6541TIP3    H241039   6.533   5.929  13.105  1.9936  1.8164 -1.3004
 6542TIP3   OH241040   4.914   4.607  14.441  0.1702 -0.4482 -0.4263
 6542TIP3    H141041   4.842   4.566  14.393 -2.6832  3.7114  0.0141
 6542TIP3    H241042   4.904   4.575  14.531 -1.4279  0.3816 -0.2859
 6543TIP3   OH241043   3.251   5.887   4.542  0.0665 -0.6418 -0.3411
 6543TIP3    H141044   3.228   5.949   4.473  0.4761 -1.8747 -1.5860
 6543TIP3    H241045   3.187   5.817   4.535 -0.2680 -0.4828  0.9370
 6544TIP3   OH241046   0.513   6.487  17.040  0.1732 -0.0041  0.1798
 6544TIP3    H141047   0.607   6.503  17.045  0.3478 -1.0485  0.4649
 6544TIP3    H241048   0.479   6.513  17.125  0.0161  1.4765 -0.3212
 6545TIP3   OH241049   5.330   1.074   5.158 -0.1876 -0.3995  0.2963
 6545TIP3    H141050   5.407   1.051   5.106 -0.2264 -0.1673  0.1352
 6545TIP3    H241051   5.262   1.015   5.126 -0.1726 -0.3573  0.1876
 6546TIP3   OH241052   1.993   2.473   2.826 -0.0881  0.5562  0.7667
 6546TIP3    H141053   2.062   2.470   2.760 -0.6296  0.4342  0.2019
 6546TIP3    H241054   1.922   2.422   2.789 -2.3825  4.6772 -0.8431
 6547TIP3   OH241055   3.536   5.330   5.608  0.8912  0.2591  0.1861
 6547TIP3    H141056   3.524   5.261   5.673  0.8393 -1.9033 -2.0440
 6547TIP3    H241057   3.629   5.326   5.586  0.6161 -0.0469 -0.9535
 6548TIP3   OH241058   0.480   0.925   4.102 -0.1651  0.9320 -0.6893
 6548TIP3    H141059   0.550   0.875   4.144  0.6759  2.2881 -0.4367
 6548TIP3    H241060   0.401   0.873   4.117  0.6972 -0.3519 -0.5205
 6549TIP3   OH241061   3.104   0.352   0.819 -0.1993 -0.4449  0.3246
 6549TIP3    H141062   3.109   0.304   0.902 -0.6038  0.5568  0.9362
 6549TIP3    H241063   3.127   0.442   0.842  1.8709 -0.6017 -1.0558
 6550TIP3   OH241064   5.221   6.466   3.097  0.0237  0.1172 -0.2618
 6550TIP3    H141065   5.180   6.416   3.027  0.6122  1.6586 -1.7519
 6550TIP3    H241066   5.315   6.457   3.081  0.1547  0.8324  0.0827
 6551TIP3   OH241067   4.915   5.964  16.465  0.2465 -0.9906  0.0482
 6551TIP3    H141068   4.882   5.891  16.518  0.4688 -1.8087 -0.9286
 6551TIP3    H241069   4.908   5.933  16.375  0.1056  0.2966 -0.3914
 6552TIP3   OH241070   1.230   1.617   2.011  0.6083  0.4873 -0.1631
 6552TIP3    H141071   1.166   1.546   2.009 -0.0109  1.0447  0.0186
 6552TIP3    H241072   1.302   1.582   2.064  0.6242 -0.2775 -0.6832
 6553TIP3   OH241073   3.086   4.701  11.139 -0.5989  1.0231 -0.1662
 6553TIP3    H141074   3.168   4.690  11.090 -0.0515  1.7044  0.5730
 6553TIP3    H241075   3.086   4.628  11.201 -0.4820  1.0903 -0.0843
 6554TIP3   OH241076   4.853   1.508   0.987 -0.0469  0.2215 -0.2094
 6554TIP3    H141077   4.799   1.574   1.031 -0.1133  1.1007 -1.5925
 6554TIP3    H241078   4.792   1.455   0.937 -0.0708 -1.3403  1.4297
 6555TIP3   OH241079   2.695   5.927   1.635  0.3643  0.0866 -0.0616
 6555TIP3    H141080   2.614   5.978   1.624  0.9143  1.1306  0.6054
 6555TIP3    H241081   2.667   5.847   1.679 -0.2307  0.6818  0.6576
 6556TIP3   OH241082   5.631   5.823   4.726  0.0221  0.3762  0.1921
 6556TIP3    H141083   5.592   5.862   4.647 -0.7634 -1.5604 -0.4286
 6556TIP3    H241084   5.573   5.850   4.797 -0.8699 -0.1391 -0.3214
 6557TIP3   OH241085   4.625   1.394   1.426 -0.1353 -0.2629 -0.1407
 6557TIP3    H141086   4.614   1.299   1.419  0.4777 -0.2366 -1.5949
 6557TIP3    H241087   4.719   1.408   1.429 -0.1875  0.3743 -1.1787
 6558TIP3   OH241088   5.069   5.022   3.051 -0.0530  0.2505 -0.3618
 6558TIP3    H141089   5.002   5.049   3.114 -0.0482 -0.7880  0.0994
 6558TIP3    H241090   5.046   4.932   3.029  1.0781 -0.0506 -0.3434
 6559TIP3   OH241091   6.771   2.522   5.377 -0.3719 -0.2968  0.8030
 6559TIP3    H141092   6.702   2.455   5.384 -0.7360  0.0323  0.4189
 6559TIP3    H241093   6.806   2.530   5.466  0.4655 -1.8321  0.6248
 6560TIP3   OH241094   0.253   2.152   0.451  0.2880 -0.3438 -0.4461
 6560TIP3    H141095   0.224   2.070   0.489  1.8516 -0.7058 -0.0159
 6560TIP3    H241096   0.202   2.219   0.496  0.7150 -0.9061  0.8814
 6561TIP3   OH241097   1.229   4.145   1.418 -0.3171 -0.3147 -0.1160
 6561TIP3    H141098   1.245   4.216   1.355 -3.6635  0.7915  0.1658
 6561TIP3    H241099   1.207   4.069   1.363  0.6593 -0.4267 -0.3587
 6562TIP3   OH241100   0.418   2.672   0.363 -0.4553  0.2272  0.1438
 6562TIP3    H141101   0.459   2.756   0.378  1.3508 -0.4112 -1.0949
 6562TIP3    H241102   0.482   2.607   0.392 -0.8056 -0.7614 -1.1861
 6563TIP3   OH241103   2.785   0.476  12.410 -0.1271  0.6453  0.6608
 6563TIP3    H141104   2.702   0.504  12.369  0.3730  0.8645 -0.2158
 6563TIP3    H241105   2.825   0.418  12.346  0.2428  0.2602  1.2345
 6564TIP3   OH241106   2.244   3.954   5.891 -0.0897  0.1887 -0.4062
 6564TIP3    H141107   2.222   3.874   5.939  0.6723 -0.3609 -0.9654
 6564TIP3    H241108   2.161   3.981   5.851  0.0053 -1.2869 -1.6406
 6565TIP3   OH241109   3.168   3.256   5.578  0.3306 -0.1250  0.2814
 6565TIP3    H141110   3.171   3.163   5.600 -0.3553 -0.2349 -0.0717
 6565TIP3    H241111   3.256   3.288   5.596  1.0450 -1.1984 -1.1588
 6566TIP3   OH241112   1.064   0.068  11.219 -0.0378 -0.1935 -0.2019
 6566TIP3    H141113   1.059  -0.024  11.243  0.8562 -0.1214  0.2865
 6566TIP3    H241114   1.024   0.073  11.133 -1.1253 -0.8537  0.2472
 6567TIP3   OH241115   2.232   3.515   2.680  0.7505  0.8346  0.9522
 6567TIP3    H141116   2.295   3.475   2.619 -0.8421 -0.1452 -0.0780
 6567TIP3    H241117   2.233   3.608   2.658 -0.1517  0.4177 -0.8893
 6568TIP3   OH241118   3.524   5.936  12.288  0.7604 -0.1803 -0.3400
 6568TIP3    H141119   3.533   6.030  12.305  0.5599  0.0230 -1.3308
 6568TIP3    H241120   3.583   5.920  12.215 -0.6878 -0.4472 -1.4581
 6569TIP3   OH241121   5.403   0.947  13.849  0.2763  0.3983  0.3911
 6569TIP3    H141122   5.452   0.897  13.785  0.9172  0.6314  0.6982
 6569TIP3    H241123   5.338   0.995  13.798  1.1944  1.0814 -0.1595
 6570TIP3   OH241124   2.075   4.045   1.442 -0.4000 -0.8144 -0.4640
 6570TIP3    H141125   2.109   3.984   1.507  2.3451  0.7633 -0.3136
 6570TIP3    H241126   1.993   4.077   1.478  1.0008 -0.0889  2.1994
 6571TIP3   OH241127   6.181   1.314  11.248  0.0096  0.2182 -0.8737
 6571TIP3    H141128   6.173   1.316  11.152  1.5555  0.3509 -1.0040
 6571TIP3    H241129   6.163   1.223  11.272  1.4810 -0.2343 -1.4616
 6572TIP3   OH241130   6.241   3.936   1.091  0.3403  0.1060  0.0114
 6572TIP3    H141131   6.228   3.886   1.172  1.4266 -0.8220 -0.3685
 6572TIP3    H241132   6.295   4.011   1.117  2.1709 -1.1143 -0.1350
 6573TIP3   OH241133   0.007   0.671  14.437  0.4372 -0.3585  0.1496
 6573TIP3    H141134  -0.056   0.740  14.416 -0.2774 -1.3759 -1.1356
 6573TIP3    H241135  -0.045   0.591  14.440  1.6808 -1.2532 -1.1688
 6574TIP3   OH241136   4.875   1.130  12.825  0.8492 -0.1448 -0.3666
 6574TIP3    H141137   4.870   1.210  12.772  0.7929 -0.4692 -0.8544
 6574TIP3    H241138   4.958   1.089  12.800  2.2031  1.1382  1.8785
 6575TIP3   OH241139   2.697   3.798  11.805 -0.6344 -0.1007 -0.7259
 6575TIP3    H141140   2.682   3.767  11.716 -1.8538 -0.3908 -0.4264
 6575TIP3    H241141   2.742   3.725  11.849 -0.5376 -0.1719 -0.9434
 6576TIP3   OH241142   2.462   1.040   4.838 -0.0618 -0.1390 -0.4098
 6576TIP3    H141143   2.376   1.003   4.818  1.3502 -3.2949 -0.9015
 6576TIP3    H241144   2.503   1.055   4.753  0.3532  0.2146 -0.1564
 6577TIP3   OH241145   1.302   3.351  11.873  0.0657  0.0102  0.1445
 6577TIP3    H141146   1.316   3.439  11.908  0.6446  0.0038 -0.0638
 6577TIP3    H241147   1.223   3.359  11.819  0.6127  0.6102 -0.5769
 6578TIP3   OH241148   5.973   6.773   3.623  0.1103 -0.2082 -0.3592
 6578TIP3    H141149   5.997   6.690   3.582 -2.3795 -1.0890 -0.1061
 6578TIP3    H241150   5.926   6.821   3.554  0.9691  0.7187 -0.3018
 6579TIP3   OH241151   5.981   0.178   4.857  0.0202 -0.5449 -0.5315
 6579TIP3    H141152   5.910   0.235   4.886 -0.5946 -1.5226 -0.1041
 6579TIP3    H241153   5.962   0.160   4.765 -1.0432 -1.9028 -0.0648
 6580TIP3   OH241154   0.022   0.613  11.331 -0.3454  0.3531 -0.5476
 6580TIP3    H141155   0.017   0.624  11.425  0.6435  0.5919 -0.5113
 6580TIP3    H241156   0.066   0.528  11.319  0.0248  0.5774 -0.7878
 6581TIP3   OH241157   4.049   2.156   2.245 -0.1706  0.2892 -0.4867
 6581TIP3    H141158   4.056   2.099   2.321 -0.5866  2.0091  0.8572
 6581TIP3    H241159   4.134   2.199   2.239  0.3099 -0.8093 -1.7885
 6582TIP3   OH241160   0.234   4.133  15.268 -0.0418  0.4101  0.2042
 6582TIP3    H141161   0.154   4.138  15.216 -0.7811 -1.3449  1.1313
 6582TIP3    H241162   0.247   4.222  15.301 -2.1429  0.5095  0.8229
 6583TIP3   OH241163   6.299   6.489   3.258  0.7822  0.3880 -0.1537
 6583TIP3    H141164   6.226   6.472   3.198  0.1071  2.5811  0.0086
 6583TIP3    H241165   6.372   6.438   3.222 -0.0205  0.5373 -2.0401
 6584TIP3   OH241166   5.568   0.140   1.985  0.2700  0.1883  0.4786
 6584TIP3    H141167   5.660   0.163   1.973  0.4426 -1.1463 -0.8786
 6584TIP3    H241168   5.566   0.044   1.978 -1.0578  0.1132  1.6184
 6585TIP3   OH241169   1.757   1.179   4.205 -0.3828  0.6076  0.7694
 6585TIP3    H141170   1.837   1.204   4.158 -0.3104  1.3487  1.2746
 6585TIP3    H241171   1.691   1.168   4.137 -0.2143  1.4119  0.4718
 6586TIP3   OH241172   5.527   3.095  14.075  0.4651 -0.0687  0.0605
 6586TIP3    H141173   5.577   3.135  14.004  0.2948  0.8271  0.4347
 6586TIP3    H241174   5.534   3.001  14.059  1.1649  0.0924 -0.6361
 6587TIP3   OH241175   4.438   1.707   2.747  0.1103 -0.4600  0.7779
 6587TIP3    H141176   4.368   1.764   2.777  1.1658  1.5778 -0.4833
 6587TIP3    H241177   4.517   1.760   2.754  1.1617 -1.8446 -0.2106
 6588TIP3   OH241178   2.654   5.998  16.698 -0.2666  0.4488 -0.2774
 6588TIP3    H141179   2.594   5.984  16.771 -0.4536 -0.7314 -0.6464
 6588TIP3    H241180   2.686   6.088  16.709  0.9612 -0.2542  2.1992
 6589TIP3   OH241181   1.388   0.257   2.529 -0.0028 -0.6563 -0.6608
 6589TIP3    H141182   1.429   0.176   2.498 -1.7843 -1.8567  0.0568
 6589TIP3    H241183   1.313   0.228   2.581  2.2569  1.3075  3.9681
 6590TIP3   OH241184   4.370   0.943  11.759  0.4038  0.5105  0.4382
 6590TIP3    H141185   4.318   1.016  11.725  1.0344  0.5349 -0.5083
 6590TIP3    H241186   4.395   0.894  11.680  0.1791 -0.5897  1.0501
 6591TIP3   OH241187   0.371   5.260  13.312  0.0069 -0.3440  0.2526
 6591TIP3    H141188   0.276   5.259  13.308  0.0213  0.3196 -0.3384
 6591TIP3    H241189   0.392   5.266  13.405 -0.5322  0.2079  0.3363
 6592TIP3   OH241190   0.014   1.468   3.499  0.1724 -0.4892 -0.2829
 6592TIP3    H141191   0.011   1.374   3.517  0.1552 -0.8668 -2.1506
 6592TIP3    H241192   0.031   1.508   3.584  2.0325 -2.2843  0.2215
 6593TIP3   OH241193   6.438   6.304   2.836 -1.0800 -0.5985 -0.1191
 6593TIP3    H141194   6.500   6.270   2.901 -0.2628 -0.2387 -0.7149
 6593TIP3    H241195   6.480   6.288   2.752 -0.8157  1.6031 -0.4218
 6594TIP3   OH241196   4.683   5.651   5.613 -0.6003 -0.5140 -0.2667
 6594TIP3    H141197   4.722   5.600   5.541 -1.7572  0.3616 -1.5419
 6594TIP3    H241198   4.675   5.740   5.578  2.5294  0.8943  2.3466
 6595TIP3   OH241199   4.969   2.392   1.829 -0.5261  0.0447 -0.0127
 6595TIP3    H141200   5.031   2.462   1.807 -2.2489  1.3035 -0.9330
 6595TIP3    H241201   4.901   2.398   1.763 -0.8212 -2.3908  0.0320
 6596TIP3   OH241202   4.314   4.741   0.702 -0.6856  0.2338 -0.6169
 6596TIP3    H141203   4.364   4.794   0.763 -1.4932 -1.0014  1.1661
 6596TIP3    H241204   4.331   4.780   0.616  1.7731  0.9877  0.1767
 6597TIP3   OH241205   0.452   6.771   0.395 -0.0447 -0.0737  0.0183
 6597TIP3    H141206   0.407   6.790   0.312 -2.4380 -1.8861  0.8691
 6597TIP3    H241207   0.470   6.677   0.392  0.0858 -0.1013  1.4377
 6598TIP3   OH241208   6.647   2.736   1.492  0.2107 -0.3456 -0.2534
 6598TIP3    H141209   6.734   2.708   1.464  0.1361  0.2812 -1.1168
 6598TIP3    H241210   6.598   2.748   1.411  0.0279  1.5704  0.1160
 6599TIP3   OH241211   3.122   5.132   5.651  0.4792  0.2846 -0.9226
 6599TIP3    H141212   3.044   5.078   5.662  1.1609 -0.4741  0.2601
 6599TIP3    H241213   3.088   5.220   5.630 -0.7022  0.1423  0.3645
 6600TIP3   OH241214   2.220   2.297  11.635 -0.3036 -0.2048 -0.3118
 6600TIP3    H141215   2.210   2.204  11.613  1.2634 -0.6594  0.7994
 6600TIP3    H241216   2.303   2.323  11.595  0.6552 -0.0411  1.7211
 6601TIP3   OH241217   6.287   0.187  12.068 -0.1577 -0.0211 -0.3111
 6601TIP3    H141218   6.338   0.127  12.123 -0.9288  0.0050  0.4404
 6601TIP3    H241219   6.220   0.221  12.127  1.0302  2.5376 -0.3851
 6602TIP3   OH241220   4.890   4.026  11.673 -0.0787 -0.0525  0.5545
 6602TIP3    H141221   4.811   4.065  11.712 -0.4622  0.9725 -1.1577
 6602TIP3    H241222   4.861   3.942  11.639 -0.3744  0.1820  0.2159
 6603TIP3   OH241223   4.683   1.572  13.255 -0.2135  0.6277  0.1937
 6603TIP3    H141224   4.761   1.568  13.199 -0.3146 -1.8219  0.1841
 6603TIP3    H241225   4.717   1.560  13.344 -0.5432 -0.1846  0.2132
 6604TIP3   OH241226   1.519   3.610   1.913  0.3713  0.3936 -0.2071
 6604TIP3    H141227   1.434   3.631   1.874 -0.1148 -0.5514  0.2959
 6604TIP3    H241228   1.521   3.514   1.913  2.1144  0.3933 -1.6397
 6605TIP3   OH241229   0.787   6.697  15.115  0.4263 -0.4242 -0.2408
 6605TIP3    H141230   0.738   6.660  15.188 -0.5613  0.4261 -0.4701
 6605TIP3    H241231   0.824   6.620  15.070  2.1139 -0.8846  1.8625
 6606TIP3   OH241232   2.353   6.211   5.412 -0.1957 -0.1168 -0.5155
 6606TIP3    H141233   2.384   6.130   5.372  0.5260 -0.5575  0.9223
 6606TIP3    H241234   2.306   6.184   5.491  1.9635  0.9584  1.1953
 6607TIP3   OH241235   0.668   5.133  13.385  0.2107 -0.7719 -0.4955
 6607TIP3    H141236   0.577   5.159  13.376  0.5976  0.3384 -1.3441
 6607TIP3    H241237   0.665   5.047  13.427 -1.1978 -0.4942 -0.0136
 6608TIP3   OH241238   2.974   2.494   4.035 -0.2191  0.7734  0.0180
 6608TIP3    H141239   3.026   2.537   3.968  2.4989  1.4252  2.4459
 6608TIP3    H241240   2.941   2.565   4.090  2.0571  0.0098  2.4715
 6609TIP3   OH241241   5.630   2.902   2.859 -0.5654 -0.5705  0.4920
 6609TIP3    H141242   5.568   2.973   2.870 -1.6211 -0.8675 -2.8957
 6609TIP3    H241243   5.685   2.905   2.937 -0.7496  3.7830  0.5759
 6610TIP3   OH241244   1.628   5.002   0.773  0.5259 -0.1405  0.0472
 6610TIP3    H141245   1.646   4.968   0.685 -0.3050  1.5882 -0.8057
 6610TIP3    H241246   1.709   4.984   0.822  1.1840 -0.6764 -1.2086
 6611TIP3   OH241247   2.650   4.876  13.079 -0.0164  0.0711  0.2091
 6611TIP3    H141248   2.600   4.804  13.041  0.2721 -0.5177  0.9454
 6611TIP3    H241249   2.725   4.887  13.020  1.4334 -2.0694  1.5788
 6612TIP3   OH241250   4.335   0.434   0.124 -0.6724  0.1622 -0.1399
 6612TIP3    H141251   4.418   0.390   0.106 -0.0867  1.7042 -1.3874
 6612TIP3    H241252   4.360   0.511   0.176 -1.4119  0.1863  0.1767
 6613TIP3   OH241253   2.241   6.010   3.090 -0.3037  0.3564 -0.5860
 6613TIP3    H141254   2.206   5.925   3.116 -0.5259  0.2643 -1.1628
 6613TIP3    H241255   2.294   6.038   3.164 -0.6257 -0.0603 -0.1935
 6614TIP3   OH241256   3.342   2.660   3.451 -0.3925  0.8329 -0.2973
 6614TIP3    H141257   3.433   2.643   3.429 -0.0015  2.7149 -0.2450
 6614TIP3    H241258   3.293   2.638   3.372  0.1768  0.4533 -0.5461
 6615TIP3   OH241259   2.701   1.218  16.101  0.4856  0.0003  0.2853
 6615TIP3    H141260   2.712   1.308  16.073  1.2260 -0.0117  0.5279
 6615TIP3    H241261   2.707   1.166  16.021  0.3450  0.1458  0.1823
 6616TIP3   OH241262   3.964   0.065   5.317  0.2856 -0.1772 -0.2744
 6616TIP3    H141263   3.874   0.055   5.348 -0.0154 -0.1868 -1.1482
 6616TIP3    H241264   4.012  -0.005   5.363 -0.1000 -0.0322  0.3648
 6617TIP3   OH241265   4.999   3.483   6.179 -0.3514  0.4157  0.1500
 6617TIP3    H141266   5.064   3.539   6.221 -0.0196  0.3575 -0.2838
 6617TIP3    H241267   4.920   3.538   6.172 -0.1175  0.7315 -0.0093
 6618TIP3   OH241268   2.377   3.725   4.259  0.8303  0.1735 -0.8686
 6618TIP3    H141269   2.420   3.805   4.227 -1.4268  1.1184 -1.6113
 6618TIP3    H241270   2.405   3.718   4.350  2.0704  1.1015 -1.1610
 6619TIP3   OH241271   6.482   0.869  16.365  0.6263 -0.6708  0.2608
 6619TIP3    H141272   6.575   0.873  16.391  1.4967  0.3491 -2.8305
 6619TIP3    H241273   6.448   0.793  16.412  3.0281 -1.0779  1.4354
 6620TIP3   OH241274   5.990   5.528  11.834 -0.3514 -0.2843  0.8444
 6620TIP3    H141275   5.999   5.446  11.882 -2.5191 -0.1064  1.6104
 6620TIP3    H241276   5.930   5.580  11.887  1.0866  1.8522  0.4118
 6621TIP3   OH241277   1.625   2.293   4.631 -0.4675 -0.4130 -0.0101
 6621TIP3    H141278   1.662   2.363   4.578 -1.3890  0.6195  0.6913
 6621TIP3    H241279   1.633   2.215   4.576  0.2047  0.3064 -0.9547
 6622TIP3   OH241280   1.629   5.338  12.665  0.3044  0.2253 -0.3759
 6622TIP3    H141281   1.693   5.310  12.730  1.3037 -0.2829 -1.5798
 6622TIP3    H241282   1.662   5.305  12.582 -1.5665 -0.1382 -1.0067
 6623TIP3   OH241283   2.223   4.022   5.479 -0.1482 -0.0789 -0.9960
 6623TIP3    H141284   2.162   4.052   5.412 -0.4040  0.5289 -0.4909
 6623TIP3    H241285   2.309   4.048   5.446 -0.3010  0.4997 -0.9427
 6624TIP3   OH241286   2.585   5.811   0.211  0.1502 -0.0235  0.0392
 6624TIP3    H141287   2.549   5.774   0.292  1.4868 -2.2396 -0.3417
 6624TIP3    H241288   2.523   5.783   0.143 -0.5926  1.2443  0.1734
 6625TIP3   OH241289   2.996   3.812  12.571 -0.5996  0.2910  0.7970
 6625TIP3    H141290   2.996   3.718  12.554  1.6651  0.4228 -0.2084
 6625TIP3    H241291   2.913   3.843  12.535 -0.4135 -1.0217 -0.8447
 6626TIP3   OH241292   1.910   4.407  10.801 -0.3725 -0.0293 -0.3736
 6626TIP3    H141293   1.926   4.476  10.737 -0.4636  0.0722 -0.2851
 6626TIP3    H241294   1.996   4.367  10.814 -0.3944 -0.2002 -0.7354
 6627TIP3   OH241295   2.286   1.695   4.029 -0.5782 -0.0888  0.1067
 6627TIP3    H141296   2.372   1.727   4.055 -0.5811 -0.8909  1.1358
 6627TIP3    H241297   2.264   1.745   3.950  1.5728 -1.0418 -1.1295
 6628TIP3   OH241298   2.371   6.642   4.820  0.3763  0.1344  0.4371
 6628TIP3    H141299   2.327   6.657   4.736  0.3878  0.1502  0.4337
 6628TIP3    H241300   2.334   6.560   4.853 -0.3298  0.6140  0.8626
 6629TIP3   OH241301   4.762   5.382   5.819 -0.0333 -0.2283 -0.0274
 6629TIP3    H141302   4.775   5.389   5.725 -2.9931  0.4606 -0.4257
 6629TIP3    H241303   4.700   5.452   5.840  2.2667  1.0989  2.8228
 6630TIP3   OH241304   6.227   3.410   5.261 -0.2698 -0.5056  0.7813
 6630TIP3    H141305   6.231   3.374   5.172 -0.5186 -0.5230  0.7743
 6630TIP3    H241306   6.306   3.464   5.269 -0.0953 -0.7414  0.6543
 6631TIP3   OH241307   3.388   0.625   0.590 -0.5763 -0.0189 -0.1181
 6631TIP3    H141308   3.361   0.563   0.522 -0.0069 -1.1134  0.6186
 6631TIP3    H241309   3.306   0.656   0.628 -0.8681 -1.9158  0.8787
 6632TIP3   OH241310   6.076   1.426   4.305  0.3784  0.0254 -0.1763
 6632TIP3    H141311   5.992   1.469   4.290  0.1049 -0.1930  0.7030
 6632TIP3    H241312   6.140   1.485   4.264  0.0468  1.4955  1.3581
 6633TIP3   OH241313   4.914   5.088  11.536  0.1165  0.0269  0.7103
 6633TIP3    H141314   4.890   5.102  11.627 -1.2618 -0.0742  0.3739
 6633TIP3    H241315   4.974   5.013  11.538 -0.5870 -0.5261  1.4529
 6634TIP3   OH241316   1.343   2.883  12.700 -0.1905  0.5791 -0.1580
 6634TIP3    H141317   1.314   2.881  12.791  0.7736  1.6878  0.1819
 6634TIP3    H241318   1.275   2.836  12.652  0.6726 -2.4902  1.5196
 6635TIP3   OH241319   1.640   4.209  14.162 -0.6283 -0.0201 -0.6062
 6635TIP3    H141320   1.582   4.283  14.180  0.5035  0.7823 -0.1063
 6635TIP3    H241321   1.704   4.212  14.234 -1.2980 -2.2534  0.1207
 6636TIP3   OH241322   4.802   2.123  11.950 -0.3351  0.3039  0.9116
 6636TIP3    H141323   4.770   2.189  11.889 -1.0291 -0.0379  0.8959
 6636TIP3    H241324   4.883   2.090  11.911 -0.1815  0.8872  0.7402
 6637TIP3   OH241325   5.655   4.764   2.687  0.5679  0.4586  0.2156
 6637TIP3    H141326   5.641   4.804   2.601  3.0392 -0.2771 -0.5667
 6637TIP3    H241327   5.581   4.794   2.740  0.0692  2.5198 -1.5874
 6638TIP3   OH241328   4.678   2.523  12.088  0.4761  0.1272 -0.6384
 6638TIP3    H141329   4.605   2.503  12.030 -0.4711 -0.0551  0.5799
 6638TIP3    H241330   4.686   2.619  12.086 -1.3543  0.3535  1.0227
 6639TIP3   OH241331   5.126   3.548   4.049  0.0102  0.2759  0.4440
 6639TIP3    H141332   5.076   3.494   4.111 -0.9893  0.9695  0.2585
 6639TIP3    H241333   5.145   3.489   3.976 -1.8571  0.3809 -0.1649
 6640TIP3   OH241334   5.004   0.326   0.363 -0.3980 -0.8128  0.0005
 6640TIP3    H141335   4.968   0.363   0.444 -1.5546 -0.0336 -0.8633
 6640TIP3    H241336   5.097   0.311   0.383 -0.0772  1.7957  0.6528
 6641TIP3   OH241337   5.574   3.211   6.095 -0.4041  0.4907  0.3333
 6641TIP3    H141338   5.502   3.264   6.064 -0.5520  0.6311  0.9003
 6641TIP3    H241339   5.620   3.267   6.159  1.8282  1.4137 -1.9960
 6642TIP3   OH241340   1.276   1.999   5.725  0.0933  0.2198 -0.1336
 6642TIP3    H141341   1.314   1.943   5.793  0.2738  1.8878  1.1676
 6642TIP3    H241342   1.344   2.065   5.707 -0.8439  1.1504 -0.2944
 6643TIP3   OH241343   3.078   5.708  15.420  0.3047 -0.0263  0.2341
 6643TIP3    H141344   3.146   5.742  15.477  1.2277 -2.0291  0.3565
 6643TIP3    H241345   3.124   5.677  15.342 -0.7586  1.0673 -0.8701
 6644TIP3   OH241346   2.109   0.504  15.070  1.0012  0.7257 -0.1348
 6644TIP3    H141347   2.160   0.573  15.113 -0.5730  0.3217  2.5051
 6644TIP3    H241348   2.027   0.547  15.045 -0.2732 -0.2800  2.1422
 6645TIP3   OH241349   6.401   4.778  13.390 -0.1776  0.1707  0.0480
 6645TIP3    H141350   6.318   4.741  13.418 -0.6333 -0.1463 -1.6810
 6645TIP3    H241351   6.467   4.714  13.419 -0.6254 -0.0966  0.4784
 6646TIP3   OH241352   0.943   2.429   4.492  0.3541  0.2842  0.5223
 6646TIP3    H141353   0.948   2.364   4.562 -0.0177 -0.3069  0.0073
 6646TIP3    H241354   0.854   2.463   4.498  0.0682 -0.3263 -0.1482
 6647TIP3   OH241355   5.411   5.320  15.656  0.7824  0.3610  0.6390
 6647TIP3    H141356   5.478   5.356  15.599 -1.2080 -1.3116 -2.9609
 6647TIP3    H241357   5.457   5.255  15.709  1.9984 -1.0448 -2.0451
 6648TIP3   OH241358   6.675   1.871  15.739  0.4386 -0.1408  0.2128
 6648TIP3    H141359   6.730   1.945  15.763  0.0677  0.2411 -0.1161
 6648TIP3    H241360   6.729   1.818  15.680  1.3226 -1.0338  1.7943
 6649TIP3   OH241361   2.001   1.446   1.637 -0.1777 -0.0066 -0.1772
 6649TIP3    H141362   2.046   1.441   1.721 -0.0663  1.9488 -0.1013
 6649TIP3    H241363   1.914   1.409   1.654 -0.9698  2.4474  1.4162
 6650TIP3   OH241364   3.211   6.283   5.510 -0.0994  0.3929 -0.2178
 6650TIP3    H141365   3.247   6.370   5.490 -0.3010  0.3937 -0.5777
 6650TIP3    H241366   3.209   6.238   5.426  0.6604 -0.2085  0.0842
 6651TIP3   OH241367   4.806   6.051  13.200 -0.1175 -0.3658  0.3674
 6651TIP3    H141368   4.793   6.032  13.107  2.0406  0.1644 -0.0716
 6651TIP3    H241369   4.878   5.994  13.227 -0.3105 -0.0627  1.5567
 6652TIP3   OH241370   6.637   0.923   0.953 -0.5371  0.0779 -0.0935
 6652TIP3    H141371   6.715   0.868   0.953 -0.7583 -0.2416  0.4185
 6652TIP3    H241372   6.649   0.981   1.029 -0.7978  0.0272 -0.0133
 6653TIP3   OH241373   4.276   3.532   4.920  0.2484  0.1648 -0.1453
 6653TIP3    H141374   4.222   3.498   4.849  0.3408 -0.5701  0.1321
 6653TIP3    H241375   4.364   3.539   4.882 -0.0712  1.5416 -0.6535
 6654TIP3   OH241376   1.069   3.139  10.899 -0.4241  0.2826 -0.0372
 6654TIP3    H141377   1.150   3.093  10.877 -0.3220  0.0111  0.8833
 6654TIP3    H241378   1.080   3.227  10.862  0.2519  0.2204  0.0075
 6655TIP3   OH241379   5.466   4.062   5.575  0.5894 -0.1010 -0.1970
 6655TIP3    H141380   5.509   4.105   5.500  1.4453  0.2200  0.4738
 6655TIP3    H241381   5.397   4.123   5.601  1.1952  0.4375  0.1574
 6656TIP3   OH241382   6.384   0.477   5.929 -0.3987  0.2140  0.1997
 6656TIP3    H141383   6.429   0.470   6.013 -1.5304 -4.9142  0.5371
 6656TIP3    H241384   6.292   0.491   5.952 -0.9963 -2.9475 -0.0179
 6657TIP3   OH241385   4.135   1.773  17.105  0.2440  0.3441 -0.3051
 6657TIP3    H141386   4.186   1.743  17.181 -2.2634 -0.8678  0.9892
 6657TIP3    H241387   4.162   1.864  17.092  1.3602  0.2982  1.5044
 6658TIP3   OH241388   0.490   6.587  13.966  0.1015 -0.6672  0.0199
 6658TIP3    H141389   0.584   6.568  13.969  0.2882  0.2732  0.4211
 6658TIP3    H241390   0.467   6.607  14.057 -0.3032 -0.0436 -0.2164
 6659TIP3   OH241391   4.669   5.689  15.059  0.1463 -0.0986  0.1805
 6659TIP3    H141392   4.676   5.624  14.989 -0.3054 -0.0748  0.1092
 6659TIP3    H241393   4.584   5.729  15.045  0.2168  0.1690  0.5210
 6660TIP3   OH241394   2.586   6.055  10.895  0.6748 -0.3571  0.1721
 6660TIP3    H141395   2.542   6.069  10.979  1.1590  1.4185  0.1455
 6660TIP3    H241396   2.648   5.984  10.912 -0.2009 -0.9462  0.9498
 6661TIP3   OH241397   6.452   1.277  14.965 -0.1553  0.1470  0.6165
 6661TIP3    H141398   6.361   1.301  14.946  0.3934  1.1729 -0.7516
 6661TIP3    H241399   6.477   1.219  14.893  0.4304  0.2450  0.7377
 6662TIP3   OH241400   6.502   2.207  12.778 -0.6417  0.4058 -0.1250
 6662TIP3    H141401   6.582   2.191  12.828  0.9328 -1.6634 -3.1563
 6662TIP3    H241402   6.452   2.269  12.832  3.8203  3.2654  1.0167
 6663TIP3   OH241403   6.647   1.369  13.438 -0.9799  0.0979 -0.4651
 6663TIP3    H141404   6.561   1.349  13.474 -1.9079  1.1935 -2.0132
 6663TIP3    H241405   6.689   1.284  13.427 -1.4216 -0.3698  1.3508
 6664TIP3   OH241406   4.831   6.577  13.321 -0.0657 -0.5778  0.2294
 6664TIP3    H141407   4.797   6.595  13.234  2.4837 -0.5114 -0.7967
 6664TIP3    H241408   4.813   6.657  13.371 -3.2827 -1.3301  0.3790
 6665TIP3   OH241409   3.540   0.842   3.760 -0.4282 -0.2927 -0.2705
 6665TIP3    H141410   3.613   0.899   3.737 -1.0471  0.1540 -1.1362
 6665TIP3    H241411   3.581   0.770   3.810  0.4332  0.5481  0.2538
 6666TIP3   OH241412   3.428   5.793   2.039  0.2247  0.2360  0.3269
 6666TIP3    H141413   3.506   5.752   2.000 -0.1470 -0.1629  0.0013
 6666TIP3    H241414   3.427   5.762   2.130  0.4630  0.2722  0.3426
 6667TIP3   OH241415   6.716   3.000   2.313 -0.2283 -0.0165  0.3518
 6667TIP3    H141416   6.684   3.076   2.362  0.5283 -0.5147  1.6665
 6667TIP3    H241417   6.651   2.931   2.330  0.3575 -0.3735  1.1935
 6668TIP3   OH241418   4.199   0.423  16.532  0.8725  0.0250  0.2507
 6668TIP3    H141419   4.204   0.462  16.619 -1.8591  1.9299 -0.3954
 6668TIP3    H241420   4.127   0.361  16.537  1.3048 -0.5447 -0.4159
 6669TIP3   OH241421   4.848   1.378   5.007 -0.0543  0.0771 -0.1287
 6669TIP3    H141422   4.860   1.366   4.913 -0.1907  1.0970 -0.2765
 6669TIP3    H241423   4.877   1.295   5.045 -0.2218 -0.4260 -1.0819
 6670TIP3   OH241424   3.049   4.928  13.289 -0.2183  0.9054  0.0365
 6670TIP3    H141425   2.970   4.903  13.337 -0.3685 -0.3474 -0.8315
 6670TIP3    H241426   3.021   5.002  13.234 -0.7830  0.4925 -0.2394
 6671TIP3   OH241427   3.069   1.116  14.509  0.7706 -0.5011  0.7966
 6671TIP3    H141428   3.035   1.198  14.473  2.7168 -0.0725 -0.0941
 6671TIP3    H241429   3.018   1.103  14.589 -0.8309  0.6028 -0.0055
 6672TIP3   OH241430   3.126   0.045   4.711  0.0548 -0.0737 -0.0286
 6672TIP3    H141431   3.137   0.027   4.804 -1.2623 -0.2550  0.0991
 6672TIP3    H241432   3.158  -0.034   4.667  1.5315  0.3662  0.2179
 6673TIP3   OH241433   1.524   0.088   0.499 -0.1053 -0.3032 -0.0428
 6673TIP3    H141434   1.491  -0.001   0.491 -0.3049 -0.3368  0.9966
 6673TIP3    H241435   1.567   0.089   0.585 -1.2770  0.9615  0.5494
 6674TIP3   OH241436   4.725   1.533   3.818 -0.1162 -0.1273 -0.2180
 6674TIP3    H141437   4.683   1.469   3.876  0.6108 -0.8196 -0.4523
 6674TIP3    H241438   4.806   1.490   3.789 -0.8709 -0.1523 -2.4275
 6675TIP3   OH241439   1.673   4.280   2.339  0.3428 -0.2931 -0.0039
 6675TIP3    H141440   1.735   4.236   2.280 -0.1138 -0.3442 -0.4505
 6675TIP3    H241441   1.587   4.264   2.299  0.1079  0.3691  0.2348
 6676TIP3   OH241442   2.323   6.084   3.627  0.1780 -0.5017 -0.0609
 6676TIP3    H141443   2.252   6.054   3.684 -0.3186 -0.3305 -0.5857
 6676TIP3    H241444   2.308   6.177   3.616 -0.3196 -0.7064 -1.2806
 6677TIP3   OH241445   6.740   4.457  12.500 -0.6336  0.1554 -0.4877
 6677TIP3    H141446   6.763   4.375  12.457 -0.9922 -0.4167  0.3919
 6677TIP3    H241447   6.713   4.431  12.589 -0.0639  1.2842  0.0278
 6678TIP3   OH241448   3.425   2.554  10.632 -0.0702  0.2280  0.3180
 6678TIP3    H141449   3.400   2.464  10.612  1.6817 -0.4682  1.1965
 6678TIP3    H241450   3.434   2.596  10.546 -2.1392 -0.0620 -0.0618
 6679TIP3   OH241451   5.281   1.448   0.296 -0.7622  0.0873  0.0369
 6679TIP3    H141452   5.336   1.484   0.365  0.4592 -0.0937 -0.8162
 6679TIP3    H241453   5.212   1.513   0.283  0.0633  0.9971  0.1377
 6680TIP3   OH241454   6.179   5.286  14.708 -0.2734 -0.0617 -0.7825
 6680TIP3    H141455   6.222   5.207  14.741 -0.3180 -0.0387 -0.6706
 6680TIP3    H241456   6.186   5.278  14.612  1.3129  0.6675 -0.7530
 6681TIP3   OH241457   2.196   1.286  16.041  0.5040 -0.4072 -0.3322
 6681TIP3    H141458   2.273   1.318  16.088  0.6252  0.3269 -0.9963
 6681TIP3    H241459   2.132   1.266  16.109  0.2159  1.8468  0.0959
 6682TIP3   OH241460   5.473   2.696   0.674  0.8639 -0.2398  0.7249
 6682TIP3    H141461   5.543   2.735   0.622 -1.0158 -0.3317 -1.9928
 6682TIP3    H241462   5.418   2.769   0.700 -0.0595 -0.5623 -0.3121
 6683TIP3   OH241463   1.228   2.324   0.320  0.0488 -0.1601  0.6508
 6683TIP3    H141464   1.319   2.313   0.348  0.5756 -0.0924 -0.9831
 6683TIP3    H241465   1.181   2.251   0.361  1.5896 -2.5713 -1.6749
 6684TIP3   OH241466   4.080   3.381   1.756 -0.7403 -0.0484  0.2444
 6684TIP3    H141467   4.152   3.422   1.707 -0.7176 -0.5732 -0.1620
 6684TIP3    H241468   4.044   3.453   1.809 -0.0469  0.2645  0.3059
 6685TIP3   OH241469   2.981   0.937  17.114  0.4231 -0.1714 -0.2576
 6685TIP3    H141470   2.916   1.006  17.100  0.8514  0.2116 -0.3793
 6685TIP3    H241471   2.968   0.911  17.205  0.3365  0.1563 -0.1736
 6686TIP3   OH241472   3.497   6.585  12.289  0.2559 -0.5157  0.9437
 6686TIP3    H141473   3.490   6.491  12.270  4.2891 -0.4467 -1.3655
 6686TIP3    H241474   3.449   6.627  12.217 -0.4062 -0.7298  1.2505
 6687TIP3   OH241475   1.125   0.985  16.296  0.5737 -0.2385 -0.5229
 6687TIP3    H141476   1.062   1.020  16.358  2.4097 -1.0186  1.8844
 6687TIP3    H241477   1.105   0.891  16.292  2.5288 -0.7930  1.5230
 6688TIP3   OH241478   4.333   4.251   0.793  0.8677  0.6170 -0.1420
 6688TIP3    H141479   4.267   4.190   0.759  1.0591 -0.2679  1.0675
 6688TIP3    H241480   4.294   4.337   0.779  0.6705  0.2498 -2.0405
 6689TIP3   OH241481   2.317   3.475   0.904 -0.1022 -0.2973  0.4528
 6689TIP3    H141482   2.397   3.522   0.880  0.6213 -1.4095  0.6809
 6689TIP3    H241483   2.264   3.540   0.950 -0.8027  1.4261 -2.6587
 6690TIP3   OH241484   2.889   0.931   5.720 -0.0878 -0.7629  0.2273
 6690TIP3    H141485   2.950   0.988   5.673 -0.0582 -1.0819 -0.1281
 6690TIP3    H241486   2.893   0.848   5.672 -3.2447  0.1836 -1.7747
 6691TIP3   OH241487   2.655   3.839  16.725  0.3255  0.8131  0.4702
 6691TIP3    H141488   2.738   3.794  16.707 -0.5336 -0.2198 -0.9817
 6691TIP3    H241489   2.652   3.911  16.662  1.0642  2.1425  1.8995
 6692TIP3   OH241490   4.943   0.332  14.830  0.8660 -0.4350  0.0076
 6692TIP3    H141491   4.932   0.377  14.747 -1.0798 -1.8719 -0.5471
 6692TIP3    H241492   4.988   0.395  14.886  0.8192  1.0985 -1.6486
 6693TIP3   OH241493   4.051   3.674  13.786 -0.1786  1.1099 -0.1843
 6693TIP3    H141494   4.049   3.687  13.691 -3.0992 -0.0043 -0.3065
 6693TIP3    H241495   4.092   3.588  13.797  1.1354  1.6932 -0.3361
 6694TIP3   OH241496   2.347   2.134  11.406 -0.8409  0.7103 -0.3302
 6694TIP3    H141497   2.399   2.205  11.444  1.6692 -0.7098 -0.9657
 6694TIP3    H241498   2.322   2.167  11.319 -0.5301  1.1914 -0.2396
 6695TIP3   OH241499   4.027   1.099  14.214  0.3918 -0.2736  0.2307
 6695TIP3    H141500   4.070   1.181  14.237  0.1263  0.1345 -0.7251
 6695TIP3    H241501   3.996   1.064  14.298 -0.7170  1.2925  0.4827
 6696TIP3   OH241502   0.240   2.890  15.276 -0.1451  0.1319  0.6058
 6696TIP3    H141503   0.265   2.812  15.326 -0.0241  0.0997  0.4951
 6696TIP3    H241504   0.311   2.951  15.292 -0.2479  0.2268  0.7043
 6697TIP3   OH241505   6.007   1.686   1.713  0.4433  0.7243 -0.0596
 6697TIP3    H141506   6.012   1.592   1.699 -1.3174  0.6833 -0.5106
 6697TIP3    H241507   5.992   1.723   1.625  2.4578  1.5477 -0.0882
 6698TIP3   OH241508   2.977   2.539  12.810 -0.8701  0.1253  0.2158
 6698TIP3    H141509   2.997   2.448  12.789 -0.2499  0.2143  0.4124
 6698TIP3    H241510   2.886   2.538  12.838 -1.6626 -0.0479 -2.2217
 6699TIP3   OH241511   2.970   6.389   2.958  0.0717  0.4218 -0.3019
 6699TIP3    H141512   3.020   6.438   2.893  1.1385 -1.1343 -0.6683
 6699TIP3    H241513   3.028   6.318   2.985  0.3496  1.9615  3.5915
 6700TIP3   OH241514   2.813   0.533   3.780  1.1520  0.6811  0.6394
 6700TIP3    H141515   2.747   0.602   3.786  0.9678  0.6214 -0.5428
 6700TIP3    H241516   2.767   0.454   3.811  0.3887  0.4672 -0.9863
 6701TIP3   OH241517   1.736   4.607   5.133 -0.4356  0.0796  0.1586
 6701TIP3    H141518   1.781   4.666   5.194 -0.8559 -0.4311  0.9657
 6701TIP3    H241519   1.727   4.659   5.053 -1.5641  1.4379  1.1335
 6702TIP3   OH241520   1.811   4.228  11.338 -0.0358 -0.0656 -0.4179
 6702TIP3    H141521   1.868   4.151  11.346 -0.8262 -0.5901  0.2142
 6702TIP3    H241522   1.837   4.268  11.255 -0.2477 -1.5352 -1.2258
 6703TIP3   OH241523   6.354   2.974  14.992 -0.1937  0.0673 -0.2475
 6703TIP3    H141524   6.338   2.889  14.950 -0.3469  0.0201 -0.0920
 6703TIP3    H241525   6.444   2.995  14.968  0.3096 -0.8001  0.8784
 6704TIP3   OH241526   1.176   4.214   1.690  0.4497  0.2173  0.1581
 6704TIP3    H141527   1.087   4.247   1.679 -0.1901 -1.2061  0.9655
 6704TIP3    H241528   1.197   4.174   1.605  0.2369  0.3538  0.0409
 6705TIP3   OH241529   3.741   5.343  11.635 -0.0643 -0.6814  0.1911
 6705TIP3    H141530   3.794   5.308  11.563 -0.6881 -1.8243  0.2878
 6705TIP3    H241531   3.772   5.296  11.712 -0.2814 -0.3700  0.4688
 6706TIP3   OH241532   5.554   6.670   0.811 -0.1231  0.3878  0.4992
 6706TIP3    H141533   5.493   6.617   0.761 -1.1844 -1.4541  3.6054
 6706TIP3    H241534   5.627   6.687   0.751 -1.3797 -1.6258 -1.6612
 6707TIP3   OH241535   2.279   5.647   5.942  0.0805 -0.5406 -0.3050
 6707TIP3    H141536   2.290   5.739   5.967 -0.1650 -0.8053  0.8289
 6707TIP3    H241537   2.368   5.614   5.933  0.1769  0.1086 -1.9150
 6708TIP3   OH241538   6.129   0.844   2.397  0.2037  0.3160 -0.1671
 6708TIP3    H141539   6.149   0.756   2.364  1.1352  0.0041  1.1819
 6708TIP3    H241540   6.034   0.848   2.398  0.0942 -1.4974  1.7889
 6709TIP3   OH241541   0.971   3.193   2.033 -0.2588  0.0060 -0.4591
 6709TIP3    H141542   0.992   3.169   2.124 -0.5985  0.7105 -0.1980
 6709TIP3    H241543   1.023   3.271   2.016 -1.1156  0.5694 -0.4827
 6710TIP3   OH241544   4.552   4.113  14.437 -0.3208  0.0869 -0.1553
 6710TIP3    H141545   4.546   4.090  14.345 -1.5205 -0.8614  0.1494
 6710TIP3    H241546   4.486   4.182  14.449 -1.9388 -1.5297  0.5068
 6711TIP3   OH241547   1.760   1.619   2.318 -0.8356  0.3181  0.5179
 6711TIP3    H141548   1.694   1.653   2.379  0.2405  2.4951  0.5255
 6711TIP3    H241549   1.818   1.694   2.303  0.7338 -1.1314 -0.6914
 6712TIP3   OH241550   1.529   5.318   1.172  0.3322 -0.3512 -0.1894
 6712TIP3    H141551   1.434   5.326   1.176  0.3336  0.7127 -1.9659
 6712TIP3    H241552   1.545   5.250   1.106  0.8293  0.7890 -1.2581
 6713TIP3   OH241553   0.285   4.458   1.152 -0.6232  0.1201  0.2770
 6713TIP3    H141554   0.359   4.498   1.107  0.8667 -1.1719  1.5389
 6713TIP3    H241555   0.314   4.369   1.172 -2.1018 -0.0420  1.7881
 6714TIP3   OH241556   1.348   3.614   1.009 -0.1993 -0.0027 -0.1032
 6714TIP3    H141557   1.417   3.656   0.958 -1.0312  2.3019  0.5955
 6714TIP3    H241558   1.395   3.563   1.076  0.8466 -1.4798 -1.9184
 6715TIP3   OH241559   6.341   4.389  15.982  0.1974 -0.6176 -0.0225
 6715TIP3    H141560   6.259   4.437  15.975  0.8986  0.7086  0.6186
 6715TIP3    H241561   6.400   4.448  16.029  0.6134 -2.6838  2.2343
 6716TIP3   OH241562   6.363   2.427   5.539  0.6721  0.3099  0.1854
 6716TIP3    H141563   6.306   2.439   5.615  1.3110  1.4756  0.4966
 6716TIP3    H241564   6.433   2.491   5.552  0.1540  1.3523 -1.9775
 6717TIP3   OH241565   4.529   4.800  16.875  0.0345 -0.4514  0.8054
 6717TIP3    H141566   4.450   4.747  16.867  0.9566 -1.5704 -1.4503
 6717TIP3    H241567   4.551   4.797  16.968 -1.6184 -1.5258  1.1759
 6718TIP3   OH241568   4.538   5.864  15.522  0.2310 -0.2439  0.0115
 6718TIP3    H141569   4.597   5.838  15.451 -1.6525 -2.5166 -0.7627
 6718TIP3    H241570   4.471   5.918  15.480 -0.8750 -1.5697  0.0411
 6719TIP3   OH241571   4.046   4.392   0.006 -0.1899  0.6724 -0.0047
 6719TIP3    H141572   3.977   4.380  -0.059  1.7484 -3.9569 -1.3861
 6719TIP3    H241573   4.111   4.446  -0.038  1.0956 -2.4008 -2.0311
 6720TIP3   OH241574   3.432   3.270   5.621  0.2135 -0.2673 -0.2484
 6720TIP3    H141575   3.515   3.288   5.664  0.1034 -1.8486  0.6788
 6720TIP3    H241576   3.444   3.184   5.580 -1.0077 -0.6071  0.0603
 6721TIP3   OH241577   3.659   0.297  16.729 -0.6214 -0.0807 -0.7744
 6721TIP3    H141578   3.573   0.263  16.704 -0.5376 -0.0030 -1.1674
 6721TIP3    H241579   3.654   0.391  16.712 -2.4965  1.0133  4.8031
 6722TIP3   OH241580   4.252   4.656   1.368 -0.5443 -0.1723  0.0615
 6722TIP3    H141581   4.305   4.598   1.423 -1.4917 -0.0114  1.1506
 6722TIP3    H241582   4.167   4.660   1.412 -0.3619  2.3914  0.2501
 6723TIP3   OH241583   2.580   2.681   5.368  0.1793  0.7415  0.1931
 6723TIP3    H141584   2.567   2.700   5.461  2.6779 -1.8962  1.1619
 6723TIP3    H241585   2.663   2.724   5.346  0.2215  0.3127 -0.5040
 6724TIP3   OH241586   4.329   3.192   1.047 -0.5637 -0.4846 -0.0450
 6724TIP3    H141587   4.401   3.142   1.084 -0.4169 -0.4631 -0.2979
 6724TIP3    H241588   4.332   3.276   1.093  0.5230  0.0770 -1.1232
 6725TIP3   OH241589   6.771   2.255   2.188 -0.0185 -0.0643  0.1806
 6725TIP3    H141590   6.812   2.287   2.108 -2.9703  0.6849 -1.1176
 6725TIP3    H241591   6.786   2.325   2.252 -0.6950  0.9840 -0.7663
 6726TIP3   OH241592   1.478   3.217   4.980 -0.3037 -0.2499  0.3688
 6726TIP3    H141593   1.403   3.189   5.033  0.0251 -1.2885  0.2970
 6726TIP3    H241594   1.444   3.221   4.890 -0.0853 -1.5274  0.2114
 6727TIP3   OH241595   1.172   2.530   0.510  0.1570 -0.1607 -0.3484
 6727TIP3    H141596   1.092   2.498   0.551 -1.7068  2.3839 -1.8422
 6727TIP3    H241597   1.197   2.462   0.449 -0.1361 -1.5429  1.0431
 6728TIP3   OH241598   0.050   0.514   2.289  0.1048 -0.1134 -0.0576
 6728TIP3    H141599   0.012   0.509   2.377 -0.2152  2.4876  0.0100
 6728TIP3    H241600   0.119   0.448   2.289 -0.6160 -0.9118  1.7811
 6729TIP3   OH241601   2.341   3.247   2.703 -0.8428 -0.6684 -0.0650
 6729TIP3    H141602   2.323   3.328   2.752  2.4814 -0.1410  0.3764
 6729TIP3    H241603   2.395   3.195   2.763  0.9927 -1.1789 -2.1240
 6730TIP3   OH241604   4.087   3.804   2.204  0.6323  0.0201  0.0108
 6730TIP3    H141605   4.041   3.738   2.257 -0.8801  1.4560  0.5114
 6730TIP3    H241606   4.119   3.756   2.128 -1.3282 -1.0854 -0.1310
 6731TIP3   OH241607   6.431   4.651   0.287  0.2589 -0.6126 -0.2472
 6731TIP3    H141608   6.433   4.686   0.375 -0.5360  1.7409 -1.1348
 6731TIP3    H241609   6.518   4.669   0.252 -0.0507  0.2335 -0.5974
 6732TIP3   OH241610   0.261   5.803  12.281  0.1035  0.1231  0.2010
 6732TIP3    H141611   0.184   5.754  12.253  0.5068 -0.8710  0.8145
 6732TIP3    H241612   0.308   5.822  12.200 -0.4883  0.2283 -0.1190
 6733TIP3   OH241613   4.190   3.822   0.236 -1.0948  0.1768 -0.2271
 6733TIP3    H141614   4.140   3.881   0.292 -0.9463 -1.0175  1.2122
 6733TIP3    H241615   4.162   3.734   0.264 -0.8044 -0.4395 -1.8427
 6734TIP3   OH241616   3.750   2.938   1.106  0.1851  0.7697  0.5834
 6734TIP3    H141617   3.726   3.013   1.052 -0.4620  0.3434  0.2869
 6734TIP3    H241618   3.810   2.975   1.171  0.9951  1.2754 -0.4315
 6735TIP3   OH241619   3.466   3.891   2.432 -0.0032  0.0578  0.4768
 6735TIP3    H141620   3.420   3.922   2.510  1.5284 -0.5317  1.6192
 6735TIP3    H241621   3.540   3.951   2.422  1.3460 -1.5002  1.0417
 6736TIP3   OH241622   3.039   5.222  16.642  0.0343  0.2936 -0.1093
 6736TIP3    H141623   2.993   5.146  16.678  0.1775 -0.1022 -0.7587
 6736TIP3    H241624   3.122   5.224  16.690  1.4183 -1.8755 -2.3132
 6737TIP3   OH241625   0.640   6.387  13.718  0.3324  0.0394 -0.2732
 6737TIP3    H141626   0.627   6.376  13.624  0.5274  1.4912 -0.4706
 6737TIP3    H241627   0.569   6.335  13.758 -1.4627  1.6621 -1.2580
 6738TIP3   OH241628   5.790   1.983   2.975 -0.9829 -0.4874 -0.5875
 6738TIP3    H141629   5.744   2.001   3.057 -0.5663  0.4716 -0.5586
 6738TIP3    H241630   5.725   1.994   2.907 -0.4962  2.1895 -0.6546
 6739TIP3   OH241631   6.739   1.579   5.317  0.0043 -0.1264 -1.0850
 6739TIP3    H141632   6.815   1.625   5.280 -0.1265  0.9981  0.0198
 6739TIP3    H241633   6.756   1.576   5.411 -2.0865  1.6122 -0.6160
 6740TIP3   OH241634   3.182   3.363   5.920 -0.4184  0.3814  0.0042
 6740TIP3    H141635   3.162   3.341   6.011 -1.0880  0.6814 -0.0709
 6740TIP3    H241636   3.098   3.362   5.875 -0.0597  0.0197 -0.6641
 6741TIP3   OH241637   6.082   4.993  12.128  0.5674  0.5728  0.1046
 6741TIP3    H141638   6.148   4.943  12.175  2.0621  1.0883 -1.3578
 6741TIP3    H241639   6.000   4.947  12.143  1.5563 -1.0660  0.5645
 6742TIP3   OH241640   0.942   4.180   3.330 -0.2408  0.6698 -0.7247
 6742TIP3    H141641   1.037   4.192   3.338  0.1589 -1.0316 -2.3816
 6742TIP3    H241642   0.933   4.090   3.297 -2.3846  1.1289 -1.4198
 6743TIP3   OH241643   2.691   3.927   3.525 -0.1945  0.0390  0.0737
 6743TIP3    H141644   2.625   3.922   3.455 -0.7411 -0.7855  0.6376
 6743TIP3    H241645   2.640   3.923   3.606  0.5898 -1.3745  0.5112
 6744TIP3   OH241646   1.398   6.207   4.030  0.8292 -0.2758 -0.1399
 6744TIP3    H141647   1.322   6.150   4.015  0.2809  0.6065 -0.8106
 6744TIP3    H241648   1.364   6.296   4.016  2.2984  0.0576 -1.8427
 6745TIP3   OH241649   4.888   5.726  15.694 -0.0705 -0.3354  0.1870
 6745TIP3    H141650   4.885   5.756  15.784  1.1583  1.1255 -0.2260
 6745TIP3    H241651   4.802   5.687  15.677 -1.0509  1.3137  1.3188
 6746TIP3   OH241652   3.968   3.727  14.218  0.1202 -0.1038 -0.0278
 6746TIP3    H141653   4.062   3.743  14.227 -0.1143  1.0834  0.3105
 6746TIP3    H241654   3.927   3.789  14.277 -0.8330 -1.6110  0.9180
 6747TIP3   OH241655   1.407   2.438  14.725  0.2479 -0.1369  0.3075
 6747TIP3    H141656   1.467   2.510  14.705 -0.2457  0.2042  0.0521
 6747TIP3    H241657   1.320   2.472  14.701 -0.0072 -0.7409  0.3845
 6748TIP3   OH241658   6.441   4.839  14.991  0.7028 -0.0891  0.4961
 6748TIP3    H141659   6.438   4.855  14.896  4.0862  0.9537  0.5154
 6748TIP3    H241660   6.391   4.911  15.029  0.1698  0.0316 -0.4066
 6749TIP3   OH241661   5.924   3.062  16.676  0.6261 -0.0493  0.1499
 6749TIP3    H141662   5.900   3.074  16.584  1.1691  1.0335  0.1341
 6749TIP3    H241663   5.843   3.079  16.725  1.1131  2.7981  0.0563
 6750TIP3   OH241664   3.478   6.541   3.400 -0.3473  0.4502 -0.2510
 6750TIP3    H141665   3.489   6.618   3.344  1.3408 -1.7701 -3.0866
 6750TIP3    H241666   3.556   6.540   3.455 -0.8204  1.2450  0.4544
 6751TIP3   OH241667   3.164   5.805  11.203 -0.3816 -0.1924 -0.4496
 6751TIP3    H141668   3.223   5.859  11.150  0.4273 -1.2767 -0.6741
 6751TIP3    H241669   3.210   5.722  11.212 -0.8525 -0.2659  1.3450
 6752TIP3   OH241670   3.280   4.659   0.036  0.5210 -0.3340 -0.2907
 6752TIP3    H141671   3.327   4.579   0.060  0.2599 -0.3878  0.0354
 6752TIP3    H241672   3.336   4.730   0.066  0.7701 -0.3930 -0.6127
 6753TIP3   OH241673   0.028   3.481  11.817 -0.8238  0.4047 -0.2452
 6753TIP3    H141674   0.030   3.386  11.833  0.9148  0.1937 -1.5553
 6753TIP3    H241675   0.015   3.519  11.904  2.9001 -0.9224  1.0187
 6754TIP3   OH241676   3.328   4.690   3.043 -0.1739  0.4718  0.1806
 6754TIP3    H141677   3.334   4.619   3.107  1.8148 -1.2746 -1.8658
 6754TIP3    H241678   3.259   4.662   2.983  0.9293 -0.0199 -0.8957
 6755TIP3   OH241679   1.463   1.138  12.670  0.2441  0.5251 -0.0055
 6755TIP3    H141680   1.498   1.148  12.582  0.8920 -2.6844 -0.1471
 6755TIP3    H241681   1.539   1.121  12.725 -0.4150 -0.0114  0.7629
 6756TIP3   OH241682   0.981   4.909  13.253 -0.3457 -0.2573 -0.0130
 6756TIP3    H141683   1.057   4.914  13.311  0.6117  0.7336 -1.2909
 6756TIP3    H241684   1.016   4.870  13.173 -0.6610  2.1449 -1.3750
 6757TIP3   OH241685   5.530   2.433   0.592 -0.1076  0.3258  0.6876
 6757TIP3    H141686   5.455   2.374   0.584  0.4782 -0.4702  1.0615
 6757TIP3    H241687   5.493   2.511   0.634 -0.6551 -0.2092  1.2263
 6758TIP3   OH241688   1.135   2.787  14.518 -0.1420 -0.1655 -0.2404
 6758TIP3    H141689   1.222   2.827  14.512 -0.4165  0.0583 -3.8528
 6758TIP3    H241690   1.078   2.857  14.550  0.9507 -0.2881  2.0527
 6759TIP3   OH241691   2.124   3.062  14.144  0.2299  0.4138 -0.3726
 6759TIP3    H141692   2.099   2.982  14.191  1.1002  1.3525  1.7469
 6759TIP3    H241693   2.220   3.058  14.139  0.1855  0.6025 -1.6224
 6760TIP3   OH241694   2.678   2.967  13.026 -0.0099 -0.0983 -0.4332
 6760TIP3    H141695   2.584   2.971  13.006 -0.0197  1.2288 -0.1741
 6760TIP3    H241696   2.693   2.875  13.049 -1.2218 -0.3575 -0.6040
 6761TIP3   OH241697   6.266   2.817   5.208  0.2869 -0.8408 -0.0597
 6761TIP3    H141698   6.236   2.843   5.295  1.5855 -0.3186  0.2459
 6761TIP3    H241699   6.196   2.845   5.149  0.4513  0.9437  0.5610
 6762TIP3   OH241700   5.114   6.296   1.380  0.2098 -0.1009  0.2339
 6762TIP3    H141701   5.170   6.219   1.394  0.3012 -0.2367 -0.8126
 6762TIP3    H241702   5.124   6.348   1.459 -1.2998 -2.0679  1.7679
 6763TIP3   OH241703   6.492   5.740   1.133 -0.0531 -0.1582 -0.1262
 6763TIP3    H141704   6.504   5.661   1.186 -0.8218 -0.2857 -0.1363
 6763TIP3    H241705   6.398   5.743   1.116  0.0340  0.5266 -0.4912
 6764TIP3   OH241706   4.610   5.263   1.400  0.1838 -0.0873 -0.4147
 6764TIP3    H141707   4.591   5.296   1.487 -1.1475 -1.1052 -0.3020
 6764TIP3    H241708   4.545   5.193   1.386 -0.4102  0.8816 -2.6812
 6765TIP3   OH241709   2.852   3.639  16.672  0.2108 -0.5338  0.1716
 6765TIP3    H141710   2.844   3.647  16.577 -2.2844 -1.2318  0.2987
 6765TIP3    H241711   2.879   3.548  16.686 -0.5771 -0.7663  0.1852
 6766TIP3   OH241712   1.142   0.273  12.767 -0.1303 -0.2157  0.0700
 6766TIP3    H141713   1.151   0.211  12.695 -1.0648  1.0070 -1.1146
 6766TIP3    H241714   1.217   0.332  12.756 -1.9426  1.8146 -1.7532
 6767TIP3   OH241715   2.315   5.385   6.615 -0.5464 -0.1541 -0.1168
 6767TIP3    H141716   2.325   5.396   6.521  1.2056 -0.3070  0.0384
 6767TIP3    H241717   2.294   5.293   6.627 -1.8904  0.1079 -0.4364
 6768TIP3   OH241718   4.102   2.200   2.741 -0.1835  0.3893  0.3159
 6768TIP3    H141719   4.027   2.259   2.738 -0.1372  0.4811  0.8272
 6768TIP3    H241720   4.159   2.238   2.809  1.0475  1.1942 -1.1242
 6769TIP3   OH241721   1.386   5.655  14.410  0.9054  0.3615  0.2451
 6769TIP3    H141722   1.430   5.598  14.473 -0.2847 -0.9810 -0.1248
 6769TIP3    H241723   1.294   5.655  14.437  0.9081  2.2752  0.3517
 6770TIP3   OH241724   1.272   5.823   0.360  0.5608 -0.6474 -0.0790
 6770TIP3    H141725   1.309   5.868   0.284  1.4340 -0.4430  0.4600
 6770TIP3    H241726   1.199   5.772   0.324  0.1772  0.4245 -0.8504
 6771TIP3   OH241727   4.748   5.407  13.853 -0.4115  0.2300 -0.0668
 6771TIP3    H141728   4.681   5.430  13.789 -0.0159 -1.1695 -1.0088
 6771TIP3    H241729   4.819   5.369  13.801  1.4359  2.3411  0.8420
 6772TIP3   OH241730   1.002   1.191  14.403  0.1159 -0.3425  0.4836
 6772TIP3    H141731   0.984   1.280  14.373  0.8046 -0.7302 -1.1116
 6772TIP3    H241732   0.968   1.134  14.334  1.9960 -1.2484  0.2750
 6773TIP3   OH241733   0.556   3.605   6.798  0.0072  0.2757  0.1554
 6773TIP3    H141734   0.490   3.614   6.867  0.2817  1.3274  0.2837
 6773TIP3    H241735   0.621   3.546   6.835  0.1311  0.8013  0.7875
 6774TIP3   OH241736   3.404   3.679  14.276  0.1891  0.1000  0.1232
 6774TIP3    H141737   3.438   3.701  14.189 -0.6665  0.8999 -0.0210
 6774TIP3    H241738   3.482   3.665  14.329  0.7257 -0.0356 -0.6806
 6775TIP3   OH241739   4.836   0.059  14.812 -0.1570 -0.2875  0.0694
 6775TIP3    H141740   4.799   0.051  14.723  0.4191 -0.7826 -0.1278
 6775TIP3    H241741   4.894   0.136  14.807 -0.5604  0.0265  0.1726
 6776TIP3   OH241742   5.124   0.373   4.643 -0.0823 -0.1153  0.0446
 6776TIP3    H141743   5.102   0.282   4.623  0.6424 -0.3438  0.2691
 6776TIP3    H241744   5.207   0.388   4.599 -0.3860  0.5568 -0.3031
 6777TIP3   OH241745   5.923   2.040   4.952  0.0447 -0.5317  0.0840
 6777TIP3    H141746   6.011   2.067   4.980 -0.1271 -0.3861  0.4847
 6777TIP3    H241747   5.928   2.039   4.857  1.0285 -2.3036  0.1206
 6778TIP3   OH241748   1.392   2.302   2.582 -0.1767 -0.2892  0.3210
 6778TIP3    H141749   1.350   2.244   2.645 -0.5334 -0.4765 -0.0885
 6778TIP3    H241750   1.354   2.388   2.600 -0.8905 -0.4951 -0.1810
 6779TIP3   OH241751   4.148   0.367   5.547  0.5259  0.3715  0.0186
 6779TIP3    H141752   4.067   0.317   5.554  0.7355  0.0657  0.2894
 6779TIP3    H241753   4.135   0.443   5.603  0.9823 -0.4281  1.2189
 6780TIP3   OH241754   1.928   0.558  14.045  0.7507 -0.0909  0.9994
 6780TIP3    H141755   1.935   0.501  13.968  0.8132 -0.1149  1.0218
 6780TIP3    H241756   1.987   0.631  14.026  0.0520  0.3825  0.6100
 6781TIP3   OH241757   5.203   1.481  12.050 -0.2014 -0.5096  0.4358
 6781TIP3    H141758   5.157   1.490  12.133  0.2233  1.0147  0.5314
 6781TIP3    H241759   5.258   1.560  12.045  0.7892 -1.2556 -0.6550
 6782TIP3   OH241760   3.933   6.366   0.082  0.3559  0.0232 -0.7207
 6782TIP3    H141761   3.886   6.424   0.022  0.2805 -0.2099 -0.8888
 6782TIP3    H241762   4.005   6.331   0.030 -0.0995 -0.6976 -0.8770
 6783TIP3   OH241763   6.368   3.634   0.746 -0.4441 -0.0146 -0.5796
 6783TIP3    H141764   6.343   3.598   0.831  0.5427  0.5907 -0.0248
 6783TIP3    H241765   6.438   3.576   0.716  0.6605  1.0029 -0.0087
 6784TIP3   OH241766   6.655   4.079   1.607  0.6349 -0.1715 -0.1388
 6784TIP3    H141767   6.677   3.990   1.633  3.5846  0.7012  0.6015
 6784TIP3    H241768   6.684   4.087   1.517  0.9857  0.2104  0.0019
 6785TIP3   OH241769   0.853   4.284  11.811  0.4460  0.3404  0.4561
 6785TIP3    H141770   0.911   4.318  11.879 -0.3092  2.3462  0.1169
 6785TIP3    H241771   0.767   4.320  11.832  0.3900  1.7606 -2.0787
 6786TIP3   OH241772   5.791   6.400   2.628  0.0561  0.2936 -0.1420
 6786TIP3    H141773   5.801   6.457   2.704  1.3790  1.3674 -1.0970
 6786TIP3    H241774   5.725   6.443   2.573  0.8284  0.7625 -0.7149
 6787TIP3   OH241775   4.602   0.374   0.018  0.0273 -0.1580  0.7896
 6787TIP3    H141776   4.613   0.290  -0.027 -2.1592  0.7624 -1.5916
 6787TIP3    H241777   4.689   0.414   0.017  0.1266 -0.3962 -2.1930
 6788TIP3   OH241778   1.597   2.192  14.781  0.0025 -0.2811 -0.1923
 6788TIP3    H141779   1.679   2.213  14.825  0.6984 -0.1467 -1.5313
 6788TIP3    H241780   1.553   2.277  14.770 -0.7223 -0.4462  1.2798
 6789TIP3   OH241781   4.516   4.935   3.242  0.6111  0.0546 -0.3045
 6789TIP3    H141782   4.492   5.022   3.275  0.5125  0.1150 -0.5305
 6789TIP3    H241783   4.539   4.885   3.320  0.1996  0.1395 -0.1276
 6790TIP3   OH241784   0.840   4.963  15.805  0.2686 -0.2797 -0.2768
 6790TIP3    H141785   0.763   5.005  15.842 -0.3370 -0.6128 -1.1428
 6790TIP3    H241786   0.907   4.971  15.873 -0.2419  0.8612  0.0892
 6791TIP3   OH241787   6.531   4.442   2.483  0.4403  0.4708 -0.1517
 6791TIP3    H141788   6.535   4.471   2.573 -1.6075 -0.7274  0.3737
 6791TIP3    H241789   6.599   4.375   2.475 -0.6598 -0.8450  1.1052
 6792TIP3   OH241790   2.874   4.184  11.860 -0.3605  0.2190 -0.0784
 6792TIP3    H141791   2.903   4.190  11.951 -0.1037 -1.2077 -0.0492
 6792TIP3    H241792   2.780   4.202  11.863 -0.8032 -2.0116  0.8037
 6793TIP3   OH241793   3.264   3.651  14.948 -0.5167  0.0867 -0.7253
 6793TIP3    H141794   3.288   3.701  14.871  0.7187 -0.2230 -0.5437
 6793TIP3    H241795   3.183   3.692  14.978  0.9166  2.5489 -0.0671
 6794TIP3   OH241796   3.623   4.637   5.468  0.3065  0.0866 -0.3660
 6794TIP3    H141797   3.619   4.731   5.450  0.2881 -0.1402 -1.5802
 6794TIP3    H241798   3.673   4.600   5.395 -1.3293 -1.0868 -0.9294
 6795TIP3   OH241799   2.299   6.608   2.891  0.6341 -0.2924 -0.9225
 6795TIP3    H141800   2.393   6.590   2.898  0.1804 -2.4948  0.0083
 6795TIP3    H241801   2.259   6.552   2.958 -1.0506  3.1848  1.1250
 6796TIP3   OH241802   6.321   3.889   4.494  0.2647 -0.5916  0.1708
 6796TIP3    H141803   6.308   3.979   4.463 -0.3170 -1.1617 -1.2925
 6796TIP3    H241804   6.393   3.896   4.557 -0.3402  1.0287  0.7238
 6797TIP3   OH241805   3.498   6.326  14.496 -0.0843 -0.2017 -0.1714
 6797TIP3    H141806   3.486   6.381  14.419 -0.7172  1.2697  0.9499
 6797TIP3    H241807   3.441   6.251  14.482 -1.5353  0.9257 -0.3408
 6798TIP3   OH241808   5.266   1.883  12.365 -0.8698 -0.2861 -0.4545
 6798TIP3    H141809   5.296   1.934  12.289 -0.6782 -2.4091 -1.8737
 6798TIP3    H241810   5.178   1.854  12.341 -2.4497  2.3312  1.8837
 6799TIP3   OH241811   1.466   5.222   5.122  0.6215 -0.1332  0.0342
 6799TIP3    H141812   1.468   5.189   5.212  1.6044  0.5350  0.2719
 6799TIP3    H241813   1.534   5.171   5.077 -0.5490 -1.1544 -0.5763
 6800TIP3   OH241814   3.984   4.377   0.280  0.2851 -0.0502 -0.2693
 6800TIP3    H141815   3.906   4.322   0.286 -0.8562  1.5319 -0.2479
 6800TIP3    H241816   3.995   4.392   0.186  0.4184 -0.0536 -0.2547
 6801TIP3   OH241817   2.106   5.402   3.007 -0.9106  0.1655 -0.0753
 6801TIP3    H141818   2.126   5.357   3.089 -1.9093 -0.8490 -0.3699
 6801TIP3    H241819   2.061   5.482   3.034 -0.7851  0.0823  0.3838
 6802TIP3   OH241820   0.651   0.967  15.075 -0.0595  0.5669 -0.5252
 6802TIP3    H141821   0.672   0.938  14.986  1.2172 -1.1830  0.3174
 6802TIP3    H241822   0.608   0.892  15.115  0.5369  0.9028  0.7579
 6803TIP3   OH241823   1.087   3.188  16.721  0.5463  0.2115 -0.0054
 6803TIP3    H141824   1.058   3.279  16.713  1.6082  0.5145 -0.5355
 6803TIP3    H241825   1.182   3.193  16.717  0.6930 -0.7565  1.8821
 6804TIP3   OH241826   1.941   4.401   2.814 -0.1336 -0.5660  0.6399
 6804TIP3    H141827   1.992   4.388   2.894  0.6594 -2.0193 -0.0750
 6804TIP3    H241828   2.005   4.431   2.749 -0.7266  0.3604  0.4712
 6805TIP3   OH241829   0.910   5.731   2.639  0.0662  0.9608  0.6844
 6805TIP3    H141830   0.936   5.662   2.699 -0.8142 -1.2089 -1.3651
 6805TIP3    H241831   0.816   5.720   2.628  0.3138  0.8483 -1.6497
 6806TIP3   OH241832   5.835   5.833   0.427 -0.1433  0.2912  0.0774
 6806TIP3    H141833   5.789   5.883   0.495  0.8408  0.4662  0.6210
 6806TIP3    H241834   5.876   5.760   0.474 -0.1982 -0.1004 -0.4670
 6807TIP3   OH241835   4.552   4.442   3.244 -0.8589  0.1318 -0.1471
 6807TIP3    H141836   4.565   4.520   3.299  0.4925  0.7132 -1.2620
 6807TIP3    H241837   4.591   4.371   3.295 -2.4021  0.0855  1.0313
 6808TIP3   OH241838   4.376   4.053  13.521  0.8741  0.1085 -0.2971
 6808TIP3    H141839   4.366   3.967  13.481 -1.3486 -0.4556  1.3931
 6808TIP3    H241840   4.340   4.114  13.457 -0.5891 -0.5544 -0.1086
 6809TIP3   OH241841   3.540   1.315   2.095 -0.1559  0.5803  0.3818
 6809TIP3    H141842   3.533   1.229   2.135 -0.2422  0.3878 -0.0422
 6809TIP3    H241843   3.451   1.348   2.092 -0.3298  0.0100 -0.9185
 6810TIP3   OH241844   6.717   4.187  16.537 -0.4863  0.1206  0.0298
 6810TIP3    H141845   6.812   4.189  16.532 -0.4436 -0.0256  0.7738
 6810TIP3    H241846   6.688   4.234  16.458  0.1988  0.5053  0.0011
 6811TIP3   OH241847   3.200   2.726  15.346  0.2564 -0.4137 -0.0487
 6811TIP3    H141848   3.180   2.695  15.258  0.8498  2.0075 -1.0898
 6811TIP3    H241849   3.120   2.713  15.396  0.1416 -2.4599 -0.7423
 6812TIP3   OH241850   2.391   5.048   4.606  0.5592 -0.2831 -0.6298
 6812TIP3    H141851   2.315   5.072   4.552  0.4308  0.3789 -0.1582
 6812TIP3    H241852   2.390   4.952   4.606  0.2601 -0.2870 -1.3801
 6813TIP3   OH241853   6.436   4.129  16.088 -0.0257  0.1738 -0.5596
 6813TIP3    H141854   6.420   4.213  16.046  1.2547  0.7992  0.1796
 6813TIP3    H241855   6.351   4.103  16.123 -0.3448  1.3394 -0.4620
 6814TIP3   OH241856   1.691   5.552   1.970  0.2046 -0.5019 -0.4066
 6814TIP3    H141857   1.660   5.483   2.029 -0.9991  0.8854  0.6160
 6814TIP3    H241858   1.749   5.605   2.024 -1.2758  1.0496 -0.2982
 6815TIP3   OH241859   5.213   1.929   1.301 -0.2850  1.4994  0.3739
 6815TIP3    H141860   5.259   1.862   1.251 -1.7896 -0.4570  1.5329
 6815TIP3    H241861   5.277   1.958   1.366 -0.1059 -0.0060  0.9004
 6816TIP3   OH241862   0.913   1.201  17.004  0.0173  0.5360  0.1275
 6816TIP3    H141863   0.853   1.142  17.049 -0.7710  0.7995 -0.5740
 6816TIP3    H241864   0.856   1.260  16.954  0.9128 -1.3109 -3.2176
 6817TIP3   OH241865   4.897   5.362   3.175  0.2753  0.1803  0.8058
 6817TIP3    H141866   4.857   5.322   3.252  1.1127 -1.3814  0.4587
 6817TIP3    H241867   4.849   5.324   3.101  2.2649 -1.6048  0.3908
 6818TIP3   OH241868   1.705   4.353  14.747  0.7939  0.2734 -0.6595
 6818TIP3    H141869   1.645   4.361  14.821  1.1850 -0.7045 -0.2329
 6818TIP3    H241870   1.698   4.438  14.702  2.4833  1.8810  1.9562
 6819TIP3   OH241871   3.510   4.381   3.862 -0.0582 -0.8839  0.3878
 6819TIP3    H141872   3.562   4.458   3.884 -0.4352 -0.5130 -0.0225
 6819TIP3    H241873   3.544   4.312   3.919 -0.2204 -0.2269  1.2913
 6820TIP3   OH241874   4.286   4.848  12.628 -0.0795  0.7354  0.7619
 6820TIP3    H141875   4.352   4.883  12.567 -0.4910 -1.5612 -1.0528
 6820TIP3    H241876   4.338   4.806  12.697  0.3679  2.1130  1.2886
 6821TIP3   OH241877   4.562   1.279  13.044 -0.0412 -0.6035  0.1051
 6821TIP3    H141878   4.559   1.200  12.990  0.6306  0.5257 -1.6204
 6821TIP3    H241879   4.621   1.338  12.996 -1.8206  1.5654  0.5391
 6822TIP3   OH241880   0.452   2.911  13.614 -0.7543 -0.4390  0.0660
 6822TIP3    H141881   0.402   2.830  13.625 -0.8278 -0.3696  0.2581
 6822TIP3    H241882   0.506   2.916  13.693 -0.3749 -0.5595 -0.1843
 6823TIP3   OH241883   3.050   6.064  11.489 -0.2168 -0.2422  0.2087
 6823TIP3    H141884   3.023   6.152  11.516  0.6935  0.1005  0.0213
 6823TIP3    H241885   3.068   6.071  11.395 -1.2905 -0.9172 -0.0567
 6824TIP3   OH241886   1.215   4.152  12.224  0.2260  1.1074 -0.0611
 6824TIP3    H141887   1.223   4.246  12.243 -0.4669  1.6284 -2.1644
 6824TIP3    H241888   1.296   4.130  12.178 -0.2751  1.0466 -0.9283
 6825TIP3   OH241889   4.933   0.639  12.445 -0.4870 -0.0859  0.0138
 6825TIP3    H141890   4.929   0.575  12.374  1.7116 -1.2204  0.8783
 6825TIP3    H241891   4.851   0.628  12.493  0.1510 -2.7489  0.5544
 6826TIP3   OH241892   3.176   6.630  13.746 -0.6048  0.7656 -0.4016
 6826TIP3    H141893   3.128   6.617  13.664  1.4013  1.6518 -1.7803
 6826TIP3    H241894   3.136   6.707  13.785 -0.9187  0.9488 -1.0737
 6827TIP3   OH241895   4.179   5.651  15.506 -0.3839  0.3322  0.0875
 6827TIP3    H141896   4.193   5.745  15.515 -2.7302  1.1006 -3.2747
 6827TIP3    H241897   4.086   5.638  15.523 -0.5037 -1.0521 -1.4942
 6828TIP3   OH241898   5.407   3.927  12.961  0.0003  0.9877  0.3696
 6828TIP3    H141899   5.442   3.927  12.872  0.7210  1.0666  0.6468
 6828TIP3    H241900   5.341   3.996  12.961 -2.3913 -1.2551 -1.0057
 6829TIP3   OH241901   5.881   4.356  15.700  0.0931  0.2643 -0.5175
 6829TIP3    H141902   5.876   4.312  15.785 -1.6325 -0.7614 -1.1328
 6829TIP3    H241903   5.967   4.399  15.701  0.3177 -0.1712  1.5232
 6830TIP3   OH241904   2.042   4.471   1.308 -0.3491 -0.6649 -0.3340
 6830TIP3    H141905   2.041   4.443   1.399 -0.1070  0.6632  0.0850
 6830TIP3    H241906   2.070   4.563   1.311 -0.6523 -0.5150 -1.7121
 6831TIP3   OH241907   6.183   0.576  13.855  0.1395 -0.1198 -0.5272
 6831TIP3    H141908   6.125   0.535  13.790 -1.0388  0.0052  0.4249
 6831TIP3    H241909   6.240   0.504  13.884 -0.1488 -0.4647 -0.8072
 6832TIP3   OH241910   0.527   1.511  15.772 -0.3075  0.1418 -0.0484
 6832TIP3    H141911   0.436   1.508  15.742 -0.6332 -0.5413  0.9467
 6832TIP3    H241912   0.520   1.512  15.868  0.7420 -0.7727  0.0505
 6833TIP3   OH241913   1.092   5.606  13.297 -0.3945  0.2399  0.6850
 6833TIP3    H141914   1.021   5.542  13.290 -1.0906  1.1574 -0.9122
 6833TIP3    H241915   1.117   5.625  13.206  2.4635 -0.6728  1.2251
 6834TIP3   OH241916   3.730   1.453   4.838  0.2764  0.2139  0.5129
 6834TIP3    H141917   3.660   1.460   4.904  0.3661  1.0499  0.5233
 6834TIP3    H241918   3.701   1.510   4.767  0.7429  0.2109  0.3217
 6835TIP3   OH241919   1.454   1.120  14.505 -0.0870 -0.7191 -0.5556
 6835TIP3    H141920   1.482   1.105  14.595  0.2113  0.2351 -0.4794
 6835TIP3    H241921   1.377   1.176  14.514  1.2589  1.2554 -0.9564
 6836TIP3   OH241922   2.592   1.997   2.740  0.4945  0.2672  0.6681
 6836TIP3    H141923   2.646   2.002   2.819 -0.0304  1.4179  0.9726
 6836TIP3    H241924   2.516   1.944   2.764  1.3778 -1.1908  0.2959
 6837TIP3   OH241925   3.216   2.412  11.754  0.6601 -0.1748  0.2538
 6837TIP3    H141926   3.272   2.471  11.704  1.7078 -0.3481  1.2114
 6837TIP3    H241927   3.149   2.384  11.691  0.9243  0.9804 -0.5676
 6838TIP3   OH241928   3.694   4.413   3.045  0.0643  0.0535  0.2075
 6838TIP3    H141929   3.717   4.501   3.075  2.0784  0.0402 -1.2311
 6838TIP3    H241930   3.665   4.368   3.124  3.0131  0.7495  1.7713
 6839TIP3   OH241931   3.394   6.608   3.934 -0.2524  0.3012 -0.6575
 6839TIP3    H141932   3.489   6.604   3.947 -0.1099  2.5164 -0.8832
 6839TIP3    H241933   3.362   6.663   4.005 -1.3814 -0.3524 -0.6377
 6840TIP3   OH241934   3.704   0.519   1.833  0.7868 -0.1960  0.3475
 6840TIP3    H141935   3.757   0.597   1.815  0.9758 -0.1728  1.0043
 6840TIP3    H241936   3.747   0.450   1.783  0.4347  0.1806 -0.4914
 6841TIP3   OH241937   4.622   1.119  16.431 -0.2159  0.6880 -0.4421
 6841TIP3    H141938   4.591   1.209  16.440  1.6978  1.6069 -2.3971
 6841TIP3    H241939   4.700   1.116  16.486  1.1347  0.9845 -2.3086
 6842TIP3   OH241940   0.508   5.587  12.360  0.3948  0.2923  0.0734
 6842TIP3    H141941   0.505   5.542  12.444  0.3312 -0.8417 -0.5320
 6842TIP3    H241942   0.418   5.583  12.327  0.2059  1.5973  0.3914
 6843TIP3   OH241943   2.788   1.388  12.980 -0.0682 -0.2943 -0.0476
 6843TIP3    H141944   2.804   1.368  13.072  0.5125 -0.4008 -0.1701
 6843TIP3    H241945   2.692   1.391  12.972 -0.1043  2.9786  1.2471
 6844TIP3   OH241946   5.419   2.363   1.554  0.2542  0.4123 -0.4571
 6844TIP3    H141947   5.399   2.331   1.642 -2.7671 -1.0656 -1.6031
 6844TIP3    H241948   5.370   2.445   1.547  1.4318  1.1400 -0.3959
 6845TIP3   OH241949   2.716   1.649   0.271  0.2882 -0.2112  0.2313
 6845TIP3    H141950   2.673   1.634   0.355  0.5684  2.3074  0.8752
 6845TIP3    H241951   2.646   1.679   0.213  0.4449 -0.0836  0.1082
 6846TIP3   OH241952   3.931   4.995  15.883  0.6619 -0.1509 -0.7097
 6846TIP3    H141953   3.994   4.925  15.863  1.6931  0.4578  0.2976
 6846TIP3    H241954   3.982   5.059  15.932 -0.4680  0.9453 -0.9468
 6847TIP3   OH241955   5.591   2.475   3.126  0.0884  0.6873  0.0281
 6847TIP3    H141956   5.602   2.560   3.084 -0.5420  0.3300 -0.8776
 6847TIP3    H241957   5.667   2.467   3.183  2.7018 -0.1714 -3.3925
 6848TIP3   OH241958   4.042   6.774   3.990 -0.5418  0.1981 -0.2932
 6848TIP3    H141959   4.014   6.712   3.922 -0.1097 -0.9405  0.5558
 6848TIP3    H241960   4.033   6.860   3.948  2.0655 -0.6094 -2.6820
 6849TIP3   OH241961   4.657   4.901   1.780  0.0342 -0.0732 -0.0178
 6849TIP3    H141962   4.599   4.920   1.706 -0.2884  1.1620  0.5465
 6849TIP3    H241963   4.743   4.887   1.740 -0.5425 -1.4702 -0.8134
 6850TIP3   OH241964   5.220   1.341   6.104  0.2905  0.5151 -0.2467
 6850TIP3    H141965   5.171   1.318   6.183  0.9727 -0.1011 -0.0110
 6850TIP3    H241966   5.309   1.312   6.120 -0.0294 -1.6104 -2.1257
 6851TIP3   OH241967   2.922   5.019  14.944 -0.0457  0.2358  0.4529
 6851TIP3    H141968   2.963   5.066  15.016 -2.6040  0.5154  1.7753
 6851TIP3    H241969   2.920   4.928  14.972 -1.1955  0.3695  0.8437
 6852TIP3   OH241970   4.237   3.557   0.440  0.1789 -0.1020  0.1120
 6852TIP3    H141971   4.197   3.631   0.486  0.0395 -0.9255  1.3324
 6852TIP3    H241972   4.209   3.481   0.490  0.8061 -0.9322 -0.8016
 6853TIP3   OH241973   3.824   2.682  14.191  0.2859 -0.0866 -0.3455
 6853TIP3    H141974   3.740   2.644  14.164  1.2708 -1.8081 -1.1062
 6853TIP3    H241975   3.836   2.757  14.133 -0.6932  0.1226 -0.2831
 6854TIP3   OH241976   2.231   0.759  15.236 -0.3316  0.2255  0.4147
 6854TIP3    H141977   2.141   0.787  15.253 -0.4284  0.1324  0.0540
 6854TIP3    H241978   2.280   0.841  15.225 -0.7332  0.2464 -1.2528
 6855TIP3   OH241979   6.493   3.550   4.609 -0.0581 -0.0468 -0.0445
 6855TIP3    H141980   6.494   3.645   4.598  0.0015 -0.2596 -2.0365
 6855TIP3    H241981   6.481   3.537   4.703  1.9038  1.9354  0.5245
 6856TIP3   OH241982   6.782   5.914  10.103  0.2689  0.4359 -0.1526
 6856TIP3    H141983   6.857   5.973  10.096  0.8350 -0.3675 -1.1174
 6856TIP3    H241984   6.816   5.829  10.074 -0.8955 -0.0449 -0.1472
 6857TIP3   OH241985   2.136   1.562   4.628  0.3433 -0.3641 -0.1781
 6857TIP3    H141986   2.073   1.634   4.623  1.8378  1.0607  0.9551
 6857TIP3    H241987   2.221   1.606   4.637  1.3194 -2.2683 -0.0310
 6858TIP3   OH241988   3.049   1.841  12.656 -0.1811  0.8900  0.3092
 6858TIP3    H141989   3.032   1.810  12.745  1.8049 -0.4134  0.2787
 6858TIP3    H241990   3.001   1.780  12.600 -0.5177  1.0289  0.4481
 6859TIP3   OH241991   5.738   3.974   5.766 -0.1888 -0.1711 -0.3327
 6859TIP3    H141992   5.649   3.955   5.797 -0.4220  1.5527  0.0840
 6859TIP3    H241993   5.795   3.946   5.838 -0.3058 -2.2804 -1.0316
 6860TIP3   OH241994   0.311   0.678   6.174  0.4692  0.0028 -0.1159
 6860TIP3    H141995   0.333   0.630   6.095  1.1327 -0.5988  0.4343
 6860TIP3    H241996   0.393   0.718   6.202 -0.0527  1.4123 -0.5267
 6861TIP3   OH241997   0.200   5.155   2.273  0.0173  0.1550  0.1839
 6861TIP3    H141998   0.188   5.236   2.323  0.1177 -0.5246  1.3497
 6861TIP3    H241999   0.126   5.099   2.300  0.1526 -0.2733 -0.3207
 6862TIP3   OH242000   1.620   2.117   3.674  0.5175 -0.2920 -0.1441
 6862TIP3    H142001   1.637   2.075   3.758 -0.7790  1.0906  0.8270
 6862TIP3    H242002   1.692   2.179   3.663 -0.6115  1.2380  1.0864
 6863TIP3   OH242003   3.551   1.566  16.931 -0.0640  0.2114  0.3185
 6863TIP3    H142004   3.459   1.556  16.956 -0.2258  0.2434 -0.2647
 6863TIP3    H242005   3.599   1.520  17.000 -0.6746 -2.4300 -0.9396
 6864TIP3   OH242006   0.494   1.058   2.047 -0.1477  0.5957 -0.3735
 6864TIP3    H142007   0.578   1.045   2.090  0.2285  0.5095 -1.1209
 6864TIP3    H242008   0.439   0.987   2.079  0.0279  0.7217  0.2067
 6865TIP3   OH242009   0.777   5.524   2.006  0.4912  0.7490 -0.1214
 6865TIP3    H142010   0.784   5.453   1.942  0.5850  0.6339  0.0170
 6865TIP3    H242011   0.719   5.588   1.964  0.0232  0.3786 -0.0508
 6866TIP3   OH242012   3.676   1.007   5.449  0.0970 -0.1225  0.0395
 6866TIP3    H142013   3.741   0.980   5.384  2.2720  0.0402  2.0783
 6866TIP3    H242014   3.655   1.097   5.426  0.7653 -0.1074 -0.5341
 6867TIP3   OH242015   6.662   2.685  15.544  0.5514  0.6690 -1.0269
 6867TIP3    H142016   6.680   2.765  15.495  2.3125  1.7272  1.2115
 6867TIP3    H242017   6.743   2.635  15.539 -0.1129 -0.3950 -1.3370
 6868TIP3   OH242018   4.477   0.034   1.094  0.1847 -0.0794  0.3004
 6868TIP3    H142019   4.449  -0.057   1.100 -0.3083  0.0923  0.6402
 6868TIP3    H242020   4.571   0.029   1.080 -0.2481 -0.7007 -2.5561
 6869TIP3   OH242021   1.006   5.066   1.990 -0.3663  0.2137  0.2176
 6869TIP3    H142022   0.989   5.147   1.942  0.0117 -0.4392 -1.0597
 6869TIP3    H242023   0.934   5.007   1.965  0.1682 -0.3390 -0.0388
 6870TIP3   OH242024   3.203   5.385  15.254 -0.3472  0.2045  0.5424
 6870TIP3    H142025   3.229   5.477  15.252 -0.5654  0.2572  0.0158
 6870TIP3    H242026   3.225   5.356  15.343  0.0595  0.6632  0.5963
 6871TIP3   OH242027   0.065   3.461   2.712  0.1080  0.0630  0.2453
 6871TIP3    H142028   0.091   3.437   2.801 -2.7366  0.7831  1.3054
 6871TIP3    H242029   0.014   3.387   2.680  0.5123  0.1112 -0.5325
 6872TIP3   OH242030   0.911   4.350   2.992 -0.9442 -0.3953  0.1654
 6872TIP3    H142031   0.992   4.386   2.956 -1.7001 -0.3769 -1.5645
 6872TIP3    H242032   0.903   4.391   3.078  0.5041  0.1572  0.0525
 6873TIP3   OH242033   1.013   2.413   0.689  0.3592 -0.1044 -0.0223
 6873TIP3    H142034   0.922   2.404   0.661 -0.3597 -1.4545  2.5705
 6873TIP3    H242035   1.027   2.338   0.747  3.5860 -0.7184 -1.4962
 6874TIP3   OH242036   4.055   0.814  12.568  0.0979  0.2623  0.0580
 6874TIP3    H142037   4.068   0.848  12.479 -0.0138 -1.2044 -0.5355
 6874TIP3    H242038   4.088   0.724  12.563  0.7307  0.4023  1.6874
 6875TIP3   OH242039   0.200   0.804  14.323 -0.2084  0.0068 -0.3441
 6875TIP3    H142040   0.271   0.816  14.385 -0.5331 -0.3037  0.0905
 6875TIP3    H242041   0.133   0.756  14.372  0.0194 -1.2993 -1.2922
 6876TIP3   OH242042   6.139   3.769   3.587 -0.5397 -0.0454  0.1170
 6876TIP3    H142043   6.087   3.775   3.667 -1.2244  0.7257 -0.3734
 6876TIP3    H242044   6.205   3.702   3.605  0.7705  1.7385  2.1380
 6877TIP3   OH242045   2.816   0.582   4.829  0.4644 -0.0340 -0.0219
 6877TIP3    H142046   2.770   0.540   4.756 -1.4203  0.5033  0.8456
 6877TIP3    H242047   2.891   0.525   4.845 -0.1373 -1.1787 -1.1595
 6878TIP3   OH242048   4.641   4.103   0.385  0.5667  0.2960  0.2312
 6878TIP3    H142049   4.707   4.071   0.324 -0.1151  0.4658 -0.6091
 6878TIP3    H242050   4.558   4.082   0.343  0.0064 -2.2022  2.4198
 6879TIP3   OH242051   6.658   1.149  11.801  0.0282 -0.0149 -0.3621
 6879TIP3    H142052   6.750   1.143  11.774  0.9724  1.4342  2.2744
 6879TIP3    H242053   6.624   1.226  11.756  0.4666  0.1877 -0.3446
 6880TIP3   OH242054   5.045   5.698  11.414 -0.0736 -0.0934 -0.3386
 6880TIP3    H142055   5.119   5.702  11.474  0.6318  1.5443 -1.2638
 6880TIP3    H242056   5.015   5.607  11.418  1.3583 -0.5380  0.7855
 6881TIP3   OH242057   0.760   2.590  12.137  0.2150  0.0616  0.1324
 6881TIP3    H142058   0.718   2.670  12.170  0.7821  0.5860 -0.4085
 6881TIP3    H242059   0.687   2.535  12.108 -0.2733 -0.2555  1.9053
 6882TIP3   OH242060   4.160   5.238  11.668 -0.0961 -0.5627 -0.0799
 6882TIP3    H142061   4.201   5.186  11.599  0.4331 -0.1079 -0.1139
 6882TIP3    H242062   4.197   5.326  11.657  0.4442 -0.6233  1.1407
 6883TIP3   OH242063   3.668   3.126  14.010 -0.8757 -0.3999  0.2152
 6883TIP3    H142064   3.675   3.214  13.972  1.7235 -1.0336 -0.9032
 6883TIP3    H242065   3.686   3.138  14.103  0.3492  0.1425 -0.0864
 6884TIP3   OH242066   2.408   3.989  12.513  0.2758 -0.0711 -0.1353
 6884TIP3    H142067   2.327   3.978  12.462 -0.6457  1.9294  0.8443
 6884TIP3    H242068   2.379   3.986  12.604  1.1324  1.8363  0.2159
 6885TIP3   OH242069   2.575   5.533   3.296  0.5506 -0.1896  0.3358
 6885TIP3    H142070   2.660   5.503   3.329  0.5933  0.0106  0.4119
 6885TIP3    H242071   2.567   5.622   3.330 -0.4246 -0.7775  1.6947
 6886TIP3   OH242072   4.112   6.374   3.583  0.0456  0.7094 -0.1069
 6886TIP3    H142073   4.172   6.422   3.526  1.3591  0.0252  0.6984
 6886TIP3    H242074   4.068   6.442   3.634 -0.1885  1.2383 -0.9909
 6887TIP3   OH242075   4.040   4.650  16.332  0.3312  0.1144  0.0871
 6887TIP3    H142076   4.112   4.642  16.269 -0.0545  1.0417 -0.4813
 6887TIP3    H242077   3.972   4.699  16.285 -1.1648 -1.7987  0.1992
 6888TIP3   OH242078   5.558   3.198   4.913 -0.8243  0.2480 -0.1272
 6888TIP3    H142079   5.617   3.138   4.959 -0.4389  0.9027  0.2278
 6888TIP3    H242080   5.479   3.199   4.967 -0.5863  0.5716  0.2138
 6889TIP3   OH242081   1.966   2.259  15.006 -0.0312 -0.0687 -0.2033
 6889TIP3    H142082   1.934   2.260  14.915  2.1398 -0.0543 -0.9970
 6889TIP3    H242083   2.038   2.197  15.006 -1.5240 -1.8735  2.1021
 6890TIP3   OH242084   1.069   6.751  12.447 -0.3552  0.5750  0.0618
 6890TIP3    H142085   1.099   6.819  12.508 -0.6482  0.2708  0.5453
 6890TIP3    H242086   1.083   6.669  12.494  0.1394  0.2918 -0.5841
 6891TIP3   OH242087   6.204   0.638  11.485 -0.2665 -0.5571  0.5573
 6891TIP3    H142088   6.252   0.691  11.549 -1.0269 -0.0909  0.7518
 6891TIP3    H242089   6.122   0.616  11.530 -0.4255 -0.9656  0.0628
 6892TIP3   OH242090   0.554   2.106  16.275 -0.2531 -0.5960 -0.3218
 6892TIP3    H142091   0.484   2.113  16.339  0.9461  1.0365  0.8552
 6892TIP3    H242092   0.628   2.150  16.316  0.8524 -0.4784 -2.3977
 6893TIP3   OH242093   1.289   3.470   3.416  0.3417  0.0303 -0.0402
 6893TIP3    H142094   1.371   3.507   3.383  0.5367  1.1122  1.5580
 6893TIP3    H242095   1.315   3.398   3.472  0.1322 -0.3019 -0.3630
 6894TIP3   OH242096   0.978   0.695   1.000 -0.6289  0.1863  0.3370
 6894TIP3    H142097   0.964   0.746   0.920  1.8072 -0.0632 -0.3093
 6894TIP3    H242098   0.979   0.604   0.970 -2.0795 -0.0523  1.0269
 6895TIP3   OH242099   4.492   3.104  14.881  0.6916  0.1671 -0.0637
 6895TIP3    H142100   4.567   3.066  14.835 -0.8661 -0.5723 -2.0326
 6895TIP3    H242101   4.473   3.185  14.832  0.3123  0.4541  0.5508
 6896TIP3   OH242102   5.553   5.008  13.532 -0.0225  0.0386  0.2779
 6896TIP3    H142103   5.647   4.995  13.546 -0.2750 -1.1561  0.9359
 6896TIP3    H242104   5.534   4.960  13.451 -0.2321 -0.4950  0.6399
 6897TIP3   OH242105   0.676   0.085  12.245  0.1360 -0.0650  0.1720
 6897TIP3    H142106   0.715   0.037  12.171  1.7057  2.3322 -0.6419
 6897TIP3    H242107   0.585   0.056  12.247  0.5628 -1.6467 -1.4689
 6898TIP3   OH242108   0.383   5.211   5.804 -0.0121  0.4276  0.3137
 6898TIP3    H142109   0.440   5.282   5.834  0.8047  0.6667 -1.7097
 6898TIP3    H242110   0.301   5.223   5.852  0.0194  2.9379 -0.2099
 6899TIP3   OH242111   0.053   3.416   0.268 -0.2893  0.0292 -0.4800
 6899TIP3    H142112   0.056   3.467   0.187  1.8774  0.6016 -0.0695
 6899TIP3    H242113   0.109   3.340   0.251  1.7729  1.1263  1.0815
 6900TIP3   OH242114   3.417   2.729  15.563  0.2616  0.4442  0.2293
 6900TIP3    H142115   3.449   2.644  15.592 -2.4739 -0.5460  0.5472
 6900TIP3    H242116   3.348   2.707  15.500 -1.7419  2.3966  1.6972
 6901TIP3   OH242117   1.398   0.348  12.041 -0.3415 -0.2926 -0.2488
 6901TIP3    H142118   1.449   0.393  12.108  1.8104 -1.2292 -1.1966
 6901TIP3    H242119   1.307   0.354  12.071  0.3358  1.2982  1.5566
 6902TIP3   OH242120   0.231   0.185  12.887 -0.1729 -0.4130 -1.0429
 6902TIP3    H142121   0.191   0.109  12.843  0.8113 -0.8386 -1.2139
 6902TIP3    H242122   0.158   0.228  12.931 -0.6356 -1.8202 -0.4105
 6903TIP3   OH242123   4.674   0.112  14.578 -0.6906  0.5000  0.0369
 6903TIP3    H142124   4.618   0.080  14.506 -0.2931  1.3857 -0.6789
 6903TIP3    H242125   4.658   0.206  14.580  1.5642  0.9240 -0.8711
 6904TIP3   OH242126   3.460   0.552   1.726  0.2843 -0.2503  0.7601
 6904TIP3    H142127   3.467   0.643   1.755 -0.1397  0.2951 -0.8338
 6904TIP3    H242128   3.524   0.505   1.780  0.0587  0.8741  2.0305
 6905TIP3   OH242129   5.228   6.640  13.510  0.2072 -0.3441 -0.3806
 6905TIP3    H142130   5.298   6.698  13.481  0.4660 -0.1525  0.6354
 6905TIP3    H242131   5.272   6.560  13.539  0.0915  0.2213  1.3579
 6906TIP3   OH242132   6.594   1.006  12.308 -0.1917 -0.5133  0.5692
 6906TIP3    H142133   6.596   1.061  12.230 -1.3493 -0.6109  0.4571
 6906TIP3    H242134   6.678   1.022  12.351  0.1437  0.1139 -0.2984
 6907TIP3   OH242135   5.480   6.555  14.856 -0.2521 -0.0559  0.6786
 6907TIP3    H142136   5.449   6.646  14.855  1.6031  0.6039 -0.9249
 6907TIP3    H242137   5.441   6.516  14.778  1.2586  0.2246 -0.2504
 6908TIP3   OH242138   2.161   2.469  16.897  0.0620  0.0380 -0.3383
 6908TIP3    H142139   2.246   2.514  16.898  1.0364 -1.7106 -0.0429
 6908TIP3    H242140   2.156   2.429  16.810  0.4016 -1.3632  0.2649
 6909TIP3   OH242141   0.288   0.489  15.404  0.0378  0.2054  0.3653
 6909TIP3    H142142   0.292   0.583  15.416  2.2082  0.4456 -1.9272
 6909TIP3    H242143   0.211   0.462  15.454 -2.0841  3.5181 -0.9514
 6910TIP3   OH242144   0.430   0.963  15.977  0.0074  0.5689 -0.3542
 6910TIP3    H142145   0.373   0.992  15.906  0.0836  0.5082 -0.4403
 6910TIP3    H242146   0.515   1.002  15.957  0.3531 -0.4941 -0.9804
 6911TIP3   OH242147   6.777   3.069   3.595 -0.1232 -0.3655  0.0989
 6911TIP3    H142148   6.698   3.015   3.597 -0.6853  0.4566  0.4600
 6911TIP3    H242149   6.816   3.059   3.681  0.0123 -0.5450  0.0169
 6912TIP3   OH242150   5.105   1.769  16.297 -0.3000 -0.1671  0.8422
 6912TIP3    H142151   5.146   1.830  16.235 -0.8366 -0.3265  0.3289
 6912TIP3    H242152   5.030   1.733  16.249  0.0077 -1.2214  1.1559
 6913TIP3   OH242153   3.283   3.269  13.044 -0.2692  0.7656  0.4875
 6913TIP3    H142154   3.238   3.314  12.972  0.2868  0.6708  0.0801
 6913TIP3    H242155   3.275   3.176  13.022 -1.0190  0.6788  1.0967
 6914TIP3   OH242156   4.891   1.163   1.618 -0.5526  0.3927 -0.3499
 6914TIP3    H142157   4.876   1.070   1.599 -0.2078  0.0296  1.0791
 6914TIP3    H242158   4.929   1.198   1.538 -2.2412 -0.3221 -1.4743
 6915TIP3   OH242159   3.369   4.000   5.262  0.3364 -0.0002  0.4090
 6915TIP3    H142160   3.328   3.944   5.327  1.9173 -1.6767  0.0207
 6915TIP3    H242161   3.462   3.999   5.284  0.8914 -0.4925 -1.7826
 6916TIP3   OH242162   3.597   1.061  11.995 -0.2271  0.0267  0.3509
 6916TIP3    H142163   3.572   0.987  11.940  0.3597 -0.1275  0.2875
 6916TIP3    H242164   3.636   1.021  12.073  0.0903  0.2595  0.3170
 6917TIP3   OH242165   2.445   0.181   6.506  0.3622 -0.4273 -0.5955
 6917TIP3    H142166   2.484   0.268   6.490 -1.6804  0.6097 -0.0918
 6917TIP3    H242167   2.355   0.189   6.474  0.5222 -2.7728 -1.6985
 6918TIP3   OH242168   4.079   2.155   1.285 -0.1549 -0.4450 -0.4091
 6918TIP3    H142169   4.141   2.087   1.311 -0.6312 -0.2822  1.1803
 6918TIP3    H242170   4.034   2.118   1.209  0.3339 -1.4731 -0.2095
 6919TIP3   OH242171   0.848   4.341  13.335 -0.2601  0.3696 -0.1547
 6919TIP3    H142172   0.913   4.315  13.401 -1.1266  0.6804  0.8378
 6919TIP3    H242173   0.896   4.339  13.252  0.6335 -0.8277  0.3771
 6920TIP3   OH242174   4.732   3.011   0.007 -0.2337  0.0078 -0.3201
 6920TIP3    H142175   4.743   2.932   0.061 -0.1849 -0.5629 -1.1492
 6920TIP3    H242176   4.659   3.057   0.047  0.5235  0.1553  0.9029
 6921TIP3   OH242177   4.029   0.260   1.827  0.0849  0.1734  0.3444
 6921TIP3    H142178   3.954   0.276   1.769  0.8060  0.9313 -0.3954
 6921TIP3    H242179   3.990   0.247   1.913 -0.9436 -0.0502 -0.1410
 6922TIP3   OH242180   5.243   1.469  11.746 -0.0113 -0.8674  0.3468
 6922TIP3    H142181   5.319   1.507  11.791 -1.7845  1.3586  1.5570
 6922TIP3    H242182   5.197   1.419  11.814 -1.1604  0.1529  0.3401
 6923TIP3   OH242183   0.492   2.623  11.891  0.2605  0.3851  0.1770
 6923TIP3    H142184   0.566   2.681  11.911 -0.5689  1.6228 -0.2804
 6923TIP3    H242185   0.519   2.537  11.923  1.2897  1.1372  1.3394
 6924TIP3   OH242186   4.642   2.553  12.487 -0.1809  0.1851 -0.1267
 6924TIP3    H142187   4.698   2.545  12.410 -0.4711 -0.5318 -0.2701
 6924TIP3    H242188   4.628   2.647  12.497  0.5458  0.3278 -0.4479
 6925TIP3   OH242189   3.094   4.180  17.204  0.5103  0.4709 -0.6931
 6925TIP3    H142190   3.003   4.211  17.205  0.2995 -0.1869  1.0192
 6925TIP3    H242191   3.143   4.248  17.250  0.3683 -0.7276  1.2589
 6926TIP3   OH242192   5.652   3.876   4.719 -0.5093  0.0368  0.0110
 6926TIP3    H142193   5.564   3.859   4.752 -0.2520  1.3688  1.4804
 6926TIP3    H242194   5.694   3.927   4.789  1.9981 -2.0067  0.0861
 6927TIP3   OH242195   6.666   3.996   6.778 -0.5677  0.1276  0.4484
 6927TIP3    H142196   6.585   3.989   6.828 -1.8400 -0.8698 -1.6952
 6927TIP3    H242197   6.674   3.912   6.732  1.6726  0.2195  0.6054
 6928TIP3   OH242198   4.406   3.197   6.298 -0.6222 -0.1678 -0.3403
 6928TIP3    H142199   4.474   3.181   6.363  0.0328 -1.3545 -1.2904
 6928TIP3    H242200   4.324   3.199   6.348  0.1277  1.6523  0.8632
 6929TIP3   OH242201   4.507   3.022  11.921 -0.2157  0.1145 -0.3954
 6929TIP3    H142202   4.495   3.079  11.845 -0.8052  1.5715  0.7702
 6929TIP3    H242203   4.532   2.938  11.883  0.1265  0.9784 -2.1808
 6930TIP3   OH242204   5.138   1.463  16.296  0.2111 -0.5240  0.1031
 6930TIP3    H142205   5.103   1.551  16.312  0.8049 -0.2673  0.0146
 6930TIP3    H242206   5.063   1.405  16.305  0.2566 -0.2687  2.6161
 6931TIP3   OH242207   2.133   6.592   1.437 -0.0152  0.3160 -0.4548
 6931TIP3    H142208   2.063   6.558   1.493  1.6043  0.5744  1.8323
 6931TIP3    H242209   2.168   6.516   1.393  1.3851 -0.5769  2.0797
 6932TIP3   OH242210   5.606   0.983   3.017 -0.0369 -0.3559 -0.2511
 6932TIP3    H142211   5.548   0.936   2.956 -1.5674  0.1397  0.7746
 6932TIP3    H242212   5.551   1.055   3.050  1.0115 -0.1893  1.1472
 6933TIP3   OH242213   6.043   1.976   2.284  0.3056  0.3830 -0.1465
 6933TIP3    H142214   5.983   1.902   2.283 -0.1473  0.7610 -1.2413
 6933TIP3    H242215   6.093   1.966   2.365 -0.2217 -0.7418  0.0349
 6934TIP3   OH242216   3.551   6.475   6.099  0.0775 -0.2732 -0.3376
 6934TIP3    H142217   3.565   6.477   6.193 -0.3728  1.2958 -0.2810
 6934TIP3    H242218   3.497   6.398   6.083  0.1429 -0.5297  0.6936
 6935TIP3   OH242219   2.656   3.607   3.534  0.0673 -0.4419 -0.0701
 6935TIP3    H142220   2.751   3.598   3.543 -0.1205 -1.2133  1.2557
 6935TIP3    H242221   2.642   3.700   3.515  0.9439  0.1272  1.9701
 6936TIP3   OH242222   2.951   0.665  14.247  0.0333  0.3335 -0.2638
 6936TIP3    H142223   2.866   0.635  14.214 -0.9833  1.2481  1.4140
 6936TIP3    H242224   3.011   0.592  14.230 -1.2068 -0.5343 -0.9961
 6937TIP3   OH242225   1.585   0.414  12.787 -0.7097 -0.1858  0.1710
 6937TIP3    H142226   1.593   0.321  12.812 -0.1214 -0.1119  0.2836
 6937TIP3    H242227   1.641   0.460  12.850 -0.9637  0.2429  0.0831
 6938TIP3   OH242228   5.013   5.079  17.088 -0.2787 -0.2059  0.2838
 6938TIP3    H142229   5.051   5.142  17.150  1.3239 -1.0727  0.2181
 6938TIP3    H242230   5.088   5.047  17.038 -1.4943  0.0968 -1.7739
 6939TIP3   OH242231   6.606   4.764   3.060  0.6307  0.1581 -0.3780
 6939TIP3    H142232   6.618   4.784   2.968  2.1437  0.1089 -0.2154
 6939TIP3    H242233   6.578   4.846   3.100  0.0522  0.1984 -0.8710
 6940TIP3   OH242234   1.970   5.359   3.758  1.0560 -0.2991  0.2295
 6940TIP3    H142235   2.063   5.340   3.756  1.1057 -0.1199  0.6267
 6940TIP3    H242236   1.928   5.287   3.712  1.5802  0.8493 -2.1001
 6941TIP3   OH242237   6.663   0.105   1.809  0.6676 -0.3471  0.0445
 6941TIP3    H142238   6.642   0.170   1.876 -0.6746  1.6698 -2.2833
 6941TIP3    H242239   6.581   0.056   1.797  0.6771 -0.1984 -0.6577
 6942TIP3   OH242240   1.750   1.014  14.469  0.1763  0.0539 -0.5126
 6942TIP3    H142241   1.671   1.061  14.496  0.7977  0.7750  0.0478
 6942TIP3    H242242   1.737   0.926  14.505 -0.5073  0.0816 -0.6738
 6943TIP3   OH242243   4.239   6.696   4.203  0.1670  0.7065 -0.4282
 6943TIP3    H142244   4.222   6.675   4.295 -0.4009 -3.5262 -1.3758
 6943TIP3    H242245   4.162   6.745   4.175 -0.0128  1.3519  1.1702
 6944TIP3   OH242246   4.803   5.311  15.518 -0.3782 -0.0693 -0.0916
 6944TIP3    H142247   4.726   5.257  15.540 -0.6327  0.4944  0.4225
 6944TIP3    H242248   4.877   5.261  15.551 -0.4987 -0.7408 -0.8215
 6945TIP3   OH242249   6.415   0.418  13.781  0.4556 -0.0432 -0.5824
 6945TIP3    H142250   6.468   0.381  13.711  0.4680 -0.0336 -0.5786
 6945TIP3    H242251   6.378   0.342  13.826 -0.6876 -0.0166 -1.4629
 6946TIP3   OH242252   0.193   3.720  12.432  0.4327  0.4048  0.7717
 6946TIP3    H142253   0.257   3.657  12.465 -0.4076  0.4868  2.6701
 6946TIP3    H242254   0.129   3.728  12.503 -1.0275  1.2312 -0.5968
 6947TIP3   OH242255   1.627   5.573  11.977 -0.2852  0.6055 -0.6147
 6947TIP3    H142256   1.685   5.641  11.943  1.1705  0.9477  2.3905
 6947TIP3    H242257   1.651   5.494  11.927 -0.4196  1.7590 -2.5346
 6948TIP3   OH242258   1.137   1.080   3.865 -0.7237  0.6248 -0.2061
 6948TIP3    H142259   1.119   0.994   3.903 -0.4793  0.4247 -0.5373
 6948TIP3    H242260   1.199   1.120   3.926 -1.7671  1.0589  0.5952
 6949TIP3   OH242261   3.369   2.789  16.209 -0.5046  0.0511 -0.5530
 6949TIP3    H142262   3.449   2.833  16.237 -0.7056  0.1715 -0.1718
 6949TIP3    H242263   3.300   2.853  16.222 -0.7636 -0.2929 -0.2243
 6950TIP3   OH242264   4.639   3.077  13.289 -0.2325  0.5313  0.5158
 6950TIP3    H142265   4.693   2.998  13.296 -0.8940 -0.1112 -1.1905
 6950TIP3    H242266   4.676   3.137  13.353 -0.0362 -1.3427  2.2236
 6951TIP3   OH242267   3.446   3.623   4.615 -0.1052 -0.1690 -0.1241
 6951TIP3    H142268   3.509   3.618   4.687  0.4843  0.0870 -0.6211
 6951TIP3    H242269   3.360   3.622   4.658  0.2179 -1.0475  0.5292
 6952TIP3   OH242270   5.559   2.323  13.168 -0.3438  0.0075 -0.0551
 6952TIP3    H142271   5.582   2.230  13.172  0.4114  0.1890 -0.1752
 6952TIP3    H242272   5.619   2.360  13.104 -1.1346  0.4407 -0.5565
 6953TIP3   OH242273   1.831   0.113  15.299 -0.6176 -0.3534  0.1764
 6953TIP3    H142274   1.763   0.046  15.291 -0.2303 -0.6832 -0.4248
 6953TIP3    H242275   1.837   0.131  15.393 -1.0363 -0.8419  0.2968
 6954TIP3   OH242276   5.383   5.385  16.774  0.1597 -0.2703  0.1922
 6954TIP3    H142277   5.454   5.321  16.769 -1.1261 -1.6739 -0.5538
 6954TIP3    H242278   5.303   5.333  16.760 -0.9271  1.4495 -0.1033
 6955TIP3   OH242279   1.866   1.784  17.001  0.0387 -0.2111  0.2938
 6955TIP3    H142280   1.852   1.692  17.020 -1.0096  0.0590  0.8743
 6955TIP3    H242281   1.853   1.792  16.906  2.5170 -1.0691 -0.1547
 6956TIP3   OH242282   0.263   5.236   1.190  0.0307  0.3733  0.2922
 6956TIP3    H142283   0.309   5.175   1.248  0.3090 -0.2011 -0.5096
 6956TIP3    H242284   0.172   5.206   1.191  0.2696 -0.4186 -0.5347
 6957TIP3   OH242285   5.411   1.470  12.598 -0.3477 -0.3606 -0.5376
 6957TIP3    H142286   5.322   1.493  12.626  0.0464  0.8634 -0.2378
 6957TIP3    H242287   5.447   1.551  12.562  0.3798 -1.0470 -1.3902
 6958TIP3   OH242288   2.450   1.847  11.705 -0.1058 -0.3837  0.2224
 6958TIP3    H142289   2.431   1.782  11.773  0.2552 -0.8017 -0.0726
 6958TIP3    H242290   2.498   1.798  11.638 -0.5857 -0.0066 -0.4022
 6959TIP3   OH242291   0.968   1.627  12.263 -0.5406  0.3420 -0.5033
 6959TIP3    H142292   1.045   1.578  12.290  0.4502  3.0958  2.0604
 6959TIP3    H242293   0.895   1.584  12.307 -0.2115 -1.1205 -1.3846
 6960TIP3   OH242294   4.908   1.428  11.351  0.3046  0.2452 -0.0173
 6960TIP3    H142295   4.975   1.453  11.415 -1.2874 -3.1889  3.1114
 6960TIP3    H242296   4.831   1.479  11.376  0.2520  0.3551 -0.4063
 6961TIP3   OH242297   1.878   6.469   5.626  0.2213  0.4437 -0.1492
 6961TIP3    H142298   1.871   6.540   5.691 -1.1302  2.5868 -2.5147
 6961TIP3    H242299   1.824   6.399   5.662 -1.4930  2.0459  0.5088
 6962TIP3   OH242300   5.523   5.312  17.164  0.6356 -0.0680  0.0055
 6962TIP3    H142301   5.495   5.359  17.243  1.1942  0.4490 -0.1021
 6962TIP3    H242302   5.472   5.351  17.094 -0.3364 -0.9712  0.1990
 6963TIP3   OH242303   0.820   4.018  14.274 -0.2295 -0.1782  0.0354
 6963TIP3    H142304   0.903   4.059  14.249 -0.0801  0.9196  2.1670
 6963TIP3    H242305   0.818   3.936  14.225  0.9774  0.8848 -1.8724
 6964TIP3   OH242306   5.189   1.803  13.836  0.2218  0.4569 -0.3927
 6964TIP3    H142307   5.246   1.730  13.861  0.6492  0.3747 -1.6161
 6964TIP3    H242308   5.230   1.841  13.759 -2.3506 -0.8089 -2.4832
 6965TIP3   OH242309   0.156   0.495  16.809  0.3193  0.5112  0.5825
 6965TIP3    H142310   0.151   0.574  16.863  0.3699  0.2287  1.0005
 6965TIP3    H242311   0.248   0.468  16.814  0.5223  0.9995 -0.3872
 6966TIP3   OH242312   6.254   3.752  16.140  0.0504 -0.0939 -0.0824
 6966TIP3    H142313   6.209   3.697  16.076 -1.7223 -1.1455  2.0037
 6966TIP3    H242314   6.242   3.707  16.223 -0.9646  3.1680  1.6175
 6967TIP3   OH242315   5.343   2.406  11.549  0.0086  0.2914 -0.3506
 6967TIP3    H142316   5.409   2.340  11.527  0.4811  1.1368 -1.5357
 6967TIP3    H242317   5.271   2.356  11.587  1.6150 -0.5586  1.6489
 6968TIP3   OH242318   3.008   2.084   0.114 -0.7107  0.0882  0.3218
 6968TIP3    H142319   2.927   2.065   0.067  0.1952 -2.7109 -0.1903
 6968TIP3    H242320   3.050   2.154   0.063 -1.2552 -0.7123 -1.2437
 6969TIP3   OH242321   1.759   1.454   3.275  0.4568 -0.0794 -0.1891
 6969TIP3    H142322   1.767   1.437   3.369  0.8890 -0.3171 -0.2679
 6969TIP3    H242323   1.693   1.523   3.269  2.3322  1.8526  0.4602
 6970TIP3   OH242324   4.412   6.072   4.090  0.8561  0.6850 -0.1319
 6970TIP3    H142325   4.410   6.018   4.011 -0.6635  1.3749 -0.5720
 6970TIP3    H242326   4.405   6.008   4.162 -1.0810  0.2788 -0.6560
 6971TIP3   OH242327   3.889   1.865   0.235  0.5031  0.3244 -0.8791
 6971TIP3    H142328   3.818   1.927   0.219  0.4771  0.4832 -0.1667
 6971TIP3    H242329   3.969   1.918   0.228  0.5435  0.2126 -1.3443
 6972TIP3   OH242330   1.209   4.843   1.909 -0.1872  0.4087  0.0818
 6972TIP3    H142331   1.171   4.930   1.925 -0.5430  0.3749 -0.5937
 6972TIP3    H242332   1.163   4.786   1.970  0.3050  0.7555  0.7901
 6973TIP3   OH242333   5.237   6.061   5.837  0.1927  0.0201  0.4506
 6973TIP3    H142334   5.274   6.106   5.761  0.6713 -0.4328  0.4119
 6973TIP3    H242335   5.300   6.078   5.908  0.9726 -1.5609  0.1430
 6974TIP3   OH242336   0.353   4.785  14.701 -0.2761  0.2921  0.0080
 6974TIP3    H142337   0.434   4.816  14.741 -0.0706 -0.7862  0.4541
 6974TIP3    H242338   0.301   4.864  14.686 -0.0967  0.7797  1.8626
 6975TIP3   OH242339   4.618   0.142   0.746 -0.6096  0.2460 -0.2626
 6975TIP3    H142340   4.708   0.145   0.714 -0.1502 -1.2702  0.8629
 6975TIP3    H242341   4.593   0.234   0.757  0.4762  0.6922 -1.4196
 6976TIP3   OH242342   5.291   4.704  10.826 -0.0150  0.3077  0.0692
 6976TIP3    H142343   5.209   4.697  10.778 -0.9582  0.1829  1.6468
 6976TIP3    H242344   5.292   4.794  10.859 -1.1435 -0.6467  2.8315
 6977TIP3   OH242345   1.137   6.256  13.628 -0.2335  0.2581 -0.1088
 6977TIP3    H142346   1.231   6.267  13.614 -0.4157  1.6635 -0.3890
 6977TIP3    H242347   1.119   6.307  13.708 -0.5665 -0.9578  0.6000
 6978TIP3   OH242348   2.024   2.377  17.093  0.6822  0.5097  0.3128
 6978TIP3    H142349   2.072   2.435  17.035  1.3266 -0.6024 -0.2802
 6978TIP3    H242350   2.090   2.320  17.132 -0.0385 -0.4894  0.1202
 6979TIP3   OH242351   4.377   1.983  15.055 -0.1089 -0.5832  0.3702
 6979TIP3    H142352   4.437   1.968  14.982  0.9430  1.6884  0.7021
 6979TIP3    H242353   4.290   1.981  15.016  0.4225  0.1911 -0.9016
 6980TIP3   OH242354   3.215   2.083   4.743  0.0483  0.2460  0.0699
 6980TIP3    H142355   3.223   1.987   4.751  0.5821  0.2888  0.1169
 6980TIP3    H242356   3.144   2.106   4.802  0.2869 -0.0646  0.4873
 6981TIP3   OH242357   0.562   2.056   3.227 -0.7693  0.6397  0.0394
 6981TIP3    H142358   0.552   2.115   3.301 -1.4054 -1.2146  1.4828
 6981TIP3    H242359   0.657   2.047   3.216 -0.6705  1.8690 -0.1746
 6982TIP3   OH242360   2.944   5.676  16.984 -0.2869 -0.2048 -0.7269
 6982TIP3    H142361   3.014   5.735  17.014 -1.8727  0.6111  1.5327
 6982TIP3    H242362   2.923   5.707  16.896  0.7913  0.8497 -0.6302
 6983TIP3   OH242363   2.734   5.813   5.496 -0.2777  0.5574 -0.2110
 6983TIP3    H142364   2.722   5.772   5.410  2.1360 -0.3738 -0.1402
 6983TIP3    H242365   2.727   5.907   5.479  0.1816  0.3790 -1.4537
 6984TIP3   OH242366   6.548   4.171   5.937  0.1926 -0.3338  0.1313
 6984TIP3    H142367   6.504   4.251   5.964 -1.8861 -1.1127 -0.8202
 6984TIP3    H242368   6.587   4.191   5.852  1.1098  0.1527  0.6612
 6985TIP3   OH242369   4.657   5.302  16.587  0.6136  0.0506 -0.3716
 6985TIP3    H142370   4.687   5.301  16.678  0.1816 -0.8466 -0.2232
 6985TIP3    H242371   4.714   5.364  16.543 -0.3410  1.9053  0.9152
 6986TIP3   OH242372   1.801   1.634   4.881 -0.1532 -0.4901 -0.5254
 6986TIP3    H142373   1.855   1.689   4.825  0.5144 -0.2805  0.3149
 6986TIP3    H242374   1.711   1.650   4.852  0.0726  0.6756 -0.6007
 6987TIP3   OH242375   2.313   3.427  13.319  0.8271 -0.1527 -0.1454
 6987TIP3    H142376   2.375   3.500  13.317  0.0729  0.5429  0.9911
 6987TIP3    H242377   2.227   3.469  13.315  0.3681 -0.9186  1.3078
 6988TIP3   OH242378   5.741   1.010   5.799 -0.4903  0.5821  0.5031
 6988TIP3    H142379   5.735   0.922   5.763 -0.4786  0.1398  1.5866
 6988TIP3    H242380   5.830   1.038   5.780  0.0604 -0.3228  1.7388
 6989TIP3   OH242381   5.925   3.640   4.599  0.5058  0.6942  0.1736
 6989TIP3    H142382   5.838   3.618   4.631  0.3937  0.8354 -0.0297
 6989TIP3    H242383   5.910   3.670   4.509  0.5892  2.0281  0.5891
 6990TIP3   OH242384   4.914   0.045   3.875  0.6128  0.7462 -0.1786
 6990TIP3    H142385   4.934  -0.018   3.806 -0.3333  0.9295 -0.6346
 6990TIP3    H242386   4.821   0.031   3.893  1.3043 -0.6895  2.4839
 6991TIP3   OH242387   1.565   0.954   1.917  0.7281  0.3896 -0.4089
 6991TIP3    H142388   1.590   0.901   1.993 -0.0344  1.7764  0.8422
 6991TIP3    H242389   1.596   0.904   1.842  0.8939 -1.3500  0.7782
 6992TIP3   OH242390   2.410   5.813  13.183 -0.3640 -0.3394  0.3611
 6992TIP3    H142391   2.322   5.786  13.211 -0.1637 -0.4906  0.8398
 6992TIP3    H242392   2.397   5.845  13.094 -0.7615 -1.1738  0.1101
 6993TIP3   OH242393   1.963   6.398  15.863 -0.6207 -0.3199  0.6812
 6993TIP3    H142394   1.874   6.433  15.861 -0.4236  0.1331 -1.1926
 6993TIP3    H242395   2.012   6.460  15.918 -0.9895  0.6285 -0.0386
 6994TIP3   OH242396   4.046   3.889   4.093 -0.2268  0.4915  0.0785
 6994TIP3    H142397   4.023   3.932   4.011 -1.8104  0.1154  0.3200
 6994TIP3    H242398   4.082   3.805   4.067 -0.9862  0.2569 -0.2240
 6995TIP3   OH242399   2.364   1.553   6.552  0.6005 -0.2197 -0.7201
 6995TIP3    H142400   2.455   1.535   6.577  0.0620 -1.0611  0.6856
 6995TIP3    H242401   2.352   1.646   6.574  1.6314  0.3892 -2.5774
 6996TIP3   OH242402   3.919   6.201   1.564  0.0739  0.7926 -0.2536
 6996TIP3    H142403   3.920   6.133   1.496  0.5847  1.1624 -0.6207
 6996TIP3    H242404   3.933   6.282   1.516  1.9922  0.9066  0.4660
 6997TIP3   OH242405   2.392   0.094   1.649 -0.4290  0.0551 -0.3723
 6997TIP3    H142406   2.341   0.165   1.688  0.8491  1.1854 -0.7514
 6997TIP3    H242407   2.466   0.082   1.708  0.7783  0.8539 -1.6958
 6998TIP3   OH242408   4.469   2.829   5.689  0.5166  0.1166 -0.2361
 6998TIP3    H142409   4.392   2.792   5.646 -0.4327  0.3983  1.1727
 6998TIP3    H242410   4.468   2.922   5.666  0.4412  0.1136 -0.2446
 6999TIP3   OH242411   5.368   0.113   1.719 -0.3595  0.3153  0.3624
 6999TIP3    H142412   5.412   0.113   1.634  0.1430  0.9144  0.6191
 6999TIP3    H242413   5.426   0.063   1.776 -0.1641  0.8377  0.6235
 7000TIP3   OH242414   3.069   1.831   5.660 -0.6118  0.3310 -0.0066
 7000TIP3    H142415   3.022   1.786   5.590  0.8504 -0.6312 -0.3921
 7000TIP3    H242416   3.101   1.912   5.621  0.6256 -0.4343 -0.6195
 7001TIP3   OH242417   0.520   5.925  11.257  0.3286 -0.8772  0.7346
 7001TIP3    H142418   0.583   5.934  11.186  1.8529  1.6094  2.3450
 7001TIP3    H242419   0.569   5.883  11.328 -1.2047 -3.4337  0.3586
 7002TIP3   OH242420   5.553   0.237  14.873  0.3160  0.4130  0.2286
 7002TIP3    H142421   5.640   0.268  14.846  0.1141  1.8325  1.1289
 7002TIP3    H242422   5.535   0.286  14.953 -1.5588  0.5489 -0.2663
 7003TIP3   OH242423   4.579   0.773  13.258  0.0016 -0.1176 -0.4736
 7003TIP3    H142424   4.504   0.780  13.317  1.2483 -1.0966  1.3035
 7003TIP3    H242425   4.545   0.734  13.178 -1.6562  0.8181 -0.2324
 7004TIP3   OH242426   2.890   1.931   1.529  0.4223  0.4257  0.0847
 7004TIP3    H142427   2.922   1.886   1.607  0.7047 -0.8564 -0.7651
 7004TIP3    H242428   2.798   1.905   1.522  0.9692 -1.2706 -1.2526
 7005TIP3   OH242429   4.346   4.174   0.055 -0.5820 -0.5940  0.1164
 7005TIP3    H142430   4.435   4.160   0.023  0.0021 -0.5407  1.7131
 7005TIP3    H242431   4.296   4.195  -0.024  1.3798  2.3331 -0.4336
 7006TIP3   OH242432   6.120   1.097   5.216  0.6186 -0.2386 -0.6753
 7006TIP3    H142433   6.129   1.192   5.210 -0.3867  0.0563  1.8363
 7006TIP3    H242434   6.128   1.078   5.309  1.1392 -2.6675 -1.1905
 7007TIP3   OH242435   4.062   2.419  16.878 -0.4022 -0.1270 -0.3704
 7007TIP3    H142436   4.113   2.377  16.809 -0.6564  1.8553 -1.8084
 7007TIP3    H242437   4.044   2.507  16.845 -1.0233  0.6764  1.9846
 7008TIP3   OH242438   2.802   1.185  16.473 -0.3663 -0.5988  0.1971
 7008TIP3    H142439   2.842   1.138  16.546  0.9583  1.0373  0.5459
 7008TIP3    H242440   2.727   1.131  16.448 -0.4819 -1.4902  2.3552
 7009TIP3   OH242441   5.088   5.059   0.500  0.2412  0.1397  0.0139
 7009TIP3    H142442   5.179   5.030   0.500  0.4614  0.8200  0.9851
 7009TIP3    H242443   5.041   4.991   0.450  1.1492 -0.5884  0.1430
 7010TIP3   OH242444   3.511   6.709  11.730 -0.0041 -0.2745 -0.2241
 7010TIP3    H142445   3.515   6.616  11.709  0.7727 -0.9471  2.6113
 7010TIP3    H242446   3.598   6.743  11.709 -0.0103 -0.3865 -0.4304
 7011TIP3   OH242447   4.835   1.040  15.298  0.4702  0.0666 -0.2234
 7011TIP3    H142448   4.768   0.996  15.245  0.0883 -1.1829  1.2717
 7011TIP3    H242449   4.803   1.130  15.307 -0.6847 -0.3524 -0.0669
 7012TIP3   OH242450   4.433   4.619   5.154  0.4039 -0.2597 -0.0969
 7012TIP3    H142451   4.508   4.679   5.159 -0.5151  0.9583 -0.7856
 7012TIP3    H242452   4.469   4.534   5.182  1.4476  0.8242  2.0186
 7013TIP3   OH242453   4.127   2.685  16.202  0.5975 -0.6638  0.0006
 7013TIP3    H142454   4.166   2.642  16.125  1.3032 -0.4071  0.2119
 7013TIP3    H242455   4.082   2.615  16.248  0.0779 -0.8004 -0.7077
 7014TIP3   OH242456   4.453   3.203   2.947  0.0273 -0.0350  0.4439
 7014TIP3    H142457   4.435   3.263   3.019 -0.8154  1.6183 -1.0958
 7014TIP3    H242458   4.417   3.120   2.975 -2.1185  1.0873  1.0998
 7015TIP3   OH242459   4.980   0.008   0.905 -0.0773 -0.1705 -0.5826
 7015TIP3    H142460   5.012  -0.001   0.994  1.0481 -0.2877 -0.9952
 7015TIP3    H242461   5.009  -0.071   0.860 -1.3304 -0.4964 -0.8611
 7016TIP3   OH242462   3.687   4.664  14.874  0.6108  0.1825  0.1361
 7016TIP3    H142463   3.748   4.724  14.916  0.4188 -0.7523  1.7945
 7016TIP3    H242464   3.604   4.679  14.919  0.0031  0.2906 -1.0039
 7017TIP3   OH242465   2.861   5.805   1.427 -0.0632 -0.2103  0.2097
 7017TIP3    H142466   2.832   5.810   1.518 -1.1950  2.1148 -0.2466
 7017TIP3    H242467   2.856   5.895   1.395  0.7475 -0.9302 -2.0336
 7018TIP3   OH242468   4.332   5.804  12.898  0.2376 -0.5767  0.0155
 7018TIP3    H142469   4.312   5.871  12.832  1.6392 -1.2696 -1.1664
 7018TIP3    H242470   4.251   5.755  12.908 -1.4182  2.4533  2.3533
 7019TIP3   OH242471   4.494   4.973  13.756 -0.1268  0.3024 -0.2814
 7019TIP3    H142472   4.427   4.911  13.787  0.4510  0.2834  0.9873
 7019TIP3    H242473   4.575   4.944  13.800  0.0783  2.1599  0.6260
 7020TIP3   OH242474   4.246   3.694  11.550  0.4123  0.7094  0.3391
 7020TIP3    H142475   4.238   3.637  11.473  1.1222  0.9382  0.0892
 7020TIP3    H242476   4.165   3.746  11.549  0.5500  0.9210 -0.4289
 7021TIP3   OH242477   3.968   1.694   1.768  0.7754 -0.7387  0.5050
 7021TIP3    H142478   4.013   1.665   1.689  1.1517 -2.9636  1.4990
 7021TIP3    H242479   3.990   1.786   1.776  3.0736 -1.1722 -0.4278
 7022TIP3   OH242480   3.407   0.323  14.736 -0.0828 -0.1571 -0.6520
 7022TIP3    H142481   3.417   0.322  14.641 -1.6285 -3.6852 -0.8275
 7022TIP3    H242482   3.497   0.321  14.769  0.4387 -1.8788 -2.0817
 7023TIP3   OH242483   2.106   0.689  13.799  0.8440 -0.0902 -1.0348
 7023TIP3    H142484   2.183   0.722  13.844  1.0732 -1.6668 -0.2253
 7023TIP3    H242485   2.114   0.593  13.804 -3.2794 -0.4092  2.8495
 7024TIP3   OH242486   3.072   0.081  13.843 -0.3879 -0.4844  0.2521
 7024TIP3    H142487   2.987   0.125  13.837 -1.3126 -2.1600  0.7408
 7024TIP3    H242488   3.091   0.079  13.937  0.1978 -0.1383  0.1441
 7025TIP3   OH242489   2.093   5.886  16.448  0.6700 -0.1134 -0.3093
 7025TIP3    H142490   2.046   5.879  16.365  1.0820 -1.0775 -0.4740
 7025TIP3    H242491   2.133   5.799  16.460  2.1335  0.5811 -0.0134
 7026TIP3   OH242492   0.594   2.830  11.615  0.1314 -0.3178 -0.2026
 7026TIP3    H142493   0.560   2.920  11.613  0.5084 -0.1382  1.1326
 7026TIP3    H242494   0.529   2.780  11.566 -1.8082  0.1360  1.7994
 7027TIP3   OH242495   4.023   3.684   0.620  0.0797 -0.0783  0.6634
 7027TIP3    H142496   4.094   3.744   0.642 -0.4180  0.8209 -0.1232
 7027TIP3    H242497   3.967   3.684   0.697  0.2579  0.2250  0.7930
 7028TIP3   OH242498   2.990   1.645  14.077 -0.2476  0.2153  0.3338
 7028TIP3    H142499   2.908   1.694  14.074 -0.2242  0.4104  2.6656
 7028TIP3    H242500   3.052   1.705  14.118  0.6480 -0.5387  0.0933
 7029TIP3   OH242501   6.036   4.129   4.779 -0.3569  0.1708  0.1053
 7029TIP3    H142502   6.040   4.038   4.808 -0.1782 -0.4821 -1.9053
 7029TIP3    H242503   5.983   4.127   4.699 -0.9569  1.9425  0.4112
 7030TIP3   OH242504   5.413   0.034  13.398 -0.7091  0.5925  0.0689
 7030TIP3    H142505   5.448   0.106  13.345  0.1824  0.1633  0.0752
 7030TIP3    H242506   5.393  -0.035  13.334  1.9715 -0.5870  0.4273
 7031TIP3   OH242507   2.184   6.587   0.018 -0.1834 -0.3478  0.2640
 7031TIP3    H142508   2.232   6.546  -0.054  0.0931 -1.9860  1.3390
 7031TIP3    H242509   2.143   6.513   0.064 -0.5555  0.6920  1.6300
 7032TIP3   OH242510   1.916   5.043   0.342 -0.0081  0.7333  0.3361
 7032TIP3    H142511   1.848   5.022   0.277 -0.3170  1.3954  0.4384
 7032TIP3    H242512   1.882   5.007   0.424 -0.8091  2.1202  0.6264
 7033TIP3   OH242513   5.876   4.227  16.776  0.0387  0.5974 -0.1755
 7033TIP3    H142514   5.829   4.209  16.858 -0.1324  0.4120 -0.3122
 7033TIP3    H242515   5.842   4.311  16.747 -1.0850 -0.0882 -0.8842
 7034TIP3   OH242516   3.819   3.177   0.931  0.6249 -0.2738 -0.5952
 7034TIP3    H142517   3.902   3.159   0.976  0.0143 -0.2297  0.5784
 7034TIP3    H242518   3.829   3.136   0.846  1.7238 -0.5819 -0.3297
 7035TIP3   OH242519   5.277   0.254   0.431 -0.3363 -0.2955  0.2667
 7035TIP3    H142520   5.248   0.242   0.522 -1.2408 -0.1968 -0.0126
 7035TIP3    H242521   5.311   0.343   0.429 -0.1581 -0.3538  0.5452
 7036TIP3   OH242522   5.856   3.062  12.357  0.0387 -0.6034 -0.2139
 7036TIP3    H142523   5.941   3.019  12.351 -0.9691 -2.7802  0.4570
 7036TIP3    H242524   5.833   3.056  12.450 -1.2464 -0.8875 -0.5337
 7037TIP3   OH242525   5.129   2.905  13.897  0.2492  0.0454  0.4103
 7037TIP3    H142526   5.195   2.841  13.870  0.3555  0.3648 -0.1035
 7037TIP3    H242527   5.048   2.875  13.855  0.3760  0.4425 -0.1332
 7038TIP3   OH242528   5.424   6.028  12.448 -0.4331  0.2695  0.4341
 7038TIP3    H142529   5.519   6.020  12.458 -0.4758 -0.2444  0.4151
 7038TIP3    H242530   5.407   6.122  12.457 -0.1980  0.0966  2.9289
 7039TIP3   OH242531   6.030   4.544  12.621  0.6315 -0.0237 -0.2454
 7039TIP3    H142532   6.115   4.513  12.650 -0.0838 -1.6592  0.1305
 7039TIP3    H242533   6.042   4.638  12.609  2.4290 -0.2088 -0.0086
 7040TIP3   OH242534   1.230   1.515   3.519  0.0961 -0.8797  0.1132
 7040TIP3    H142535   1.260   1.601   3.488  1.6534 -0.5416  2.4249
 7040TIP3    H242536   1.305   1.457   3.504  0.5510 -0.9028  2.3444
 7041TIP3   OH242537   4.871   6.056   2.089  0.1930 -0.1097  0.3870
 7041TIP3    H142538   4.821   6.083   2.166 -1.8366  0.8085 -1.2008
 7041TIP3    H242539   4.816   5.990   2.046 -1.3998  3.3317 -3.2249
 7042TIP3   OH242540   1.735   0.041  11.440  0.3676 -0.0436  0.2159
 7042TIP3    H142541   1.669   0.037  11.371  1.6117  0.7382 -1.0696
 7042TIP3    H242542   1.771   0.130  11.434  2.7391 -0.9824 -0.3064
 7043TIP3   OH242543   4.716   2.044  12.996 -0.0291  0.1103 -0.2031
 7043TIP3    H142544   4.663   1.967  13.019  0.4196 -0.2143 -0.2591
 7043TIP3    H242545   4.668   2.118  13.035 -0.4728 -0.1904 -0.1710
 7044TIP3   OH242546   6.675   5.988   1.858  0.1321  0.2089 -0.0122
 7044TIP3    H142547   6.719   6.054   1.804  1.1563 -0.7149 -0.3139
 7044TIP3    H242548   6.602   5.958   1.803 -0.1057  0.8107 -0.0276
 7045TIP3   OH242549   1.726   3.112   6.572 -0.3527  0.6723  0.0146
 7045TIP3    H142550   1.652   3.133   6.514  0.2591 -0.3358 -1.1559
 7045TIP3    H242551   1.693   3.043   6.629 -1.5767  2.9777  2.2132
 7046TIP3   OH242552   5.084   4.138   1.437  0.3177 -0.1029  0.2169
 7046TIP3    H142553   5.076   4.043   1.445 -1.6771  0.1582  1.5033
 7046TIP3    H242554   5.104   4.169   1.526 -3.0202  1.0229  0.6510
 7047TIP3   OH242555   5.121   6.521  16.232 -0.5940  0.0493  0.0630
 7047TIP3    H142556   5.032   6.484  16.233  0.0628 -1.5637  0.5952
 7047TIP3    H242557   5.154   6.501  16.145 -0.7803  0.7303 -0.1663
 7048TIP3   OH242558   2.579   0.204   4.588  0.0584 -0.4810  0.6717
 7048TIP3    H142559   2.560   0.149   4.512  2.9101  0.7349 -1.0285
 7048TIP3    H242560   2.513   0.273   4.586 -0.1675 -0.7234 -0.4347
 7049TIP3   OH242561   1.686   6.148  13.230  0.0628 -0.7978 -0.4586
 7049TIP3    H142562   1.698   6.112  13.142 -1.2123  1.9324 -1.7931
 7049TIP3    H242563   1.759   6.209  13.241  0.6952 -1.7439  0.7326
 7050TIP3   OH242564   3.427   6.203  16.890 -0.3837  0.0411  0.5085
 7050TIP3    H142565   3.357   6.218  16.953 -0.5331  0.4770  0.2419
 7050TIP3    H242566   3.496   6.265  16.916 -1.1497  1.4899 -0.8260
 7051TIP3   OH242567   6.521   1.954   4.810  0.3342  0.3316  0.2689
 7051TIP3    H142568   6.612   1.976   4.829 -0.7498  1.8639  4.0933
 7051TIP3    H242569   6.510   1.866   4.848  0.1968  0.1832 -0.1171
 7052TIP3   OH242570   0.065   2.906   0.091 -0.0772  0.2149  0.3128
 7052TIP3    H142571   0.061   2.940   0.181 -1.8257 -0.6874  0.6054
 7052TIP3    H242572   0.044   2.981   0.036 -0.6814  0.3834  0.7633
 7053TIP3   OH242573   3.893   5.255   0.747 -0.0466 -0.0595  0.0139
 7053TIP3    H142574   3.815   5.243   0.801  2.0907  0.0532  3.2889
 7053TIP3    H242575   3.906   5.349   0.744  0.3406 -0.1089  0.0892
 7054TIP3   OH242576   0.638   1.790  17.122 -0.1248 -0.3665 -0.0359
 7054TIP3    H142577   0.558   1.826  17.082  0.9815  1.1791 -0.9034
 7054TIP3    H242578   0.643   1.832  17.208 -1.0370 -1.6229  0.6554
 7055TIP3   OH242579   5.433   5.429  11.030  0.4022  0.3017  0.6679
 7055TIP3    H142580   5.339   5.419  11.013  0.3447  1.8813  0.0400
 7055TIP3    H242581   5.452   5.520  11.010  2.1456 -0.0813  0.5174
 7056TIP3   OH242582   2.728   3.736  11.529  0.0163 -0.5055 -0.4695
 7056TIP3    H142583   2.817   3.706  11.546  0.8607  1.2336 -1.8333
 7056TIP3    H242584   2.708   3.705  11.441 -0.4696 -0.2352 -0.4590
 7057TIP3   OH242585   0.106   0.926   1.597  0.0735 -0.5264  0.6490
 7057TIP3    H142586   0.098   1.011   1.553  1.6858 -0.6509  0.0871
 7057TIP3    H242587   0.200   0.906   1.594 -0.5027 -3.2371 -0.9510
 7058TIP3   OH242588   5.240   5.242  14.952 -0.9163 -0.2720 -0.2249
 7058TIP3    H142589   5.155   5.199  14.961 -1.0443 -0.4452 -2.0084
 7058TIP3    H242590   5.239   5.312  15.018 -2.0667 -0.8583  0.3887
 7059TIP3   OH242591   1.858   0.476   3.303 -0.3768  0.4456 -0.1631
 7059TIP3    H142592   1.870   0.566   3.334 -0.5045  0.8214 -1.2107
 7059TIP3    H242593   1.903   0.474   3.219 -1.3793 -0.1656 -0.6798
 7060TIP3   OH242594   4.162   2.717  17.089  0.2148 -0.1970 -0.1018
 7060TIP3    H142595   4.165   2.669  17.005 -0.2178  0.3385 -0.4256
 7060TIP3    H242596   4.104   2.664  17.144  0.1601 -0.3236 -0.2791
 7061TIP3   OH242597   1.597   3.241   5.884 -0.3973  0.1510  0.0204
 7061TIP3    H142598   1.524   3.246   5.946  0.4082  1.5865  0.8935
 7061TIP3    H242599   1.556   3.221   5.800 -1.6345 -0.5676  0.7854
 7062TIP3   OH242600   0.872   1.048  13.147 -0.6221 -0.3083  0.2578
 7062TIP3    H142601   0.899   1.138  13.131 -1.7837  0.5213  2.7353
 7062TIP3    H242602   0.811   1.028  13.077 -0.7061  0.9916 -0.0400
 7063TIP3   OH242603   2.644   4.485   0.622  0.8202 -0.4923  0.1692
 7063TIP3    H142604   2.674   4.573   0.647  0.8538 -0.4590  0.0137
 7063TIP3    H242605   2.573   4.466   0.682  1.0203 -0.4859  0.4061
 7064TIP3   OH242606   1.441   3.873   3.512 -0.4632 -0.1074  0.0908
 7064TIP3    H142607   1.446   3.777   3.509  0.2222 -0.1157  1.2148
 7064TIP3    H242608   1.406   3.898   3.426  4.8719 -1.0241 -2.5484
 7065TIP3   OH242609   6.655   6.552  11.975 -0.1492 -0.4141  0.2322
 7065TIP3    H142610   6.602   6.473  11.966 -1.1080  0.2699 -0.1303
 7065TIP3    H242611   6.628   6.608  11.902  0.9681 -0.0010  0.1259
 7066TIP3   OH242612   6.590   1.188  12.103 -0.2756  0.6939  0.4817
 7066TIP3    H142613   6.566   1.194  12.011  0.4836 -0.8925  0.1570
 7066TIP3    H242614   6.508   1.203  12.150 -0.3444  3.2184 -0.3813
 7067TIP3   OH242615   5.320   4.999   5.899 -0.7875  0.0844 -0.1852
 7067TIP3    H142616   5.305   4.998   5.994  0.3485  0.8425  0.0123
 7067TIP3    H242617   5.369   4.919   5.882  1.7378  1.4696  0.3562
 7068TIP3   OH242618   5.069   3.407  14.156 -0.2428  0.8990 -0.0957
 7068TIP3    H142619   4.987   3.373  14.120  0.8236 -1.8030 -0.0666
 7068TIP3    H242620   5.137   3.364  14.105  1.2037  1.2328  1.5245
 7069TIP3   OH242621   6.536   5.431  13.528 -0.3082 -0.1469  0.1700
 7069TIP3    H142622   6.513   5.345  13.564 -1.3274 -0.7019 -1.7143
 7069TIP3    H242623   6.461   5.486  13.548 -0.8546 -0.4430 -1.0036
 7070TIP3   OH242624   5.768   4.294   3.698 -0.2449 -0.2567  0.0982
 7070TIP3    H142625   5.726   4.263   3.617  1.1461 -0.8620 -0.3956
 7070TIP3    H242626   5.807   4.215   3.736  0.2480  0.2683  0.6786
 7071TIP3   OH242627   0.996   1.026   1.118  0.6779  0.3099 -0.0073
 7071TIP3    H142628   1.001   1.019   1.214 -1.2075  0.5817  0.1250
 7071TIP3    H242629   1.007   0.936   1.088  0.8819  0.1644  0.4877
 7072TIP3   OH242630   6.206   2.021   6.383 -0.2539  0.0734 -0.1089
 7072TIP3    H142631   6.207   2.109   6.345  0.5826  0.9044  1.7814
 7072TIP3    H242632   6.286   1.980   6.349 -0.4209  0.1907 -0.6527
 7073TIP3   OH242633   0.049   1.790   1.870 -0.0996 -0.4119  0.2873
 7073TIP3    H142634   0.114   1.853   1.838 -0.0135 -1.0370 -0.8094
 7073TIP3    H242635   0.036   1.814   1.962  1.6541 -0.2401  0.5247
 7074TIP3   OH242636   2.610   0.770   3.610  0.3202 -0.9023 -0.3663
 7074TIP3    H142637   2.655   0.854   3.621  0.5356 -1.1486  0.7078
 7074TIP3    H242638   2.579   0.748   3.698 -1.7405 -0.8358 -1.0454
 7075TIP3   OH242639   4.228   3.849   0.656 -0.2158  0.4952  0.2561
 7075TIP3    H142640   4.269   3.931   0.629  0.6260  0.2827  0.8801
 7075TIP3    H242641   4.188   3.868   0.741 -0.3827  0.3700  0.2073
 7076TIP3   OH242642   5.348   2.862  10.607  0.0081  0.1430  0.0432
 7076TIP3    H142643   5.286   2.933  10.597  0.6465  0.8616  1.0753
 7076TIP3    H242644   5.296   2.788  10.639 -0.3605  0.6431  0.5991
 7077TIP3   OH242645   2.712   5.746  11.279 -0.5411 -0.3855  0.0732
 7077TIP3    H142646   2.659   5.822  11.256 -0.4601  0.2957  1.9969
 7077TIP3    H242647   2.800   5.781  11.291 -0.5109 -0.7602  1.0053
 7078TIP3   OH242648   5.438   5.403   3.221  0.5679 -0.0393 -0.7884
 7078TIP3    H142649   5.373   5.332   3.220  1.6773 -1.0641 -0.8227
 7078TIP3    H242650   5.475   5.402   3.132  0.5809  0.5899 -0.7904
 7079TIP3   OH242651   5.775   0.767   0.964  0.7224  0.0811  0.4536
 7079TIP3    H142652   5.695   0.804   0.926 -0.1775 -1.1614  1.1031
 7079TIP3    H242653   5.824   0.734   0.889 -0.0733 -0.4789  0.1756
 7080TIP3   OH242654   5.400   3.616   4.125  0.1417 -0.1330  0.3438
 7080TIP3    H142655   5.310   3.594   4.106  0.2346  0.2012 -0.5000
 7080TIP3    H242656   5.406   3.710   4.107 -0.1115  0.5017  3.3093
 7081TIP3   OH242657   5.024   0.416  15.214 -0.2822  0.0948 -0.3668
 7081TIP3    H142658   5.083   0.341  15.209 -0.0155  0.1932  1.0887
 7081TIP3    H242659   5.058   0.478  15.151  0.9083 -0.0378  0.1274
 7082TIP3   OH242660   3.453   2.820  17.167  0.5480 -0.4292 -0.0457
 7082TIP3    H142661   3.438   2.827  17.261 -0.2281 -0.7220 -0.1457
 7082TIP3    H242662   3.466   2.911  17.139 -0.8364 -0.1769  0.0852
 7083TIP3   OH242663   4.769   3.505  17.145  0.6579 -0.3457  0.4554
 7083TIP3    H142664   4.704   3.439  17.121 -0.6059 -0.3023  3.5363
 7083TIP3    H242665   4.804   3.475  17.228  1.6859  1.7197  0.7958
 7084TIP3   OH242666   2.778   4.382  14.993 -0.1549 -0.2119  0.1619
 7084TIP3    H142667   2.770   4.351  15.083 -0.8934  0.1127  0.2138
 7084TIP3    H242668   2.714   4.453  14.987 -0.5323 -0.6356 -0.7912
 7085TIP3   OH242669   0.515   3.683   0.565  0.1009 -0.4039  0.9889
 7085TIP3    H142670   0.512   3.751   0.498  3.1360 -0.7134  0.4627
 7085TIP3    H242671   0.447   3.621   0.541 -1.1571  1.2653  0.1838
 7086TIP3   OH242672   0.291   0.121   6.477  0.0430 -0.0759 -0.2406
 7086TIP3    H142673   0.196   0.126   6.464  0.0981 -0.5531 -0.8538
 7086TIP3    H242674   0.317   0.210   6.500 -0.7267 -0.1798  1.0754
 7087TIP3   OH242675   5.436   2.511  12.811  0.0514  1.1826 -0.1937
 7087TIP3    H142676   5.503   2.560  12.859  1.3867 -1.4203  0.7032
 7087TIP3    H242677   5.456   2.528  12.719  1.5080  1.0187  0.0814
 7088TIP3   OH242678   5.400   4.412   6.270  0.5540  0.6031  0.3495
 7088TIP3    H142679   5.411   4.482   6.206  0.7013  0.4197  0.1754
 7088TIP3    H242680   5.474   4.354   6.256  0.1219  0.1042  0.1028
 7089TIP3   OH242681   6.778   2.516   6.421 -0.1887  0.0903 -0.0545
 7089TIP3    H142682   6.769   2.521   6.326 -1.2881 -0.6414 -0.0075
 7089TIP3    H242683   6.746   2.601   6.453 -2.1331 -0.5373 -0.2222
 7090TIP3   OH242684   0.496   3.148   4.151  0.1634  0.1282  0.5537
 7090TIP3    H142685   0.469   3.096   4.075 -0.0812  1.6089 -0.3831
 7090TIP3    H242686   0.592   3.140   4.153  0.2450  0.8141 -0.4467
 7091TIP3   OH242687   2.628   3.307   4.809  0.4692  0.1712 -0.0611
 7091TIP3    H142688   2.594   3.365   4.741  2.5857  1.7833  0.2141
 7091TIP3    H242689   2.677   3.240   4.761 -0.0894 -0.1209 -0.2371
 7092TIP3   OH242690   5.507   0.326   1.190 -0.4537  0.1628 -0.0144
 7092TIP3    H142691   5.517   0.246   1.139  1.7631 -0.3382  1.1670
 7092TIP3    H242692   5.476   0.391   1.126  0.7876 -0.8383 -1.6701
 7093TIP3   OH242693   4.293   2.081  16.503  0.2495 -0.1899 -0.5057
 7093TIP3    H142694   4.285   2.092  16.408 -1.2824 -0.7273 -0.4414
 7093TIP3    H242695   4.242   2.003  16.523 -1.4705  1.2859  1.0840
 7094TIP3   OH242696   2.860   3.188   6.655  0.7195 -0.0220  0.0046
 7094TIP3    H142697   2.857   3.097   6.624  1.7929  0.1745 -0.6825
 7094TIP3    H242698   2.812   3.186   6.738 -1.9202 -0.6016 -1.5049
 7095TIP3   OH242699   1.514   0.015  15.152  0.1968 -0.4118  0.2609
 7095TIP3    H142700   1.571  -0.007  15.226 -1.0209 -0.9748  1.0546
 7095TIP3    H242701   1.559  -0.020  15.076  1.2624 -0.2053  0.7874
 7096TIP3   OH242702   4.346   2.440  16.445  0.0731  0.3500 -0.2659
 7096TIP3    H142703   4.350   2.536  16.444 -0.2935  0.3723 -1.9034
 7096TIP3    H242704   4.437   2.413  16.455  0.1957  0.8682  0.0461
 7097TIP3   OH242705   0.335   3.900  15.709 -0.3739  0.0531  0.4841
 7097TIP3    H142706   0.302   3.861  15.629  0.3607  1.9129 -0.7510
 7097TIP3    H242707   0.322   3.994  15.698  0.6245  0.4129  2.1223
 7098TIP3   OH242708   4.062   1.100  13.778  0.4125  0.0340 -0.3872
 7098TIP3    H142709   4.045   1.066  13.866  3.4469  1.8502  0.9736
 7098TIP3    H242710   4.043   1.026  13.720 -0.2369 -1.6579  1.9071
 7099TIP3   OH242711   0.176   3.854   0.616 -0.4945 -0.1902 -0.0799
 7099TIP3    H142712   0.254   3.849   0.562 -1.0271  0.9346 -0.9769
 7099TIP3    H242713   0.209   3.871   0.704  0.2305  1.3360 -0.6323
 7100TIP3   OH242714   3.663   0.779  12.903  0.2533 -0.1606  0.1022
 7100TIP3    H142715   3.598   0.711  12.919  0.7906 -1.0261 -1.3240
 7100TIP3    H242716   3.722   0.742  12.837  2.3802  0.4984  1.5860
 7101TIP3   OH242717   6.399   5.504  13.827 -0.2079 -0.5736 -0.1759
 7101TIP3    H142718   6.363   5.459  13.750  2.0855 -0.8161 -1.1461
 7101TIP3    H242719   6.416   5.434  13.890 -0.4405 -0.5830 -0.1224
 7102TIP3   OH242720   6.246   2.847  11.228 -0.4489 -0.2413 -0.4187
 7102TIP3    H142721   6.265   2.918  11.167 -3.0109 -0.5191 -1.6005
 7102TIP3    H242722   6.258   2.767  11.176  3.1791 -0.7759  1.1106
 7103TIP3   OH242723   1.844   4.191   0.365 -0.1885  0.0643 -0.4669
 7103TIP3    H142724   1.868   4.141   0.288  2.1050 -0.8773  0.8119
 7103TIP3    H242725   1.896   4.154   0.436 -2.6875  0.4999  1.6930
 7104TIP3   OH242726   5.953   5.910   3.358  0.4650 -0.6725 -0.0209
 7104TIP3    H142727   5.995   5.834   3.319 -0.8765 -0.3164 -2.2524
 7104TIP3    H242728   5.914   5.878   3.439 -0.4257 -2.4545 -1.1362
 7105TIP3   OH242729   5.125   6.211   1.726 -0.2475 -0.4778  0.0805
 7105TIP3    H142730   5.101   6.300   1.702  1.7869 -0.3710 -1.6875
 7105TIP3    H242731   5.171   6.219   1.809 -0.2954  0.0934  0.0503
 7106TIP3   OH242732   5.168   5.421  15.612 -0.0912 -0.3613  0.5885
 7106TIP3    H142733   5.135   5.335  15.584 -0.7540  0.5473 -1.5633
 7106TIP3    H242734   5.238   5.401  15.674 -2.1295 -2.4069  2.3402
 7107TIP3   OH242735   4.974   3.538   1.546 -0.7195 -0.4200 -0.3864
 7107TIP3    H142736   5.011   3.591   1.616 -2.5672  1.0101 -0.4555
 7107TIP3    H242737   4.987   3.590   1.467 -0.8199 -0.9333 -0.7437
 7108TIP3   OH242738   5.758   1.457   4.591 -0.4033  0.5579  0.1616
 7108TIP3    H142739   5.813   1.451   4.669  0.6183  2.6628 -0.3524
 7108TIP3    H242740   5.793   1.532   4.542 -1.2219 -0.5179 -2.1667
 7109TIP3   OH242741   4.023   6.597   5.386  0.2102  0.0396 -0.4707
 7109TIP3    H142742   4.049   6.553   5.304 -0.8455 -1.1300 -0.1887
 7109TIP3    H242743   3.959   6.538   5.425  0.1821  0.9483  0.8590
 7110TIP3   OH242744   5.605   0.996   5.030  0.3589  0.0406  0.0080
 7110TIP3    H142745   5.689   1.041   5.039  0.5623 -0.6066  1.5354
 7110TIP3    H242746   5.629   0.905   5.013 -0.0336 -0.0526 -0.0483
 7111TIP3   OH242747   1.223   5.415   3.238 -0.5581 -0.2741  0.6093
 7111TIP3    H142748   1.251   5.441   3.326  1.4659 -1.4254  0.3414
 7111TIP3    H242749   1.235   5.493   3.185  0.0625 -0.1180  0.9659
 7112TIP3   OH242750   6.645   0.762   6.570 -0.0653  0.1218  0.1197
 7112TIP3    H142751   6.699   0.715   6.508 -0.5795 -0.2354 -0.0650
 7112TIP3    H242752   6.572   0.703   6.588  0.4815 -0.0965  1.6651
 7113TIP3   OH242753   2.516   5.256   3.835  0.2078  0.0271  0.0076
 7113TIP3    H142754   2.609   5.278   3.837  0.2394 -0.1774  1.0793
 7113TIP3    H242755   2.507   5.196   3.761  0.4360  2.1602 -1.8193
 7114TIP3   OH242756   4.230   5.451  10.903  0.0020 -0.1385  0.4785
 7114TIP3    H142757   4.195   5.362  10.903 -0.9377  0.2228  0.7206
 7114TIP3    H242758   4.160   5.504  10.864 -0.2262  0.7832  2.0889
 7115TIP3   OH242759   2.169   5.390   0.521 -0.1256 -0.3443  0.2033
 7115TIP3    H142760   2.113   5.339   0.578 -0.2458  0.0684  0.4519
 7115TIP3    H242761   2.257   5.358   0.539 -0.0670  0.3626  1.2349
 7116TIP3   OH242762   3.241   4.333   3.371  0.1485 -0.2455  0.1731
 7116TIP3    H142763   3.277   4.332   3.282 -2.0857 -2.8498 -0.7846
 7116TIP3    H242764   3.300   4.279   3.422 -0.4980 -1.6930 -0.5919
 7117TIP3   OH242765   0.362   2.614  12.168 -0.3079  0.3791  0.3755
 7117TIP3    H142766   0.407   2.562  12.102  0.2235  0.1208  0.9403
 7117TIP3    H242767   0.325   2.550  12.229 -1.6085  0.5814 -0.1871
 7118TIP3   OH242768   1.739   3.485   1.072 -0.3067 -0.2714 -0.1532
 7118TIP3    H142769   1.730   3.504   0.979 -0.3881 -1.3618 -0.3660
 7118TIP3    H242770   1.803   3.414   1.076 -0.3030 -0.2275  0.6232
 7119TIP3   OH242771   3.168   6.032   6.410  0.5258  0.5668 -0.2428
 7119TIP3    H142772   3.199   6.014   6.499 -0.2164 -0.1999 -0.1273
 7119TIP3    H242773   3.216   5.971   6.355  1.9174  1.9055 -0.5426
 7120TIP3   OH242774   3.761   5.904  11.021  0.3257 -0.7562  0.7160
 7120TIP3    H142775   3.675   5.889  10.982  1.7217 -0.9583 -2.4875
 7120TIP3    H242776   3.764   5.999  11.037  0.1155 -0.4816 -0.7632
 7121TIP3   OH242777   6.263   2.794  12.402  0.4075  0.8379 -0.1879
 7121TIP3    H142778   6.171   2.818  12.397 -0.1475 -0.5767  2.3336
 7121TIP3    H242779   6.279   2.779  12.495  2.5062 -1.4559 -0.8632
 7122TIP3   OH242780   1.303   1.138  12.410  0.2284  0.2558  0.0113
 7122TIP3    H142781   1.263   1.079  12.474  1.2124 -0.9873 -0.5135
 7122TIP3    H242782   1.298   1.225  12.451 -1.6077 -0.1161  0.5966
 7123TIP3   OH242783   1.826   4.596  17.087 -0.4558 -0.0770 -0.0215
 7123TIP3    H142784   1.903   4.653  17.089 -1.2417  0.9449  1.0046
 7123TIP3    H242785   1.822   4.559  17.175 -1.9989  1.0045  0.3666
 7124TIP3   OH242786   1.678   6.512   1.713  0.2509 -0.4840  0.3139
 7124TIP3    H142787   1.746   6.575   1.736  1.3429 -0.4938 -2.7073
 7124TIP3    H242788   1.603   6.565   1.687  0.9651 -0.3771 -1.6300
 7125TIP3   OH242789   1.911   0.348   1.632  0.3966  0.5416 -0.0029
 7125TIP3    H142790   1.911   0.404   1.555 -0.0691 -0.1971 -0.5404
 7125TIP3    H242791   1.896   0.260   1.598  2.1838 -0.0695  0.7115
 7126TIP3   OH242792   0.859   1.678  14.807 -0.3297  0.2679  0.4016
 7126TIP3    H142793   0.928   1.745  14.807 -1.4543  1.4379  0.7189
 7126TIP3    H242794   0.809   1.695  14.886 -0.4562 -1.1446  0.6348
 7127TIP3   OH242795   0.039   1.071  12.042  0.1161  0.1003 -0.2516
 7127TIP3    H142796  -0.047   1.109  12.057  0.8366  1.2674  1.1670
 7127TIP3    H242797   0.025   0.977  12.044 -1.2242  0.2849 -0.6685
 7128TIP3   OH242798   2.218   3.340  15.902 -0.3958  1.3181 -0.1647
 7128TIP3    H142799   2.237   3.349  15.809 -1.0660 -0.5207 -0.5134
 7128TIP3    H242800   2.183   3.425  15.928  0.9279  2.2270 -1.3049
 7129TIP3   OH242801   6.654   2.497   3.818  0.1772 -0.1428  0.5613
 7129TIP3    H142802   6.740   2.476   3.782  0.4424 -0.2080  1.2356
 7129TIP3    H242803   6.606   2.535   3.744  1.2093  1.0900  0.5142
 7130TIP3   OH242804   0.188   6.699   2.604 -0.2314  0.1175 -0.7729
 7130TIP3    H142805   0.203   6.627   2.543  0.1372 -0.9636  0.5503
 7130TIP3    H242806   0.270   6.749   2.603 -1.2073  1.7372 -3.2250
 7131TIP3   OH242807   5.050   4.576  14.013 -0.1812 -0.1741 -0.3553
 7131TIP3    H142808   5.128   4.624  13.982  0.5894 -1.9488 -1.2776
 7131TIP3    H242809   5.086   4.503  14.064 -1.2301 -1.0649 -0.8763
 7132TIP3   OH242810   5.260   3.761  15.251 -0.2204  0.3060  0.6065
 7132TIP3    H142811   5.309   3.693  15.203 -2.2247  0.8423 -2.3554
 7132TIP3    H242812   5.323   3.832  15.262  0.3320  0.1489 -1.2756
 7133TIP3   OH242813   1.915   0.547   3.028 -0.6035 -0.4636 -0.1643
 7133TIP3    H142814   1.825   0.535   2.997 -0.9022  0.1799  0.4407
 7133TIP3    H242815   1.931   0.641   3.019 -0.1569 -0.5066  0.1805
 7134TIP3   OH242816   0.684   0.722  14.042  0.7249 -0.4054  0.3116
 7134TIP3    H142817   0.658   0.700  14.131  0.5240 -2.7121 -0.2912
 7134TIP3    H242818   0.637   0.803  14.023 -0.0764 -0.4788  1.9120
 7135TIP3   OH242819   1.711   3.942   0.657 -0.0157  0.4354  0.4251
 7135TIP3    H142820   1.666   3.970   0.577 -1.7097 -0.2062  1.1263
 7135TIP3    H242821   1.769   3.871   0.629 -0.9286 -0.0811 -0.1674
 7136TIP3   OH242822   2.480   0.483   6.475 -0.2797  0.6245 -0.1599
 7136TIP3    H142823   2.454   0.519   6.560 -1.1319  2.5432 -1.2141
 7136TIP3    H242824   2.399   0.481   6.424 -0.1463 -2.2890 -0.3350
 7137TIP3   OH242825   0.367   6.212  14.894 -0.4400 -0.2201  0.1231
 7137TIP3    H142826   0.313   6.140  14.861  0.7488 -0.4121 -1.4680
 7137TIP3    H242827   0.305   6.283  14.908 -1.4455 -1.1608  0.5466
 7138TIP3   OH242828   5.130   6.487   3.632 -0.7001 -0.1825 -0.2087
 7138TIP3    H142829   5.066   6.469   3.563 -0.5949  0.6635 -0.5351
 7138TIP3    H242830   5.135   6.406   3.682 -2.4863 -0.0657  0.2055
 7139TIP3   OH242831   3.788   0.328  13.944  0.2596 -0.2473 -0.6072
 7139TIP3    H142832   3.746   0.406  13.909  0.5528  0.5869  0.8366
 7139TIP3    H242833   3.742   0.310  14.026  0.4308 -1.3752 -0.7497
 7140TIP3   OH242834   3.306   3.419  11.940 -0.4374  0.4028  0.1353
 7140TIP3    H142835   3.396   3.406  11.970 -0.5911 -0.3091  0.2930
 7140TIP3    H242836   3.256   3.435  12.020 -0.2393  2.1168 -0.0562
 7141TIP3   OH242837   2.097   4.468   1.574 -0.3599 -0.0427 -0.6472
 7141TIP3    H142838   2.027   4.525   1.605 -0.3978 -1.5582  2.2482
 7141TIP3    H242839   2.164   4.528   1.540 -0.5590  1.7312  1.9623
 7142TIP3   OH242840   2.882   6.180   5.856  0.6193 -0.5838  0.1361
 7142TIP3    H142841   2.934   6.122   5.801 -2.4100 -1.1255 -2.2665
 7142TIP3    H242842   2.804   6.200   5.804  0.1270  3.2000  2.1276
 7143TIP3   OH242843   2.041   4.501   4.682 -0.0060 -0.0690 -1.1243
 7143TIP3    H142844   1.985   4.433   4.646  0.2169 -0.1074 -1.3934
 7143TIP3    H242845   1.984   4.579   4.687 -0.7875 -0.7167  0.8414
 7144TIP3   OH242846   3.354   5.172  15.156 -0.0066  0.2266  0.4102
 7144TIP3    H142847   3.293   5.245  15.141 -0.1687 -0.3305 -1.9157
 7144TIP3    H242848   3.436   5.214  15.181  0.4527  1.3870 -2.7437
 7145TIP3   OH242849   2.673   3.877   2.395 -0.2051 -0.0614  0.5553
 7145TIP3    H142850   2.653   3.948   2.457  0.2418 -0.1132  0.7537
 7145TIP3    H242851   2.647   3.797   2.441  0.7254 -0.1553  0.9313
 7146TIP3   OH242852   0.665   1.833   5.013 -0.0695 -0.4255  0.3114
 7146TIP3    H142853   0.735   1.864   5.070 -0.4968 -1.8801  1.6664
 7146TIP3    H242854   0.693   1.856   4.925  0.8701  1.3541  1.0601
 7147TIP3   OH242855   4.476   5.136   5.723 -0.0154 -0.1198  0.1024
 7147TIP3    H142856   4.484   5.042   5.709 -0.4897 -0.5432  2.3496
 7147TIP3    H242857   4.524   5.152   5.805 -0.7074  1.4222  0.2298
 7148TIP3   OH242858   1.716   0.676  15.593 -0.4130  0.0848  0.0580
 7148TIP3    H142859   1.641   0.619  15.607 -2.6373  2.3168 -2.2235
 7148TIP3    H242860   1.687   0.762  15.623  2.4086  0.3824  2.1730
 7149TIP3   OH242861   2.314   5.306   0.908 -0.3331 -0.2822  0.1417
 7149TIP3    H142862   2.256   5.235   0.937  0.0205  0.5399  3.0426
 7149TIP3    H242863   2.257   5.368   0.863 -1.3765 -0.4595  1.2038
 7150TIP3   OH242864   4.720   5.140   4.639  0.1046  0.6687 -0.0482
 7150TIP3    H142865   4.763   5.216   4.678  1.3777 -0.5324  0.9447
 7150TIP3    H242866   4.789   5.098   4.587 -0.3051 -0.3541  0.2183
 7151TIP3   OH242867   1.587   2.682  16.620 -0.2796  0.4133  0.6695
 7151TIP3    H142868   1.515   2.658  16.562 -0.7094  1.5786  0.6953
 7151TIP3    H242869   1.548   2.744  16.682  0.2274 -0.6789  2.0923
 7152TIP3   OH242870   1.893   4.187   3.493 -0.8427  0.1662  0.5082
 7152TIP3    H142871   1.861   4.156   3.578 -2.9121  1.2498  0.1499
 7152TIP3    H242872   1.852   4.273   3.482  1.3751  1.1442 -0.4750
 7153TIP3   OH242873   2.209   2.195  17.156  0.0756 -0.2677  0.0778
 7153TIP3    H142874   2.272   2.159  17.094  0.0702  0.3132 -0.2653
 7153TIP3    H242875   2.210   2.133  17.230 -1.0194 -1.7642 -1.1300
 7154TIP3   OH242876   6.548   5.129   1.507 -0.1454  0.1731 -0.6798
 7154TIP3    H142877   6.643   5.122   1.495 -0.4458 -0.7236 -2.8448
 7154TIP3    H242878   6.531   5.078   1.587  1.3881  1.9158  0.8092
 7155TIP3   OH242879   6.645   6.138  12.123 -0.8212  0.1016  0.0305
 7155TIP3    H142880   6.647   6.168  12.214 -2.8858 -0.9550  0.4754
 7155TIP3    H242881   6.659   6.043  12.129  1.9391  0.3985 -1.0342
 7156TIP3   OH242882   2.146   1.698   2.791 -0.5641 -0.4332 -0.1100
 7156TIP3    H142883   2.227   1.716   2.839 -0.3139 -1.1391 -0.2710
 7156TIP3    H242884   2.076   1.728   2.850 -0.1932  0.1025  0.0592
 7157TIP3   OH242885   5.730   2.088  12.632  0.3133  0.4588 -0.2252
 7157TIP3    H142886   5.718   2.069  12.725  0.8002  1.6141  0.0795
 7157TIP3    H242887   5.671   2.027  12.588 -1.2302  1.0656  0.9278
 7158TIP3   OH242888   4.966   2.544  15.568 -0.0515 -0.3694 -0.4293
 7158TIP3    H142889   4.964   2.568  15.475  1.6044 -2.9688 -1.2093
 7158TIP3    H242890   5.058   2.558  15.593 -0.1185 -1.3188  0.3420
 7159TIP3   OH242891   4.987   2.701   1.172 -0.4184 -0.2082 -0.0751
 7159TIP3    H142892   4.913   2.707   1.233 -0.1266 -1.8611  0.4633
 7159TIP3    H242893   4.994   2.789   1.135 -3.2496 -0.2400 -0.8508
 7160TIP3   OH242894   6.695   2.982   0.924 -0.0330  0.5771 -0.0392
 7160TIP3    H142895   6.717   2.951   1.012  1.0041 -0.6872 -0.7281
 7160TIP3    H242896   6.626   2.922   0.894  0.9263 -0.1562 -0.8006
 7161TIP3   OH242897   0.617   1.600   3.753  0.9376 -0.0577 -0.1935
 7161TIP3    H142898   0.635   1.506   3.759  0.0152 -0.1843  0.6571
 7161TIP3    H242899   0.527   1.606   3.721  1.1110  0.5485 -0.5790
 7162TIP3   OH242900   6.398   1.355   3.536  0.3006 -0.3918  0.6726
 7162TIP3    H142901   6.367   1.323   3.451 -0.8225  1.7013  0.2723
 7162TIP3    H242902   6.408   1.449   3.524  0.2836 -0.0921  2.8298
 7163TIP3   OH242903   1.553   3.505   1.464 -0.5530  0.4824 -0.6619
 7163TIP3    H142904   1.571   3.592   1.499 -1.6130  0.0396  1.0346
 7163TIP3    H242905   1.548   3.449   1.541 -0.6152 -0.9469 -1.6899
 7164TIP3   OH242906   3.088   1.714   2.921  0.2690 -0.1115  0.0666
 7164TIP3    H142907   3.027   1.763   2.976  0.1796  0.7404 -0.7840
 7164TIP3    H242908   3.153   1.679   2.983 -0.1877  0.2935  0.7865
 7165TIP3   OH242909   1.882   2.972   1.430  0.4064 -0.4917 -0.3757
 7165TIP3    H142910   1.835   2.963   1.514 -0.9956 -0.4602 -1.1481
 7165TIP3    H242911   1.933   2.891   1.424  0.4049 -0.5636  0.4421
 7166TIP3   OH242912   3.120   3.919   6.604 -0.5476  0.2920  0.4487
 7166TIP3    H142913   3.096   3.980   6.674 -1.4985  1.1238 -0.5976
 7166TIP3    H242914   3.037   3.883   6.574 -0.2567  0.8494 -1.0696
 7167TIP3   OH242915   0.483   6.556   3.092  0.6004  1.4744  0.3009
 7167TIP3    H142916   0.546   6.484   3.101  1.1720  2.2377  2.7002
 7167TIP3    H242917   0.537   6.635   3.089 -0.1553  1.9957  0.3933
 7168TIP3   OH242918   1.312   5.224   2.159  0.0758  0.5875  0.6218
 7168TIP3    H142919   1.278   5.195   2.075  0.1600  1.5585  0.2398
 7168TIP3    H242920   1.338   5.144   2.204  1.0637  0.1337 -0.7249
 7169TIP3   OH242921   3.926   3.257  11.969 -0.3948  0.0964  0.1985
 7169TIP3    H142922   3.900   3.246  11.877 -0.5599  1.2864  0.0996
 7169TIP3    H242923   3.910   3.172  12.008 -0.9101 -0.2477 -0.7375
 7170TIP3   OH242924   2.789   1.581   1.510 -0.5521  0.3929 -0.4322
 7170TIP3    H142925   2.859   1.518   1.491 -0.2353  0.4565  0.5050
 7170TIP3    H242926   2.708   1.533   1.490 -0.3183 -0.3729  0.4218
 7171TIP3   OH242927   0.584   0.553  16.693 -0.3940  0.5471 -0.0545
 7171TIP3    H142928   0.598   0.627  16.752 -2.7666  0.3098  0.8236
 7171TIP3    H242929   0.572   0.478  16.750  1.7222 -0.5292 -0.9392
 7172TIP3   OH242930   5.687   6.769   3.512  0.4122  0.1687  0.2960
 7172TIP3    H142931   5.632   6.694   3.489 -0.9998  1.3735 -0.3421
 7172TIP3    H242932   5.676   6.779   3.606  0.5610 -0.3841  0.3744
 7173TIP3   OH242933   0.948   6.116   2.667  0.7544  0.6512 -0.0462
 7173TIP3    H142934   0.953   6.079   2.755  0.4812  1.3504  0.2653
 7173TIP3    H242935   1.014   6.185   2.666  0.3045  1.0788 -0.1824
 7174TIP3   OH242936   5.043   4.618   3.672 -0.1049  0.6887  0.4666
 7174TIP3    H142937   5.117   4.624   3.734 -1.9793  2.9288  2.6242
 7174TIP3    H242938   5.027   4.525   3.662  2.6289  0.1934  0.4378
 7175TIP3   OH242939   5.857   2.152   2.616 -0.2755 -0.1111 -0.2084
 7175TIP3    H142940   5.871   2.210   2.691 -0.6093 -0.6779  0.2962
 7175TIP3    H242941   5.766   2.124   2.624  0.0208 -1.0740 -0.1961
 7176TIP3   OH242942   1.803   4.508   3.908  0.5395 -0.6263 -0.7523
 7176TIP3    H142943   1.740   4.492   3.838  0.2811  0.6910 -0.8270
 7176TIP3    H242944   1.868   4.567   3.870 -0.3053  1.1335  0.4970
 7177TIP3   OH242945   5.300   4.382   5.952  0.1275 -0.2960 -0.2921
 7177TIP3    H142946   5.348   4.456   5.989 -0.2252 -0.2861  0.1656
 7177TIP3    H242947   5.306   4.314   6.019  0.1876 -0.5725 -0.5777
 7178TIP3   OH242948   3.456   0.061  12.855  0.3368 -0.1973 -0.2745
 7178TIP3    H142949   3.478   0.120  12.783  0.4893  1.2342  0.9100
 7178TIP3    H242950   3.398  -0.004  12.816  2.8839 -1.2803 -2.3984
 7179TIP3   OH242951   4.253   6.040   4.379 -0.2650  0.0939 -0.0366
 7179TIP3    H142952   4.192   6.112   4.393  0.6904  0.8225  0.5161
 7179TIP3    H242953   4.339   6.080   4.393  0.4835 -0.3495 -2.9541
 7180TIP3   OH242954   0.210   4.125   1.757  0.5835  0.1436  0.1370
 7180TIP3    H142955   0.150   4.141   1.684  1.4739 -0.9926 -0.8731
 7180TIP3    H242956   0.155   4.122   1.834 -0.9060 -2.5777 -0.9647
 7181TIP3   OH242957   5.549   6.420  13.397 -0.1464  0.0880 -0.3393
 7181TIP3    H142958   5.560   6.481  13.470  1.0928  1.2580 -1.4712
 7181TIP3    H242959   5.500   6.470  13.331  0.5260 -0.2534 -1.1093
 7182TIP3   OH242960   4.401   3.819   2.567 -0.0815  0.6898 -0.4194
 7182TIP3    H142961   4.409   3.835   2.661  2.7674 -1.0867 -0.3079
 7182TIP3    H242962   4.462   3.881   2.527 -0.7944  0.9845 -1.0503
 7183TIP3   OH242963   1.123   5.443   3.823 -0.3860  0.2575 -0.1845
 7183TIP3    H142964   1.162   5.360   3.794 -0.0523  0.4730 -0.3558
 7183TIP3    H242965   1.069   5.471   3.749 -0.9418 -0.0825  0.0845
 7184TIP3   OH242966   6.090   4.886  14.973 -0.3746  0.1258  0.2407
 7184TIP3    H142967   6.053   4.864  15.058  0.9403 -0.4373  0.6831
 7184TIP3    H242968   6.112   4.802  14.933  4.0466  0.4382  1.6705
 7185TIP3   OH242969   5.632   1.610  13.320 -0.2045 -0.3080  0.5888
 7185TIP3    H142970   5.577   1.687  13.306  0.3812 -0.0189 -0.1476
 7185TIP3    H242971   5.594   1.542  13.265 -0.8714 -0.6268  1.4286
 7186TIP3   OH242972   2.561   2.979  11.657 -0.5034  0.4083  0.9567
 7186TIP3    H142973   2.487   2.992  11.598  0.3495 -3.3327 -1.0580
 7186TIP3    H242974   2.530   2.916  11.721  0.4735 -0.1133  0.9296
 7187TIP3   OH242975   0.290   0.917  11.222  0.0081 -0.1249  0.1256
 7187TIP3    H142976   0.293   0.839  11.278  0.9913 -1.1691 -1.3472
 7187TIP3    H242977   0.382   0.943  11.212 -0.3048  1.1390  0.4724
 7188TIP3   OH242978   3.425   0.169  12.465  0.1335  0.2054 -0.3272
 7188TIP3    H142979   3.499   0.160  12.404 -0.1794  0.1995 -0.7065
 7188TIP3    H242980   3.360   0.108  12.432  0.1760 -0.1903  0.3360
 7189TIP3   OH242981   1.622   3.580  14.200 -0.1424  0.4206  0.0921
 7189TIP3    H142982   1.596   3.672  14.207  0.0404  0.4213  0.8041
 7189TIP3    H242983   1.716   3.581  14.215 -0.1216  0.1323 -0.0210
 7190TIP3   OH242984   4.204   4.720   3.531  0.0198 -0.0190 -0.3782
 7190TIP3    H142985   4.247   4.636   3.545  1.9980  1.1635  0.8625
 7190TIP3    H242986   4.116   4.709   3.568  1.2488 -0.6537  2.5329
 7191TIP3   OH242987   2.267   4.641   3.831 -0.3121  0.5283  0.4545
 7191TIP3    H142988   2.197   4.684   3.881 -0.2339  0.6649  0.4463
 7191TIP3    H242989   2.339   4.704   3.831 -0.3071  0.5238  0.1806
 7192TIP3   OH242990   2.896   0.966   5.171 -0.2112 -0.0359  0.3587
 7192TIP3    H142991   2.859   1.043   5.126  0.2549  1.0172  1.7392
 7192TIP3    H242992   2.980   0.997   5.206  0.5981 -1.5692 -0.2105
 7193TIP3   OH242993   2.800   1.958   6.734  0.4152 -0.3226  0.2624
 7193TIP3    H142994   2.764   2.033   6.781  1.5114  1.2205 -1.2544
 7193TIP3    H242995   2.749   1.953   6.653  1.1505 -0.4045 -0.2095
 7194TIP3   OH242996   6.512   0.480   4.950  0.4685 -0.0939 -0.1471
 7194TIP3    H142997   6.504   0.523   5.035 -2.0585  1.5672 -1.1577
 7194TIP3    H242998   6.428   0.496   4.907  1.3996 -1.5966 -2.6440
 7195TIP3   OH242999   4.984   1.482   0.421  0.1842 -0.3965 -0.1379
 7195TIP3    H143000   5.046   1.483   0.494 -0.2538  0.3466  0.2212
 7195TIP3    H243001   4.900   1.459   0.461 -0.0031 -0.2617 -0.4548
 7196TIP3   OH243002   4.810   0.450   2.557  0.0506  0.0309 -0.4961
 7196TIP3    H143003   4.742   0.439   2.625 -0.7875  0.0613 -1.3163
 7196TIP3    H243004   4.760   0.463   2.476  1.0376 -1.0100 -1.2792
 7197TIP3   OH243005   5.885   2.728   1.759 -0.3473 -0.2600  0.3053
 7197TIP3    H143006   5.912   2.684   1.839 -0.4911 -1.6317 -0.3949
 7197TIP3    H243007   5.843   2.660   1.706 -1.6344  0.9712 -0.2887
 7198TIP3   OH243008   6.639   2.425   0.306  0.3096 -0.0677  0.3488
 7198TIP3    H143009   6.666   2.496   0.247 -0.0867 -1.1414 -1.1475
 7198TIP3    H243010   6.545   2.415   0.290  0.2678 -0.6149  0.9076
 7199TIP3   OH243011   0.513   1.820   2.743 -0.2464 -0.6734 -0.0332
 7199TIP3    H143012   0.469   1.740   2.715 -1.1581  0.4268 -1.8840
 7199TIP3    H243013   0.454   1.860   2.807 -0.4246 -0.8141 -0.1114
 7200TIP3   OH243014   6.147   2.272  12.811  0.3585  0.3817 -0.4709
 7200TIP3    H143015   6.188   2.343  12.860 -0.4080 -0.2698  1.1464
 7200TIP3    H243016   6.183   2.280  12.722  0.8485  2.3085 -0.1162
 7201TIP3   OH243017   2.460   4.113  13.605 -0.3209 -0.5945  0.3617
 7201TIP3    H143018   2.466   4.196  13.558 -1.3360 -1.6467 -1.7112
 7201TIP3    H243019   2.493   4.132  13.692  1.4874  1.4731 -0.7346
 7202TIP3   OH243020   6.578   4.863   0.544 -0.4988  0.5160  0.9175
 7202TIP3    H143021   6.674   4.863   0.541 -0.5465  0.0832 -0.9094
 7202TIP3    H243022   6.552   4.937   0.490 -1.2054  0.2985  0.9534
 7203TIP3   OH243023   4.561   0.564   3.280 -0.0090  0.1433 -0.2267
 7203TIP3    H143024   4.529   0.571   3.190 -1.3370 -0.3927  0.1975
 7203TIP3    H243025   4.652   0.594   3.275  0.1301 -0.4839 -1.8686
 7204TIP3   OH243026   0.086   2.843  11.056 -0.0635  0.3851 -0.1682
 7204TIP3    H143027   0.163   2.898  11.067 -0.2753  0.8957 -1.1964
 7204TIP3    H243028   0.117   2.754  11.071  0.9304  0.5015 -1.4654
 7205TIP3   OH243029   4.322   6.423   4.430 -0.0492  0.4657 -0.5663
 7205TIP3    H143030   4.357   6.488   4.491 -0.6570  1.2127 -1.0068
 7205TIP3    H243031   4.267   6.366   4.485 -0.0741  0.7428 -0.3042
 7206TIP3   OH243032   5.859   1.712   4.516  0.0633 -0.5489 -0.7300
 7206TIP3    H143033   5.789   1.774   4.536 -0.2910 -1.9069  2.6284
 7206TIP3    H243034   5.939   1.763   4.525 -0.3768  0.2892 -1.5439
 7207TIP3   OH243035   6.722   1.371   6.455 -0.0313 -0.4965  0.5571
 7207TIP3    H143036   6.767   1.351   6.373 -0.6974 -1.8588  0.5156
 7207TIP3    H243037   6.782   1.430   6.502  0.9757 -0.8497 -0.2867
 7208TIP3   OH243038   1.353   2.784  12.303 -0.4921  0.4811 -0.5275
 7208TIP3    H143039   1.405   2.729  12.362 -1.0387  0.5673  0.0469
 7208TIP3    H243040   1.299   2.837  12.362 -0.7109  0.8984 -1.1000
 7209TIP3   OH243041   5.942   4.245  13.324 -0.1751 -0.2066 -0.1485
 7209TIP3    H143042   5.981   4.158  13.321 -0.2060 -0.3111  1.6133
 7209TIP3    H243043   5.944   4.269  13.417 -0.5451  1.4983 -0.5573
 7210TIP3   OH243044   6.717   5.553   5.201 -0.1550  0.6145 -0.4252
 7210TIP3    H143045   6.734   5.525   5.112 -0.8901 -0.7836 -0.1250
 7210TIP3    H243046   6.779   5.504   5.254  1.9097  3.1734 -0.3756
 7211TIP3   OH243047   1.543   5.502  10.679 -0.0046  0.3033 -0.1612
 7211TIP3    H143048   1.451   5.505  10.653 -0.2477  1.6440  0.8071
 7211TIP3    H243049   1.574   5.592  10.670  0.8424  0.1263  0.8159
 7212TIP3   OH243050   3.547   6.502   0.051 -0.1698 -0.3777 -0.5191
 7212TIP3    H143051   3.562   6.436   0.119  0.7299  1.2128  0.8855
 7212TIP3    H243052   3.633   6.542   0.038 -1.0971  1.9141  0.1523
 7213TIP3   OH243053   1.776   3.539   6.019 -0.3159  0.3634  0.1077
 7213TIP3    H143054   1.803   3.462   5.970 -2.2294 -0.9040  0.9556
 7213TIP3    H243055   1.839   3.545   6.091  0.3796  0.1115 -0.4792
 7214TIP3   OH243056   6.166   2.035   5.798 -0.1153 -0.3076 -0.0886
 7214TIP3    H143057   6.162   2.065   5.889  1.7560 -1.8088  0.5289
 7214TIP3    H243058   6.244   2.077   5.762 -0.6507  0.0064 -0.9077
 7215TIP3   OH243059   3.158   5.921  16.630 -0.0238 -0.4072  0.3416
 7215TIP3    H143060   3.172   5.837  16.585 -0.8525  0.3428 -1.3929
 7215TIP3    H243061   3.233   5.930  16.688  0.9119 -1.5992 -0.6497
 7216TIP3   OH243062   0.764   0.659   1.754  0.0670 -0.6028 -0.2791
 7216TIP3    H143063   0.704   0.640   1.826  0.4568  0.4635  0.3502
 7216TIP3    H243064   0.850   0.636   1.789  0.2356 -0.2482 -0.4554
 7217TIP3   OH243065   6.294   6.361   2.278 -0.1157  0.0860  0.5581
 7217TIP3    H143066   6.230   6.406   2.332 -1.8234  0.7553 -1.9499
 7217TIP3    H243067   6.345   6.431   2.237 -0.9271 -0.2695 -1.1422
 7218TIP3   OH243068   1.258   0.576   5.813  0.1303  0.0164  0.3183
 7218TIP3    H143069   1.259   0.639   5.741 -1.7691  0.9706  1.1063
 7218TIP3    H243070   1.203   0.616   5.880  1.1909 -1.2423  1.9776
 7219TIP3   OH243071   0.178   0.458  16.230  0.3722 -0.1660  0.2728
 7219TIP3    H143072   0.231   0.453  16.309  1.3020  1.2396 -0.2354
 7219TIP3    H243073   0.226   0.407  16.165  0.9162  0.8068 -0.0902
 7220TIP3   OH243074   4.493   5.053   5.281 -1.1339  0.3453  0.2446
 7220TIP3    H143075   4.483   5.020   5.192  0.7104 -0.1787  0.2107
 7220TIP3    H243076   4.476   5.147   5.274 -1.2143  0.2732 -0.6148
 7221TIP3   OH243077   5.255   4.988   2.323  0.2683  0.0672  0.5139
 7221TIP3    H143078   5.212   4.925   2.381  1.2458 -0.0632  1.1071
 7221TIP3    H243079   5.280   5.061   2.380  3.9265 -1.3780  0.8912
 7222TIP3   OH243080   2.658   1.775  14.330 -0.0762 -0.3294  0.0525
 7222TIP3    H143081   2.716   1.812  14.263 -0.0622 -0.0065  0.2429
 7222TIP3    H243082   2.658   1.681  14.312  1.3558 -0.4618  0.7127
 7223TIP3   OH243083   0.526   0.535  12.263 -0.8232  0.5588  0.1960
 7223TIP3    H143084   0.517   0.488  12.181  0.1465 -2.0499  1.5127
 7223TIP3    H243085   0.589   0.605  12.244  0.5567 -0.9476 -0.9392
 7224TIP3   OH243086   2.952   2.863   1.385 -0.4418 -0.1004  0.0746
 7224TIP3    H143087   3.009   2.939   1.385  1.3993 -1.4400 -0.6334
 7224TIP3    H243088   2.899   2.873   1.306  0.0243  0.2774 -0.1922
 7225TIP3   OH243089   3.071   0.989  15.948  0.1936  0.1083  0.0825
 7225TIP3    H143090   3.136   0.922  15.969 -1.9363 -1.7313  0.9982
 7225TIP3    H243091   2.989   0.954  15.982 -1.1412  2.7746 -0.2847
 7226TIP3   OH243092   3.319   3.548   5.178  0.1644 -0.1185  0.4769
 7226TIP3    H143093   3.372   3.610   5.128  1.2450  0.2651  2.0521
 7226TIP3    H243094   3.304   3.592   5.262  1.1739 -2.0746  1.7206
 7227TIP3   OH243095   1.336   4.043  14.312  0.0343 -0.8114 -0.3988
 7227TIP3    H143096   1.308   4.050  14.403 -1.1662  1.8846 -0.9337
 7227TIP3    H243097   1.432   4.051  14.316  0.0628 -1.6456  0.6982
 7228TIP3   OH243098   4.045   3.423   2.955 -0.5857 -0.0834  0.4441
 7228TIP3    H143099   4.020   3.452   2.867 -0.7320 -0.5184  0.3402
 7228TIP3    H243100   3.977   3.360   2.980 -0.0340 -0.6728  0.4785
 7229TIP3   OH243101   2.496   5.557   5.361 -0.3232  0.1806  0.3097
 7229TIP3    H143102   2.547   5.622   5.314  0.2764 -0.3428  0.2384
 7229TIP3    H243103   2.488   5.592   5.450  0.3659  0.1494  0.3869
 7230TIP3   OH243104   4.585   6.511   2.691  0.4820  0.2143  0.6553
 7230TIP3    H143105   4.559   6.490   2.781  1.0791 -0.8854  0.5882
 7230TIP3    H243106   4.537   6.448   2.637  0.6193  0.4504  0.2579
 7231TIP3   OH243107   1.682   2.019  13.900  0.1518  0.3092 -0.5004
 7231TIP3    H143108   1.688   1.967  13.820 -2.1252 -0.2282 -0.3652
 7231TIP3    H243109   1.600   2.068  13.890  1.6761  2.9957 -0.0992
 7232TIP3   OH243110   4.489   5.105  16.471 -0.0358  0.2968 -0.4589
 7232TIP3    H143111   4.534   5.185  16.498 -1.3680  0.8387  0.2431
 7232TIP3    H243112   4.536   5.034  16.514 -1.0236  1.0106  1.8895
 7233TIP3   OH243113   6.417   6.607   6.074  0.0884  0.6641 -0.3877
 7233TIP3    H143114   6.345   6.612   6.136  0.9990 -1.5428  0.9159
 7233TIP3    H243115   6.485   6.662   6.111 -0.2565  1.2830 -0.6744
 7234TIP3   OH243116   1.357   5.562  13.344 -0.2397 -0.2150  0.1073
 7234TIP3    H143117   1.361   5.467  13.336 -0.6322 -0.3356  1.2415
 7234TIP3    H243118   1.264   5.583  13.330  0.0360  0.1112 -1.2604
 7235TIP3   OH243119   0.177   5.822   0.911  0.3044 -0.1391  0.2843
 7235TIP3    H143120   0.225   5.767   0.973 -0.9643 -0.9192  0.6010
 7235TIP3    H243121   0.138   5.890   0.965  0.7633  0.2814  0.0812
 7236TIP3   OH243122   6.342   5.030  12.473 -0.6979 -0.8037 -0.2597
 7236TIP3    H143123   6.280   5.042  12.545  2.0648 -2.4092  2.5173
 7236TIP3    H243124   6.397   5.109  12.475  1.3501 -2.2177  1.4879
 7237TIP3   OH243125   3.742   4.598  13.335 -0.3103  0.2625 -0.1024
 7237TIP3    H143126   3.680   4.667  13.311 -0.5781  0.1923  0.3763
 7237TIP3    H243127   3.686   4.527  13.367  0.0773  0.6808  1.5439
 7238TIP3   OH243128   2.309   6.650  14.520 -0.1239 -0.3287  0.1195
 7238TIP3    H143129   2.386   6.683  14.565 -0.3726  0.3512  0.0558
 7238TIP3    H243130   2.299   6.708  14.445 -0.7991 -0.3038  0.2288
 7239TIP3   OH243131   4.712   2.568  11.550  0.8846 -0.3870  0.3049
 7239TIP3    H143132   4.789   2.548  11.603  1.3529  0.6511  0.0375
 7239TIP3    H243133   4.719   2.662  11.532 -0.3080 -0.3348  0.0615
 7240TIP3   OH243134   1.097   0.916  17.223 -0.7675 -0.2768 -0.5944
 7240TIP3    H143135   1.168   0.868  17.265  0.8796  1.5061 -1.2711
 7240TIP3    H243136   1.081   0.870  17.141  0.7475  0.2498 -1.2046
 7241TIP3   OH243137   1.098   4.360   5.110 -0.1145 -0.6979 -0.5532
 7241TIP3    H143138   1.124   4.422   5.042  0.7152 -0.6377 -0.1889
 7241TIP3    H243139   1.015   4.324   5.079 -0.2637  0.0914 -1.0957
 7242TIP3   OH243140   1.909   5.775   0.824 -0.0087 -0.4991  0.3101
 7242TIP3    H143141   1.970   5.794   0.895  0.7220  0.1602 -0.4883
 7242TIP3    H243142   1.834   5.832   0.841 -0.2904 -1.1106  1.1387
 7243TIP3   OH243143   6.002   2.532   0.297 -0.3905  0.6964  0.2519
 7243TIP3    H143144   5.921   2.508   0.253  0.1384  0.7593 -0.7710
 7243TIP3    H243145   5.984   2.616   0.338 -0.7271  0.8833 -0.2816
 7244TIP3   OH243146   6.370   2.219  10.943 -0.7940 -0.2347 -1.0044
 7244TIP3    H143147   6.295   2.197  10.887 -0.1566 -1.7613 -1.2650
 7244TIP3    H243148   6.413   2.291  10.898 -2.3572  0.9715 -0.6270
 7245TIP3   OH243149   0.776   3.535  16.148  0.3033  0.7332  0.2383
 7245TIP3    H143150   0.700   3.587  16.175 -1.3453 -1.7889  0.5673
 7245TIP3    H243151   0.739   3.456  16.109  2.7652 -0.2738 -0.1695
 7246TIP3   OH243152   4.921   0.905   6.673 -0.2259 -0.0354 -0.2528
 7246TIP3    H143153   4.883   0.954   6.745 -0.6303 -0.5872 -0.0871
 7246TIP3    H243154   4.847   0.859   6.633  0.2178 -0.9581 -0.0485
 7247TIP3   OH243155   4.406   3.687  13.001  0.4479 -0.0849 -0.3665
 7247TIP3    H143156   4.333   3.628  12.984  0.3605 -0.4703  1.2000
 7247TIP3    H243157   4.432   3.720  12.915 -0.7198 -0.9536 -1.0629
 7248TIP3   OH243158   4.993   5.157   2.762  0.0963  0.7571 -0.1630
 7248TIP3    H143159   5.017   5.071   2.796 -1.5912  0.9430  1.5585
 7248TIP3    H243160   5.077   5.202   2.752  1.3893 -2.2197 -4.5369
 7249TIP3   OH243161   3.735   2.180   1.797  0.1473  0.5651  0.3889
 7249TIP3    H143162   3.786   2.158   1.875 -1.1068 -2.5841  0.4186
 7249TIP3    H243163   3.690   2.098   1.774 -1.7641  2.1845 -1.9454
 7250TIP3   OH243164   6.075   5.084   1.876  0.2343  0.7211  0.5407
 7250TIP3    H143165   6.130   5.095   1.954 -1.2840  0.8325  1.6192
 7250TIP3    H243166   5.989   5.116   1.903 -1.5293 -3.5476  0.2673
 7251TIP3   OH243167   6.001   5.948  15.150  0.0704 -0.3303  0.2779
 7251TIP3    H143168   6.073   5.969  15.090 -1.2621  2.4157 -0.4390
 7251TIP3    H243169   5.935   5.905  15.095  0.2445 -0.8804  0.4922
 7252TIP3   OH243170   3.255   5.800   2.798 -0.0093 -0.1705 -0.1112
 7252TIP3    H143171   3.293   5.713   2.783 -1.7878 -1.0204  0.1971
 7252TIP3    H243172   3.180   5.804   2.740  1.1388  1.9342 -1.5207
 7253TIP3   OH243173   4.098   1.348  15.951  0.2047 -0.6343  0.1407
 7253TIP3    H143174   4.099   1.443  15.963 -0.4379 -0.6358  0.2483
 7253TIP3    H243175   4.103   1.335  15.856  0.6484 -0.5006  0.1467
 7254TIP3   OH243176   4.282   3.084   4.109  0.2270  0.4790 -0.2434
 7254TIP3    H143177   4.227   3.041   4.044 -1.1740  0.1672  1.1129
 7254TIP3    H243178   4.372   3.062   4.084 -0.3802 -1.4591 -0.7988
 7255TIP3   OH243179   0.738   3.352   0.822  0.0310  0.3956 -0.5313
 7255TIP3    H143180   0.771   3.341   0.732  0.4341  1.3217 -0.4978
 7255TIP3    H243181   0.816   3.369   0.874  0.1873 -3.0954  0.5437
 7256TIP3   OH243182   1.131   5.235  11.944  0.2768  0.1188 -0.2007
 7256TIP3    H143183   1.198   5.174  11.973 -1.0812 -0.8445  0.9320
 7256TIP3    H243184   1.052   5.208  11.989 -0.7546  1.6229 -1.0558
 7257TIP3   OH243185   3.412   1.413  13.782  0.0235 -0.5026 -0.3852
 7257TIP3    H143186   3.458   1.433  13.701 -1.1825 -0.5078 -1.0917
 7257TIP3    H243187   3.321   1.437  13.765 -0.2077 -0.2879  1.0510
 7258TIP3   OH243188   3.877   0.241   3.479  0.4376 -0.5992 -0.3588
 7258TIP3    H143189   3.785   0.236   3.455 -0.4154 -0.6564  2.6530
 7258TIP3    H243190   3.915   0.303   3.417 -1.6549 -0.4441 -1.5305
 7259TIP3   OH243191   2.844   3.792  13.861 -0.1873 -0.1543  0.4926
 7259TIP3    H143192   2.846   3.738  13.782 -0.6518 -1.2598  1.2299
 7259TIP3    H243193   2.932   3.829  13.866 -0.3392  0.4311 -0.8825
 7260TIP3   OH243194   6.715   3.758  13.919  0.6093 -0.0128  0.0343
 7260TIP3    H143195   6.742   3.822  13.853 -0.3946  0.0810 -0.2986
 7260TIP3    H243196   6.719   3.674  13.874  0.2010  0.0181 -0.0576
 7261TIP3   OH243197   1.305   1.104   4.493  0.6859  0.4048 -0.3283
 7261TIP3    H143198   1.398   1.109   4.472  0.4751  1.1978 -1.0886
 7261TIP3    H243199   1.274   1.194   4.488 -0.0476  0.1965  0.2865
 7262TIP3   OH243200   5.261   2.435   3.881  0.3447 -0.3950  0.2526
 7262TIP3    H143201   5.296   2.399   3.799  0.7203 -0.2757  0.3619
 7262TIP3    H243202   5.297   2.378   3.949  1.6283  0.7027  0.4958
 7263TIP3   OH243203   2.642   4.750   2.514  0.0619 -0.6535  0.3578
 7263TIP3    H143204   2.634   4.656   2.532 -2.1389 -0.4271  0.7098
 7263TIP3    H243205   2.706   4.781   2.579  1.5900 -2.0566 -0.4246
 7264TIP3   OH243206   0.248   2.923  16.849 -0.0748 -0.3680  0.7232
 7264TIP3    H143207   0.236   2.841  16.801  2.2291 -0.3534  0.0479
 7264TIP3    H243208   0.329   2.910  16.898  1.1365  2.0216 -0.5615
 7265TIP3   OH243209   4.675   5.337  14.518  0.4424  0.3268  0.0820
 7265TIP3    H143210   4.714   5.342  14.430 -2.3002  1.3378 -1.1181
 7265TIP3    H243211   4.612   5.266  14.512 -0.9728  1.4962  0.7038
 7266TIP3   OH243212   0.786   5.391   1.168 -0.0630  0.0959 -0.1359
 7266TIP3    H143213   0.800   5.308   1.213  0.6401 -0.2702 -1.0184
 7266TIP3    H243214   0.837   5.384   1.087 -0.8605  0.9640 -0.7265
 7267TIP3   OH243215   6.717   0.106  15.914  0.1042  0.0014 -0.0182
 7267TIP3    H143216   6.747   0.196  15.922  0.5874 -0.0914 -0.7409
 7267TIP3    H243217   6.652   0.096  15.983  1.2500  0.4094  1.1278
 7268TIP3   OH243218   3.279   2.526  13.172 -0.0697 -0.6343 -0.7482
 7268TIP3    H143219   3.270   2.518  13.077 -1.4565  0.4881 -0.7398
 7268TIP3    H243220   3.372   2.544  13.186  0.4724 -2.5813 -1.7427
 7269TIP3   OH243221   0.728   3.971   5.169 -0.7105 -0.5211  0.1202
 7269TIP3    H143222   0.804   3.968   5.111  0.0670 -0.9229  1.1545
 7269TIP3    H243223   0.654   3.987   5.110  0.2039  0.2000 -0.8562
 7270TIP3   OH243224   4.179   4.998  11.518  0.4991 -0.1208 -0.3475
 7270TIP3    H143225   4.184   4.903  11.512  1.0689 -0.1848  1.1483
 7270TIP3    H243226   4.091   5.015  11.552  0.3187 -0.0986 -0.8204
 7271TIP3   OH243227   1.391   3.887   3.962  0.6498 -0.4785 -0.4376
 7271TIP3    H143228   1.341   3.916   3.885  0.2255 -1.6785 -0.6203
 7271TIP3    H243229   1.325   3.857   4.024  0.9254  1.4046  0.8124
 7272TIP3   OH243230   6.556   4.811  16.929 -0.9468 -0.2952 -0.0130
 7272TIP3    H143231   6.462   4.822  16.946 -0.6543  1.5299  0.4765
 7272TIP3    H243232   6.583   4.742  16.989 -2.1524 -1.4806 -0.7914
 7273TIP3   OH243233   3.914   6.711   0.853  0.7982  0.4170  0.3886
 7273TIP3    H143234   3.951   6.623   0.843  0.8637  0.7327 -2.5565
 7273TIP3    H243235   3.963   6.765   0.791 -0.3075  2.1999  1.0297
 7274TIP3   OH243236   0.192   0.827  14.744 -0.4272 -0.3402  0.0207
 7274TIP3    H143237   0.261   0.875  14.790  1.6241 -1.2088 -2.0232
 7274TIP3    H243238   0.129   0.894  14.718  1.5411  1.0631 -1.3198
 7275TIP3   OH243239   0.558   0.123   4.635 -0.2363 -0.2036  0.1379
 7275TIP3    H143240   0.488   0.187   4.630  1.7275  2.0966  1.1034
 7275TIP3    H243241   0.523   0.052   4.689 -1.7602  0.9458  0.6815
 7276TIP3   OH243242   1.774   0.225  14.901  0.4990 -0.0610 -0.0931
 7276TIP3    H143243   1.772   0.313  14.939  0.5096 -0.7089  1.4526
 7276TIP3    H243244   1.693   0.218  14.850  1.5630  1.6264 -2.0563
 7277TIP3   OH243245   6.200   5.180   2.142 -0.5871 -0.1657  0.3350
 7277TIP3    H143246   6.229   5.271   2.153  1.0440 -0.8961  2.2071
 7277TIP3    H243247   6.272   5.138   2.094  0.4104 -1.3978  2.8607
 7278TIP3   OH243248   6.369   2.319   2.374 -0.0241 -0.5236  0.1816
 7278TIP3    H143249   6.293   2.328   2.432  0.2867 -3.5533  1.1381
 7278TIP3    H243250   6.342   2.257   2.307  0.8565  0.1290 -0.8030
 7279TIP3   OH243251   6.256   4.675   5.440 -0.0244 -0.0682  0.1437
 7279TIP3    H143252   6.329   4.625   5.476 -0.9639 -2.0106 -0.5313
 7279TIP3    H243253   6.187   4.609   5.427 -1.0185  1.2808 -1.5496
 7280TIP3   OH243254   0.929   1.937   1.096 -0.4035 -0.1260  0.3066
 7280TIP3    H143255   0.926   1.843   1.079  1.3768 -0.2613  0.6885
 7280TIP3    H243256   0.954   1.943   1.188  1.1707  0.7436 -0.1701
 7281TIP3   OH243257   4.448   2.049  17.076  0.3341  0.0708  0.4872
 7281TIP3    H143258   4.354   2.058  17.063  0.3902 -0.3094 -0.2197
 7281TIP3    H243259   4.487   2.091  17.000  0.7096 -0.8312  0.1770
 7282TIP3   OH243260   3.334   1.751  11.995  0.4929  0.9188 -0.2276
 7282TIP3    H143261   3.339   1.673  12.050  1.0910  1.2396  0.1809
 7282TIP3    H243262   3.258   1.799  12.029  0.3877  0.7268 -0.1908
 7283TIP3   OH243263   0.694   4.281  12.482 -0.6932  0.4582  0.6276
 7283TIP3    H143264   0.663   4.191  12.477 -1.1508  0.6935 -1.0600
 7283TIP3    H243265   0.788   4.273  12.493 -0.6407 -0.2180 -0.2787
 7284TIP3   OH243266   0.411   4.531   1.468 -0.2274  1.1449  0.5952
 7284TIP3    H143267   0.486   4.588   1.453 -0.0945  1.5066  2.5150
 7284TIP3    H243268   0.407   4.475   1.391  1.7308  1.4431  0.2727
 7285TIP3   OH243269   0.603   2.382   2.491  0.1628 -0.3799  0.8977
 7285TIP3    H143270   0.699   2.385   2.491  0.1425  0.8342  0.2538
 7285TIP3    H243271   0.581   2.295   2.459  1.0711  0.5953 -2.7097
 7286TIP3   OH243272   2.512   5.305  13.823 -0.1277  0.3169  0.1898
 7286TIP3    H143273   2.521   5.391  13.781 -2.7305  0.0615 -0.9892
 7286TIP3    H243274   2.600   5.285  13.855  0.9222  2.6145 -1.1087
 7287TIP3   OH243275   0.819   6.774  15.913  0.3662  0.1933 -0.1656
 7287TIP3    H143276   0.899   6.825  15.902  1.4780 -1.1723  1.3566
 7287TIP3    H243277   0.842   6.687  15.879 -0.4984 -0.1800  0.2019
 7288TIP3   OH243278   3.827   5.485  12.511 -0.1287 -0.5003  0.2646
 7288TIP3    H143279   3.878   5.537  12.449 -1.4511 -0.5376 -0.8774
 7288TIP3    H243280   3.853   5.518  12.597  0.5201  0.6883 -0.3806
 7289TIP3   OH243281   3.181   4.981  10.715  0.6276  0.4309 -0.2664
 7289TIP3    H143282   3.089   4.976  10.744  0.5666  0.7522 -0.3983
 7289TIP3    H243283   3.216   5.055  10.764  0.4193  1.2300 -1.3102
 7290TIP3   OH243284   2.913   6.283   1.513  0.1253 -0.0515 -0.0735
 7290TIP3    H143285   2.839   6.309   1.457  0.4254 -0.9338 -0.8844
 7290TIP3    H243286   2.973   6.239   1.454  0.8345 -0.2484  0.7940
 7291TIP3   OH243287   5.249   5.077   4.898  0.3615  0.4184  0.0562
 7291TIP3    H143288   5.172   5.022   4.910  0.1914  0.5207 -0.5455
 7291TIP3    H243289   5.323   5.017   4.898  0.2707  0.3115  0.5628
 7292TIP3   OH243290   2.035   0.007  10.979 -0.2490  0.1139 -0.4030
 7292TIP3    H143291   2.011  -0.032  11.063 -0.2057 -0.5908 -0.7205
 7292TIP3    H243292   2.127   0.030  10.988  0.0946 -1.1389 -0.7115
 7293TIP3   OH243293   1.723   4.656   1.963 -0.1444  0.1530 -0.4670
 7293TIP3    H143294   1.653   4.721   1.964  0.6732  1.0650 -1.2798
 7293TIP3    H243295   1.681   4.577   1.927 -0.6255  0.8511 -1.4704
 7294TIP3   OH243296   2.261   1.865   6.000  0.2976  0.5730 -0.3551
 7294TIP3    H143297   2.343   1.895   6.039  0.9963 -0.3195 -1.0804
 7294TIP3    H243298   2.240   1.784   6.047  0.5587  0.0858 -1.0521
 7295TIP3   OH243299   4.260   1.400   0.476 -0.1248  0.1215 -0.5085
 7295TIP3    H143300   4.207   1.327   0.446 -0.0104  0.1648 -0.8132
 7295TIP3    H243301   4.339   1.359   0.512 -0.0471  0.0961 -0.7073
 7296TIP3   OH243302   3.954   4.369   1.356 -0.1375 -0.2033  0.2086
 7296TIP3    H143303   3.916   4.363   1.269  1.1038  0.5123 -0.4099
 7296TIP3    H243304   3.931   4.457   1.387  2.4857  0.9549 -0.9323
 7297TIP3   OH243305   5.899   0.646  15.019 -0.9193  0.0239  0.3136
 7297TIP3    H143306   5.826   0.696  14.982  0.9728  1.7164 -1.2611
 7297TIP3    H243307   5.891   0.660  15.114 -2.7106  0.0470  0.1825
 7298TIP3   OH243308   2.701   6.125   0.505  0.2598  0.7771  0.0105
 7298TIP3    H143309   2.779   6.180   0.497  1.2865 -0.7818 -1.0743
 7298TIP3    H243310   2.691   6.085   0.418 -0.7922 -0.2835  0.6035
 7299TIP3   OH243311   3.228   0.167  15.111 -0.2736  0.1410 -0.0911
 7299TIP3    H143312   3.263   0.253  15.089  1.4191 -0.0589  1.6929
 7299TIP3    H243313   3.188   0.179  15.197  1.9868 -1.3382  1.2205
 7300TIP3   OH243314   6.137   1.733  16.624 -0.8352  0.4575  0.2261
 7300TIP3    H143315   6.197   1.706  16.692 -0.1902  0.4175 -0.3548
 7300TIP3    H243316   6.093   1.653  16.596  0.3516  0.1368 -0.7964
 7301TIP3   OH243317   4.102   5.003  17.166  0.1602 -0.1785 -0.0357
 7301TIP3    H143318   4.015   5.022  17.129  0.0255 -0.3636  0.1898
 7301TIP3    H243319   4.158   5.072  17.130 -0.5385  1.2799  1.6117
 7302TIP3   OH243320   6.710   3.938   2.524  0.0854  0.3284 -0.0925
 7302TIP3    H143321   6.625   3.971   2.554 -0.4371 -1.4842  0.4286
 7302TIP3    H243322   6.774   3.991   2.572 -0.7396  0.7146  0.5999
 7303TIP3   OH243323   4.438   6.591   4.032  0.2320 -0.5656  0.2268
 7303TIP3    H143324   4.383   6.635   4.097  0.6550 -2.0614  1.6512
 7303TIP3    H243325   4.389   6.598   3.950 -0.8234  0.4336  0.9298
 7304TIP3   OH243326   0.738   1.037  11.372  0.3420 -0.1244  0.1017
 7304TIP3    H143327   0.655   0.998  11.346 -0.5449  0.7266  1.5482
 7304TIP3    H243328   0.796   1.023  11.297 -0.8774 -1.3851 -0.6352
 7305TIP3   OH243329   6.776   5.693  16.011  0.2065  0.7124  0.1505
 7305TIP3    H143330   6.695   5.709  16.060  0.5286  1.4921  0.4244
 7305TIP3    H243331   6.777   5.598  15.998 -0.6872  0.6832  0.2617
 7306TIP3   OH243332   2.093   0.358   1.143  0.1356  0.0529 -0.1156
 7306TIP3    H143333   2.029   0.303   1.098  1.1421 -1.4529  0.2548
 7306TIP3    H243334   2.041   0.409   1.206 -0.8234 -0.3968 -0.5277
 7307TIP3   OH243335   3.750   0.641   1.222 -0.2654 -0.2869  0.3092
 7307TIP3    H143336   3.740   0.658   1.316  0.7085  1.4764  0.1273
 7307TIP3    H243337   3.736   0.547   1.213  1.3447 -0.7954  2.4921
 7308TIP3   OH243338   4.130   5.273  15.911 -0.2890 -0.0920 -0.4435
 7308TIP3    H143339   4.111   5.307  15.823 -0.4771  0.1646 -0.3046
 7308TIP3    H243340   4.222   5.292  15.925 -0.4530  0.5836 -0.2701
 7309TIP3   OH243341   4.863   3.181   2.207 -0.6221 -0.3748  0.2344
 7309TIP3    H143342   4.846   3.107   2.148  1.0130  0.0661 -0.8278
 7309TIP3    H243343   4.896   3.250   2.150 -2.8276  1.4751  1.0978
 7310TIP3   OH243344   3.996   4.402   3.446  0.4093  0.6854  0.5224
 7310TIP3    H143345   4.048   4.391   3.366 -2.7480  0.2506 -1.5520
 7310TIP3    H243346   3.959   4.490   3.439  0.9394  1.0474  2.0500
 7311TIP3   OH243347   6.757   5.565   4.659  0.5565  0.1988 -0.0182
 7311TIP3    H143348   6.827   5.625   4.635  1.7714 -1.8177 -1.7102
 7311TIP3    H243349   6.745   5.509   4.582 -1.9723 -0.3943  0.7453
 7312TIP3   OH243350   1.458   0.548   4.977 -0.5100 -0.1085  0.0280
 7312TIP3    H143351   1.444   0.632   5.021 -1.0932 -0.4379  0.4691
 7312TIP3    H243352   1.548   0.553   4.944 -0.4537  0.5823  0.2846
 7313TIP3   OH243353   2.334   0.791  13.905  0.5590  0.5170 -0.0179
 7313TIP3    H143354   2.354   0.799  13.999  1.1592  0.8653 -0.1697
 7313TIP3    H243355   2.394   0.853  13.863 -0.1176  0.7975 -0.5816
 7314TIP3   OH243356   3.839   5.603  12.938  0.3570 -0.5364  0.1664
 7314TIP3    H143357   3.811   5.526  12.988  0.8380 -1.1959 -0.5591
 7314TIP3    H243358   3.758   5.650  12.918  0.0715 -0.7964  0.7114
 7315TIP3   OH243359   4.882   4.337   0.267 -0.2547  0.2585  1.1840
 7315TIP3    H143360   4.912   4.276   0.333  1.0710  0.7169  1.0327
 7315TIP3    H243361   4.960   4.356   0.214 -1.3118 -0.2192 -0.6052
 7316TIP3   OH243362   3.897   6.027  11.623  0.3172 -0.1577  0.3027
 7316TIP3    H143363   3.804   6.035  11.605  0.3467 -0.6795 -0.1052
 7316TIP3    H243364   3.926   5.953  11.569  0.9203 -0.1359  0.5864
 7317TIP3   OH243365   1.031   6.585   1.298 -0.1017  0.5218 -0.0954
 7317TIP3    H143366   1.002   6.524   1.366 -3.6708  2.7820  0.5303
 7317TIP3    H243367   1.020   6.537   1.216 -2.0325 -0.0242  0.4504
 7318TIP3   OH243368   6.486   4.468  17.029 -0.3613  0.6446  0.1010
 7318TIP3    H143369   6.519   4.414  17.101  0.6254  0.1257 -0.7228
 7318TIP3    H243370   6.392   4.475  17.046 -0.5091 -1.2943  0.2688
 7319TIP3   OH243371   1.028   1.982  13.853 -0.3560 -0.2335  0.1321
 7319TIP3    H143372   1.066   1.953  13.937 -0.0082 -0.5399 -0.1280
 7319TIP3    H243373   0.967   1.913  13.829  1.0611 -1.1687 -0.8876
 7320TIP3   OH243374   0.769   0.094  12.787 -0.1527  0.3898  0.1892
 7320TIP3    H143375   0.766   0.075  12.693  0.9991  1.1666 -0.0242
 7320TIP3    H243376   0.681   0.126  12.808 -1.0941 -1.9523 -0.1261
 7321TIP3   OH243377   4.131   2.422  14.709 -0.3972  0.1120 -0.0355
 7321TIP3    H143378   4.142   2.331  14.682  0.3167  0.0053  0.5968
 7321TIP3    H243379   4.220   2.457  14.711 -0.6745  0.8444 -0.3419
 7322TIP3   OH243380   4.657   4.400   1.896 -0.0141  0.4275 -0.2468
 7322TIP3    H143381   4.648   4.392   1.991 -1.2768 -0.6977 -0.4478
 7322TIP3    H243382   4.674   4.311   1.866 -0.5471  0.6288 -1.1764
 7323TIP3   OH243383   3.825   0.807   4.528  0.0391 -0.0771  0.1305
 7323TIP3    H143384   3.772   0.810   4.449  0.6658  0.0607 -0.2873
 7323TIP3    H243385   3.912   0.836   4.500  0.2816 -0.0961  0.8502
 7324TIP3   OH243386   5.371   3.741  11.461 -0.3266  0.5082  0.9096
 7324TIP3    H143387   5.390   3.675  11.394 -1.9860 -0.9872  1.8696
 7324TIP3    H243388   5.452   3.746  11.513 -0.3391 -1.1496  1.1215
 7325TIP3   OH243389   2.861   4.488  12.046  0.0760  0.4616 -0.3395
 7325TIP3    H143390   2.876   4.398  12.073 -1.0920 -0.1337 -1.6099
 7325TIP3    H243391   2.880   4.540  12.124  3.2218 -0.6525 -0.3016
 7326TIP3   OH243392   0.964   6.750  12.903 -0.0914  0.1283 -0.1738
 7326TIP3    H143393   0.972   6.785  12.991 -0.6741  2.3453 -0.9633
 7326TIP3    H243394   0.902   6.808  12.859  2.0700  0.5718 -2.7755
 7327TIP3   OH243395   0.648   2.519  16.675  0.3197 -1.0869 -0.0597
 7327TIP3    H143396   0.588   2.545  16.605  0.8964 -1.1254 -0.5805
 7327TIP3    H243397   0.610   2.556  16.755 -1.2406 -2.4438 -0.1402
 7328TIP3   OH243398   5.281   0.378   1.913  0.0613 -0.0482  0.0381
 7328TIP3    H143399   5.322   0.307   1.863 -2.6857 -0.9664 -1.0031
 7328TIP3    H243400   5.320   0.458   1.877  0.9091 -0.8784 -0.9377
 7329TIP3   OH243401   1.048   2.357  11.752  0.2934  0.2898 -0.2564
 7329TIP3    H143402   1.128   2.407  11.763 -0.2872  1.0191  0.7143
 7329TIP3    H243403   0.978   2.421  11.761 -0.4700 -0.7394  1.4260
 7330TIP3   OH243404   4.030   4.983   2.715 -0.4182  0.3416 -0.1755
 7330TIP3    H143405   3.998   5.073   2.705 -0.2516  0.6398  1.7257
 7330TIP3    H243406   4.125   4.992   2.720 -0.3009 -0.1012 -1.4550
 7331TIP3   OH243407   5.953   1.309  10.662  0.2131  0.4651 -0.3305
 7331TIP3    H143408   5.859   1.322  10.656  0.2671  0.7473 -0.5920
 7331TIP3    H243409   5.963   1.226  10.709 -0.1728  0.0740 -0.9309
 7332TIP3   OH243410   6.090   3.813  12.369  0.1902 -0.0777  0.5126
 7332TIP3    H143411   6.033   3.877  12.326  0.5357  0.2085  0.4780
 7332TIP3    H243412   6.176   3.855  12.371  0.7026 -1.0513 -0.6155
 7333TIP3   OH243413   0.150   5.237   4.809 -0.5559  0.0061  0.4255
 7333TIP3    H143414   0.233   5.280   4.828  0.3793 -1.8756  0.7635
 7333TIP3    H243415   0.111   5.289   4.740  1.0428  0.7591  0.0673
 7334TIP3   OH243416   4.548   1.970  16.371  0.0473 -0.2731 -0.1677
 7334TIP3    H143417   4.456   1.973  16.344 -0.2388 -2.8609  0.4124
 7334TIP3    H243418   4.595   2.017  16.302 -1.5447 -0.1074 -1.1696
 7335TIP3   OH243419   1.825   1.142   4.761 -0.4756 -0.2646  0.7009
 7335TIP3    H143420   1.855   1.230   4.737 -0.1566 -0.5998 -0.1331
 7335TIP3    H243421   1.899   1.085   4.743 -2.2205 -1.3933 -3.3226
 7336TIP3   OH243422   6.650   1.688   5.610  0.6169  0.0009  0.1355
 7336TIP3    H143423   6.580   1.743   5.576 -1.0356 -1.9378  0.2721
 7336TIP3    H243424   6.664   1.718   5.700  0.3160  0.7106 -0.0547
 7337TIP3   OH243425   5.689   0.809  14.987  0.1539  0.4314 -0.6505
 7337TIP3    H143426   5.624   0.828  15.055  0.2648  2.0149 -0.9725
 7337TIP3    H243427   5.739   0.890  14.978  4.3778 -1.7694  1.9070
 7338TIP3   OH243428   2.563   4.732  13.453 -0.5364  0.2512 -0.0770
 7338TIP3    H143429   2.651   4.697  13.464 -0.8920 -0.3195  1.0412
 7338TIP3    H243430   2.505   4.658  13.474 -1.2830  1.0587  0.7296
 7339TIP3   OH243431   1.978   1.252   3.194  0.0588 -0.1558  0.5693
 7339TIP3    H143432   2.005   1.319   3.132 -0.1573 -0.7093 -0.1386
 7339TIP3    H243433   1.945   1.300   3.270  0.4969  0.5245  0.3278
 7340TIP3   OH243434   0.856   4.636   5.642 -0.1707 -0.1384 -0.0394
 7340TIP3    H143435   0.934   4.582   5.634 -0.2486 -0.0156 -1.7943
 7340TIP3    H243436   0.888   4.720   5.674  0.2375 -0.5118  0.5456
 7341TIP3   OH243437   1.471   3.333  16.677  0.7160 -0.1375 -0.4070
 7341TIP3    H143438   1.457   3.239  16.666 -2.2840  0.3083 -0.7156
 7341TIP3    H243439   1.465   3.370  16.589  1.8165  0.3567 -0.2845
 7342TIP3   OH243440   0.698   4.693   2.475  0.2457  0.1242  0.6688
 7342TIP3    H143441   0.764   4.654   2.418 -1.4170 -4.0272  1.3760
 7342TIP3    H243442   0.677   4.777   2.434  2.6250 -0.5354 -2.0628
 7343TIP3   OH243443   0.153   3.884  11.838  0.5510 -0.2012 -0.5071
 7343TIP3    H143444   0.241   3.915  11.818  0.6008 -0.0376 -0.0597
 7343TIP3    H243445   0.103   3.898  11.758  1.3389 -1.8543 -1.3118
 7344TIP3   OH243446   1.282   6.563   2.349 -0.3459 -0.9226  1.1742
 7344TIP3    H143447   1.231   6.566   2.268  2.3921  1.0656 -0.5349
 7344TIP3    H243448   1.330   6.480   2.343  2.0645  0.5442 -0.6947
 7345TIP3   OH243449   5.847   6.240  12.091 -0.5579 -0.0168 -0.4057
 7345TIP3    H143450   5.924   6.205  12.048 -0.1179  1.0765 -0.5272
 7345TIP3    H243451   5.786   6.258  12.020 -2.0721 -3.5469 -0.0929
 7346TIP3   OH243452   3.708   6.331  14.033 -0.0296  0.0552  0.2713
 7346TIP3    H143453   3.634   6.277  14.061 -0.5153  0.8028  0.4661
 7346TIP3    H243454   3.668   6.399  13.978  0.9775 -1.8976 -3.0597
 7347TIP3   OH243455   4.149   5.212  13.639  0.5068  0.1952 -0.0542
 7347TIP3    H143456   4.157   5.121  13.667 -0.8967 -0.1275 -0.7006
 7347TIP3    H243457   4.159   5.209  13.544 -1.4253  0.4828 -0.2728
 7348TIP3   OH243458   6.433   1.566  13.253  0.1302 -0.5981  0.2779
 7348TIP3    H143459   6.495   1.597  13.319  0.6106 -1.4153  0.2121
 7348TIP3    H243460   6.367   1.635  13.248 -1.5093 -1.8226  3.6977
 7349TIP3   OH243461   4.831   4.166   1.319 -0.4311  0.6273 -0.2057
 7349TIP3    H143462   4.795   4.251   1.291 -1.4101  0.6926  1.1992
 7349TIP3    H243463   4.906   4.189   1.374  0.8423  0.5210 -1.8743
 7350TIP3   OH243464   1.099   0.251  14.901  0.1039  0.4732  0.4168
 7350TIP3    H143465   1.028   0.314  14.913  1.1026  1.7493 -0.2410
 7350TIP3    H243466   1.076   0.202  14.822 -0.1998  0.6553  0.3923
 7351TIP3   OH243467   3.627   6.489  16.287  0.2474 -0.3433  0.1340
 7351TIP3    H143468   3.630   6.573  16.240 -0.4746  0.4126  1.4269
 7351TIP3    H243469   3.584   6.430  16.226  0.2430  0.3652 -0.5704
 7352TIP3   OH243470   2.105   2.969   2.636 -0.6360 -0.7223 -0.1814
 7352TIP3    H143471   2.134   2.888   2.678 -0.7023 -0.7327 -0.1552
 7352TIP3    H243472   2.100   2.948   2.543 -1.2064 -0.9124 -0.1102
 7353TIP3   OH243473   1.327   5.838  14.018  0.1296 -0.6568  0.2385
 7353TIP3    H143474   1.309   5.799  13.933  0.4722 -1.0573  0.3495
 7353TIP3    H243475   1.243   5.875  14.045  0.4947  1.3621 -1.2240
 7354TIP3   OH243476   1.800   5.099  15.018  0.6019  0.2482  0.4179
 7354TIP3    H143477   1.741   5.167  15.051 -2.4164 -0.5343 -2.9755
 7354TIP3    H243478   1.877   5.146  14.987 -1.3042  2.1775 -1.5627
 7355TIP3   OH243479   2.335   4.900   4.999 -0.0406 -0.3080 -0.0011
 7355TIP3    H143480   2.247   4.865   4.985  0.6701 -2.3015  0.2976
 7355TIP3    H243481   2.393   4.826   4.982  1.5681  0.8817  0.1711
 7356TIP3   OH243482   3.182   4.219  14.769  0.4374  0.0853 -0.2145
 7356TIP3    H143483   3.218   4.303  14.741  1.3043 -0.5957 -1.1977
 7356TIP3    H243484   3.089   4.235  14.782  0.6141  1.2109 -0.3023
 7357TIP3   OH243485   1.204   3.045   3.263  0.3627 -0.5217 -0.4183
 7357TIP3    H143486   1.212   3.040   3.358 -1.3811 -0.4766 -0.2611
 7357TIP3    H243487   1.205   3.139   3.243  0.0462 -0.5101 -0.3812
 7358TIP3   OH243488   0.847   5.283  12.472  0.0467 -0.3972  0.2138
 7358TIP3    H143489   0.908   5.226  12.424 -0.5032 -0.2013 -0.7345
 7358TIP3    H243490   0.761   5.257  12.441 -0.2172  0.8560 -0.1341
 7359TIP3   OH243491   2.821   2.895   3.237  1.1734  0.0137 -0.8835
 7359TIP3    H143492   2.856   2.818   3.192 -1.8440 -0.7524 -2.0323
 7359TIP3    H243493   2.794   2.953   3.166  0.3673  0.6688 -0.0382
 7360TIP3   OH243494   3.189   6.285  17.024  0.4833 -0.0321 -0.6587
 7360TIP3    H143495   3.196   6.354  16.958  2.1870  0.8790  0.4386
 7360TIP3    H243496   3.108   6.238  17.001 -0.4153  1.9743 -1.7402
 7361TIP3   OH243497   6.445   0.884   0.219 -0.4652 -0.3762  0.1919
 7361TIP3    H143498   6.360   0.850   0.247 -0.4230 -0.7952 -0.1869
 7361TIP3    H243499   6.474   0.940   0.291 -1.6036  0.7018 -0.1800
 7362TIP3   OH243500   4.952   5.817   3.740  0.5183  0.3540  0.5775
 7362TIP3    H143501   4.954   5.824   3.645  0.2059 -1.0023  0.4547
 7362TIP3    H243502   4.897   5.890   3.769  0.3500  0.5731 -0.2957
 7363TIP3   OH243503   4.921   6.123   3.826 -0.0323  0.0676 -0.1961
 7363TIP3    H143504   4.862   6.096   3.897 -0.2883  0.4863 -0.2484
 7363TIP3    H243505   4.863   6.164   3.761  0.3810  0.9639 -0.0075
 7364TIP3   OH243506   4.151   1.180  17.056  0.5298  0.5972  0.2803
 7364TIP3    H143507   4.164   1.145  16.968  0.1629  1.3963 -0.0910
 7364TIP3    H243508   4.199   1.119  17.113  1.8292  0.7941 -0.5893
 7365TIP3   OH243509   3.256   6.678  12.075  0.3633  0.0679 -0.2163
 7365TIP3    H143510   3.237   6.584  12.082  0.9956  0.0366  1.1229
 7365TIP3    H243511   3.337   6.683  12.024  0.7417 -0.1574  0.3584
 7366TIP3   OH243512   4.608   1.080  12.865  0.0724  0.3183  0.3199
 7366TIP3    H143513   4.578   0.993  12.891 -1.7340  0.8783  0.1535
 7366TIP3    H243514   4.703   1.078  12.880  0.0861 -1.7510  0.0832
 7367TIP3   OH243515   6.150   2.375   0.923 -0.0791  0.6600 -0.2562
 7367TIP3    H143516   6.173   2.406   1.010  2.3110 -0.5580 -0.4195
 7367TIP3    H243517   6.065   2.332   0.934  0.4121  0.1232  1.5418
 7368TIP3   OH243518   2.824   1.289  14.154 -0.1519 -0.7650 -0.2446
 7368TIP3    H143519   2.864   1.312  14.238 -1.1560  1.5315 -0.3324
 7368TIP3    H243520   2.893   1.304  14.090  0.4943 -2.1317  0.1091
 7369TIP3   OH243521   1.442   3.698  12.567  0.8730 -0.2392  0.3186
 7369TIP3    H143522   1.386   3.620  12.562 -0.1149  0.6125 -3.3421
 7369TIP3    H243523   1.509   3.684  12.500  1.8973  1.1618  1.0261
 7370TIP3   OH243524   4.918   3.073   2.441 -0.0838  0.0282  0.2277
 7370TIP3    H143525   4.900   3.127   2.364  2.4566  1.5313  0.6221
 7370TIP3    H243526   5.013   3.075   2.450 -0.1983 -1.6961  2.2947
 7371TIP3   OH243527   6.709   1.306   5.379 -0.1784  0.5488  0.0124
 7371TIP3    H143528   6.624   1.264   5.378 -0.7325  1.6688 -0.9548
 7371TIP3    H243529   6.694   1.394   5.344  1.1950  1.0982  0.6998
 7372TIP3   OH243530   0.267   6.485   4.875 -0.2045 -0.5966  0.4361
 7372TIP3    H143531   0.226   6.479   4.961  0.9082 -2.7296  0.8577
 7372TIP3    H243532   0.261   6.397   4.838  1.3016 -0.2547 -0.7335
 7373TIP3   OH243533   3.211   1.776  14.542  0.1740 -0.4066 -0.0650
 7373TIP3    H143534   3.212   1.870  14.560 -1.2017 -0.4126  0.0924
 7373TIP3    H243535   3.206   1.735  14.628  0.7812 -0.6234 -0.1327
 7374TIP3   OH243536   3.949   5.747  10.606 -0.0076  0.4283 -0.0057
 7374TIP3    H143537   3.945   5.839  10.579 -1.4690  0.0767 -1.0940
 7374TIP3    H243538   4.042   5.728  10.614  0.2565  2.6457  2.5500
 7375TIP3   OH243539   4.373   6.317  11.693 -0.4427 -0.4043 -0.2936
 7375TIP3    H143540   4.460   6.289  11.663 -1.0870 -1.6614 -0.9990
 7375TIP3    H243541   4.318   6.315  11.615 -1.4578 -1.0107  0.4259
 7376TIP3   OH243542   0.248   4.588  13.202 -0.1409  0.2585 -0.4272
 7376TIP3    H143543   0.190   4.589  13.126 -0.2253  1.0051 -0.3550
 7376TIP3    H243544   0.192   4.613  13.275 -0.5504 -2.5321  0.2481
 7377TIP3   OH243545   0.046   4.793   3.273  0.2265  0.1746 -0.1614
 7377TIP3    H143546   0.029   4.808   3.366 -1.2963  1.1577 -0.5793
 7377TIP3    H243547   0.004   4.709   3.253 -1.6621  1.1915 -0.5271
 7378TIP3   OH243548   3.462   4.400  16.167  0.3437 -0.4882 -0.1165
 7378TIP3    H143549   3.484   4.449  16.087  0.4757  0.3329  0.4149
 7378TIP3    H243550   3.411   4.462  16.219  0.6679 -0.8637  0.6462
 7379TIP3   OH243551   1.082   6.745   2.007 -0.1976  0.6748 -0.7157
 7379TIP3    H143552   0.987   6.734   2.003 -0.1143 -0.9322  0.8993
 7379TIP3    H243553   1.112   6.672   2.062  1.9388  1.3282 -0.9672
 7380TIP3   OH243554   1.478   3.805   5.390  0.2954  0.6263  0.5048
 7380TIP3    H143555   1.527   3.801   5.472  0.4037  0.1640  0.4185
 7380TIP3    H243556   1.449   3.896   5.383  0.4173  0.6991  0.9786
 7381TIP3   OH243557   4.077   3.629   1.074 -0.0730  0.2724  0.8968
 7381TIP3    H143558   4.076   3.573   0.997 -1.2265  0.9068  0.4319
 7381TIP3    H243559   4.021   3.584   1.137 -2.0562  1.5054  0.0600
 7382TIP3   OH243560   4.087   5.382   4.994 -1.1629  0.4475  0.3295
 7382TIP3    H143561   4.121   5.470   4.977  1.1341 -0.1487  1.6516
 7382TIP3    H243562   4.146   5.346   5.059 -0.3985 -3.1304 -2.2014
 7383TIP3   OH243563   4.129   0.601  14.174  1.1996  0.5704  0.2309
 7383TIP3    H143564   4.074   0.658  14.229  1.2709  0.5124  0.3621
 7383TIP3    H243565   4.076   0.586  14.095  1.1714  0.7994  0.2071
 7384TIP3   OH243566   1.131   0.651  16.667 -0.3769 -0.7881 -0.4993
 7384TIP3    H143567   1.171   0.591  16.603 -1.2371 -1.9856  0.0628
 7384TIP3    H243568   1.059   0.693  16.619 -1.3255 -2.0420 -0.1976
 7385TIP3   OH243569   2.831   2.875  13.981 -0.5157  0.7416 -0.3846
 7385TIP3    H143570   2.778   2.800  13.955  1.6661 -0.2684 -2.1888
 7385TIP3    H243571   2.818   2.939  13.911 -2.5572  2.1882  1.2713
 7386TIP3   OH243572   6.394   5.450  12.473 -0.3933 -0.3676  0.9273
 7386TIP3    H143573   6.378   5.402  12.392 -0.6583 -0.1532  0.8517
 7386TIP3    H243574   6.366   5.539  12.454 -0.4314 -0.3103  1.2471
 7387TIP3   OH243575   1.496   6.087   0.340 -0.5741 -0.1833 -0.0745
 7387TIP3    H143576   1.571   6.060   0.393 -0.6623 -1.6815 -0.7115
 7387TIP3    H243577   1.454   6.156   0.392  1.3154  0.7825  0.2285
 7388TIP3   OH243578   1.033   6.467  12.889  0.3036 -0.2393  0.1212
 7388TIP3    H143579   1.021   6.463  12.984  0.0977 -0.1923  0.0986
 7388TIP3    H243580   1.023   6.560  12.867 -1.5339 -0.4763 -0.1731
 7389TIP3   OH243581   2.124   5.220  15.148  0.4224 -0.4638 -0.2540
 7389TIP3    H143582   2.218   5.236  15.141 -0.0362  2.3137 -0.3321
 7389TIP3    H243583   2.091   5.291  15.202 -1.3717 -2.5350  1.5014
 7390TIP3   OH243584   2.700   4.608   3.540  0.3062 -0.3620 -0.1299
 7390TIP3    H143585   2.630   4.673   3.536 -0.5241 -1.2569 -0.3607
 7390TIP3    H243586   2.696   4.563   3.455 -0.1398 -1.7336  0.5955
 7391TIP3   OH243587   4.497   1.169   3.415 -0.2587  0.5190 -0.0077
 7391TIP3    H143588   4.565   1.163   3.482  0.3078 -0.9808 -0.6888
 7391TIP3    H243589   4.544   1.155   3.332 -1.7197 -3.1686 -0.3242
 7392TIP3   OH243590   2.407   4.893   2.614  0.4081 -0.4470 -1.0759
 7392TIP3    H143591   2.382   4.907   2.523 -0.9069 -0.9374 -0.8043
 7392TIP3    H243592   2.498   4.862   2.610  0.7692  0.6958 -2.1288
 7393TIP3   OH243593   1.533   5.011  13.705 -0.3698  0.1588 -0.6200
 7393TIP3    H143594   1.568   5.047  13.786  0.0032 -2.0176  0.2208
 7393TIP3    H243595   1.600   4.950  13.675 -2.0091 -1.6502 -0.7038
 7394TIP3   OH243596   0.971   6.532   4.084 -0.2250  0.3561 -0.4450
 7394TIP3    H143597   0.923   6.614   4.097 -0.6732 -0.1024  0.8800
 7394TIP3    H243598   1.024   6.522   4.163  0.3627 -0.2792 -0.9099
 7395TIP3   OH243599   5.293   1.908  15.592  0.6414  0.4294 -0.5053
 7395TIP3    H143600   5.388   1.920  15.599  0.6537  2.4584 -3.2418
 7395TIP3    H243601   5.283   1.825  15.546  1.0470 -0.3804  0.8438
 7396TIP3   OH243602   6.636   5.214  13.114 -0.4518  0.2945 -0.2634
 7396TIP3    H143603   6.645   5.302  13.077 -0.1216  0.4396  0.1605
 7396TIP3    H243604   6.548   5.186  13.087 -0.4818  0.6725 -0.5701
 7397TIP3   OH243605   2.005   5.255  14.059  0.6111  0.2493  0.3422
 7397TIP3    H143606   1.997   5.305  13.978 -0.1821  0.0345  0.2864
 7397TIP3    H243607   1.983   5.319  14.128 -0.7683 -0.1121  0.2461
 7398TIP3   OH243608   4.794   1.046   2.069 -0.0470 -0.3218  0.3523
 7398TIP3    H143609   4.848   1.125   2.065 -1.1003  0.3241 -2.7861
 7398TIP3    H243610   4.704   1.078   2.077 -0.3176 -1.2723  1.2460
 7399TIP3   OH243611   0.036   2.909   0.687 -0.7060  0.0171 -0.1920
 7399TIP3    H143612  -0.053   2.889   0.659 -1.0855  0.0591  0.9561
 7399TIP3    H243613   0.032   2.904   0.782  0.8349 -1.3188 -0.1842
 7400TIP3   OH243614   6.559   3.827  16.358  0.2994 -0.3461  0.4920
 7400TIP3    H143615   6.587   3.753  16.305 -0.4639 -2.3987  2.8730
 7400TIP3    H243616   6.468   3.808  16.380 -0.4988  2.2472 -0.4321
 7401TIP3   OH243617   3.959   1.567  13.099 -0.3462  0.1720  0.2768
 7401TIP3    H143618   3.958   1.589  13.006  0.5097 -0.1144  0.1951
 7401TIP3    H243619   3.940   1.473  13.102 -1.3825  0.3780  0.4637
 7402TIP3   OH243620   4.364   4.812   2.013 -0.2711  0.1395 -0.1632
 7402TIP3    H143621   4.414   4.865   1.951  1.2366 -1.6313 -0.4891
 7402TIP3    H243622   4.428   4.783   2.078 -1.7494  1.6478  2.0695
 7403TIP3   OH243623   1.126   3.001  10.440  0.1083 -0.1687 -0.8715
 7403TIP3    H143624   1.081   2.917  10.449  2.7951 -1.4879  0.6102
 7403TIP3    H243625   1.076   3.061  10.495 -1.5029 -0.9055 -1.5010
 7404TIP3   OH243626   4.087   0.000   1.761  0.6073  0.0740  0.9826
 7404TIP3    H143627   4.030  -0.013   1.685  0.2970  0.1588  1.2032
 7404TIP3    H243628   4.073   0.091   1.786 -0.7609 -0.5012  2.3554
 7405TIP3   OH243629   1.952   0.355  13.825 -0.1993 -0.1207 -0.1406
 7405TIP3    H143630   2.039   0.315  13.817 -0.3070 -0.4797  0.4056
 7405TIP3    H243631   1.895   0.297  13.775 -0.5218 -1.2151  1.4554
 7406TIP3   OH243632   1.995   2.052   5.259  0.1617  0.1413 -0.1607
 7406TIP3    H143633   1.922   2.009   5.304 -1.2792  3.2449  0.6073
 7406TIP3    H243634   2.067   1.989   5.265 -1.7455 -2.0089  1.1735
 7407TIP3   OH243635   0.532   6.045  15.237  0.0759  0.0549  0.2748
 7407TIP3    H143636   0.493   6.115  15.291 -0.4213  0.9641 -1.2282
 7407TIP3    H243637   0.603   6.010  15.291 -0.3484  1.0122  1.4843
 7408TIP3   OH243638   1.518   6.267  10.999  0.1506  0.0577  0.0685
 7408TIP3    H143639   1.568   6.292  10.921 -0.2536 -0.6867 -0.4381
 7408TIP3    H243640   1.482   6.181  10.977 -1.4595  0.6416  0.3671
 7409TIP3   OH243641   5.591   1.824  13.927 -0.0016 -0.0122  0.0442
 7409TIP3    H143642   5.612   1.872  13.848 -0.0632  0.3682  0.2548
 7409TIP3    H243643   5.673   1.820  13.977  0.5884 -2.1827 -1.0394
 7410TIP3   OH243644   1.559   4.389  12.363 -1.0004 -0.5514  0.4039
 7410TIP3    H143645   1.479   4.389  12.310 -1.4015 -2.6506  0.9468
 7410TIP3    H243646   1.528   4.397  12.453 -0.4892  0.3492  0.5009
 7411TIP3   OH243647   1.207   0.718  14.347 -0.1023 -0.1865  0.5574
 7411TIP3    H143648   1.212   0.651  14.278 -0.9368 -0.3694  0.6674
 7411TIP3    H243649   1.298   0.732  14.374  0.1396 -0.7777  0.0548
 7412TIP3   OH243650   0.198   2.185   5.656 -0.2918  0.1002  0.2946
 7412TIP3    H143651   0.116   2.185   5.706  0.4333  1.9450  1.5307
 7412TIP3    H243652   0.264   2.160   5.720  0.4971  1.4800  0.0396
 7413TIP3   OH243653   2.558   5.286   4.130 -0.3938 -1.0902  0.3304
 7413TIP3    H143654   2.519   5.297   4.044 -0.2876  0.0290  0.4193
 7413TIP3    H243655   2.536   5.196   4.155  0.9256 -1.9738 -1.5317
 7414TIP3   OH243656   3.897   2.665   3.419 -0.1943  0.1527  0.4878
 7414TIP3    H143657   3.850   2.647   3.337  1.1965  1.6800 -0.6653
 7414TIP3    H243658   3.915   2.578   3.455 -1.4365 -0.5235 -0.4720
 7415TIP3   OH243659   1.581   5.943  15.344  0.0942 -0.2376 -0.0786
 7415TIP3    H143660   1.594   6.038  15.344  2.8025 -0.5507  1.1313
 7415TIP3    H243661   1.639   5.912  15.274  0.7863 -1.1705  0.9007
 7416TIP3   OH243662   6.443   1.189   3.012  0.4701  0.0627 -0.3281
 7416TIP3    H143663   6.440   1.259   2.947  0.5724  1.4679  1.1345
 7416TIP3    H243664   6.509   1.129   2.980 -0.1318  0.2685 -1.9792
 7417TIP3   OH243665   6.450   0.210  12.634  0.0764 -0.1400  0.0461
 7417TIP3    H143666   6.490   0.289  12.599 -0.7200  0.0034 -0.5425
 7417TIP3    H243667   6.467   0.143  12.568 -1.6339  0.1864 -0.7631
 7418TIP3   OH243668   1.815   2.809  13.993 -0.5782  0.6739  0.3207
 7418TIP3    H143669   1.883   2.748  13.964 -1.0258  0.3538 -0.0610
 7418TIP3    H243670   1.849   2.896  13.970 -0.2728  0.5205  0.1896
 7419TIP3   OH243671   6.639   1.091   3.976 -0.1618 -0.0002 -0.4857
 7419TIP3    H143672   6.613   1.000   3.981 -1.1980  0.2423 -1.3243
 7419TIP3    H243673   6.590   1.126   3.901  0.7333  1.0676 -0.5854
 7420TIP3   OH243674   2.480   0.459  14.915  0.2479  0.4152  0.0926
 7420TIP3    H143675   2.387   0.467  14.895  0.1691  1.6919  0.8876
 7420TIP3    H243676   2.490   0.507  14.997  1.1488 -1.8620  1.3614
 7421TIP3   OH243677   3.038   1.766   2.649  0.1020  0.1883 -0.2803
 7421TIP3    H143678   3.090   1.706   2.596 -0.9292  0.1408 -1.2742
 7421TIP3    H243679   3.044   1.731   2.737  0.5606 -0.6465 -0.6329
 7422TIP3   OH243680   3.823   3.550  11.628 -0.1188 -0.4440 -0.4349
 7422TIP3    H143681   3.881   3.513  11.561 -1.3220 -0.4972 -1.4806
 7422TIP3    H243682   3.768   3.476  11.655 -0.2391 -0.2091 -0.0357
 7423TIP3   OH243683   3.133   0.403  11.949 -0.4895  0.5205 -0.1719
 7423TIP3    H143684   3.051   0.447  11.972 -0.3459  0.8281 -0.2487
 7423TIP3    H243685   3.107   0.313  11.929 -0.5467  0.0651  1.7984
 7424TIP3   OH243686   6.570   0.397   2.701 -0.1153  0.2079 -0.0441
 7424TIP3    H143687   6.616   0.429   2.778 -0.6957  2.1651 -0.4689
 7424TIP3    H243688   6.494   0.350   2.736  0.0041  0.4824  0.5868
 7425TIP3   OH243689   0.094   3.269  16.451 -0.3328 -0.2980 -0.5265
 7425TIP3    H143690   0.041   3.245  16.375  1.6885 -0.2564 -1.9966
 7425TIP3    H243691   0.164   3.324  16.415 -0.4100  1.2906  1.6561
 7426TIP3   OH243692   2.636   5.002  16.614 -0.2320  0.1670 -0.0140
 7426TIP3    H143693   2.682   5.048  16.543  0.1114 -0.3921 -0.1514
 7426TIP3    H243694   2.604   4.921  16.573 -0.6587  0.1820  0.2862
 7427TIP3   OH243695   4.219   0.207  11.355 -0.5644 -0.2436 -0.3141
 7427TIP3    H143696   4.130   0.189  11.386 -0.4266 -1.9949 -0.8960
 7427TIP3    H243697   4.214   0.194  11.260  0.1573  0.3411 -0.4318
 7428TIP3   OH243698   2.426   4.292  12.084 -0.0503 -0.0113  0.4354
 7428TIP3    H143699   2.349   4.255  12.128 -0.5884  1.6220  0.9032
 7428TIP3    H243700   2.473   4.337  12.154  0.7506 -0.0647 -0.0730
 7429TIP3   OH243701   0.872   2.742  14.162 -0.1021 -0.5140  0.2726
 7429TIP3    H143702   0.779   2.723  14.148  0.0338 -0.6210 -0.5305
 7429TIP3    H243703   0.914   2.656  14.159  0.1611 -0.3605 -0.4969
 7430TIP3   OH243704   2.756   6.710   2.693  0.7175  0.0665  0.2331
 7430TIP3    H143705   2.665   6.737   2.678  0.4231 -2.1555 -2.3133
 7430TIP3    H243706   2.804   6.749   2.620  1.5318 -0.0836  0.6926
 7431TIP3   OH243707   0.950   0.126   4.027 -0.4587 -0.3815 -0.1694
 7431TIP3    H143708   0.926   0.211   4.063  0.1063 -0.5304  0.5741
 7431TIP3    H243709   0.941   0.065   4.100 -0.3200 -0.8640 -0.5533
 7432TIP3   OH243710   2.890   5.231   3.104 -0.0958  0.1255 -0.2762
 7432TIP3    H143711   2.804   5.241   3.146  0.8689  2.8037  1.1561
 7432TIP3    H243712   2.881   5.277   3.020  0.3930  1.7993  0.5727
 7433TIP3   OH243713   4.785   3.389   1.105  0.2675  0.2469 -0.4906
 7433TIP3    H143714   4.823   3.448   1.040 -0.6081 -0.6278 -1.8001
 7433TIP3    H243715   4.692   3.411   1.105  0.2800  0.3674  0.6212
 7434TIP3   OH243716   3.698   0.057  11.285 -0.5103 -0.0891 -0.2566
 7434TIP3    H143717   3.655   0.087  11.205 -1.4182  1.0347  0.6210
 7434TIP3    H243718   3.694  -0.039  11.280 -1.2528 -0.0192 -1.1884
 7435TIP3   OH243719   0.508   1.351  11.496 -0.3370  0.1305 -0.2936
 7435TIP3    H143720   0.588   1.400  11.478  1.5244 -2.0120  1.7612
 7435TIP3    H243721   0.477   1.385  11.580 -1.2714  0.5384 -0.7971
 7436TIP3   OH243722   1.120   3.343   3.690 -0.1198 -0.5716 -0.6343
 7436TIP3    H143723   1.052   3.339   3.623  0.7864  1.4464 -1.7028
 7436TIP3    H243724   1.088   3.408   3.753  0.7482  0.2775 -1.0653
 7437TIP3   OH243725   5.707   2.658   2.172  0.4937  0.1835 -0.5699
 7437TIP3    H143726   5.692   2.616   2.257  1.2315 -3.1777 -2.0034
 7437TIP3    H243727   5.620   2.676   2.138  0.1005 -1.0603 -0.2704
 7438TIP3   OH243728   4.338   1.049  12.568 -0.2232  0.8203 -0.4284
 7438TIP3    H143729   4.324   1.041  12.662  0.6177  0.4044 -0.3290
 7438TIP3    H243730   4.343   1.143  12.552 -0.0002  0.8818 -0.0044
 7439TIP3   OH243731   2.095   3.494   4.665  0.1405 -0.1511 -0.0432
 7439TIP3    H143732   2.045   3.490   4.746 -0.6423 -2.6397 -0.5804
 7439TIP3    H243733   2.167   3.554   4.683 -1.7436  1.7046  1.4822
 7440TIP3   OH243734   3.484   0.707  12.091  0.0490  0.2370 -0.0623
 7440TIP3    H143735   3.460   0.616  12.076 -0.4204  0.1709  0.9930
 7440TIP3    H243736   3.402   0.750  12.115  0.1588  1.0748 -1.1626
 7441TIP3   OH243737   3.877   3.205  15.986 -0.1357 -0.3798 -0.2314
 7441TIP3    H143738   3.921   3.122  15.965 -0.6312 -0.7516  0.1947
 7441TIP3    H243739   3.799   3.179  16.035 -0.4211  0.3273 -0.3099
 7442TIP3   OH243740   3.766   5.827   6.039 -0.2261  0.1269  0.0350
 7442TIP3    H143741   3.674   5.844   6.058 -0.5284 -1.4429  0.1017
 7442TIP3    H243742   3.803   5.799   6.123  0.3447  0.8959  0.0406
 7443TIP3   OH243743   4.836   4.984   3.201 -0.1051 -0.5559  0.1243
 7443TIP3    H143744   4.786   4.959   3.123  2.4410  0.5862 -1.9544
 7443TIP3    H243745   4.840   4.904   3.253 -2.1873 -1.2424 -0.7032
 7444TIP3   OH243746   3.483   0.897   3.139  0.1718 -0.0636 -0.0907
 7444TIP3    H143747   3.527   0.845   3.205  0.3331  0.7062  0.4072
 7444TIP3    H243748   3.488   0.987   3.171 -2.5167 -0.0479  0.4188
 7445TIP3   OH243749   1.329   3.372  12.213 -0.0636 -0.1237 -0.5690
 7445TIP3    H143750   1.296   3.310  12.148 -0.3689 -0.1835 -0.3537
 7445TIP3    H243751   1.405   3.413  12.170  0.6355 -1.2193 -0.4087
 7446TIP3   OH243752   1.391   4.168   2.760  0.4791 -0.3835 -0.1540
 7446TIP3    H143753   1.448   4.120   2.700 -1.0865 -0.3300 -1.7379
 7446TIP3    H243754   1.407   4.260   2.740 -1.1215 -0.3841 -1.5822
 7447TIP3   OH243755   3.188   3.146  14.181  0.4264  0.2362 -0.0627
 7447TIP3    H143756   3.106   3.194  14.191 -0.6741 -1.4347 -0.7783
 7447TIP3    H243757   3.255   3.213  14.176 -0.7350  1.5890  2.0421
 7448TIP3   OH243758   2.518   6.158  15.072 -1.0250 -0.1114  0.8249
 7448TIP3    H143759   2.449   6.212  15.034 -0.1788 -0.1782 -0.8607
 7448TIP3    H243760   2.479   6.071  15.080 -0.9444 -0.2869 -0.6826
 7449TIP3   OH243761   1.772   4.914  14.607  0.2447 -0.2641  0.1709
 7449TIP3    H143762   1.823   4.995  14.602 -1.1640  0.5556 -1.9206
 7449TIP3    H243763   1.835   4.847  14.634  1.1229  1.7426  3.3255
 7450TIP3   OH243764   2.658   4.006  15.333  0.5326 -0.1600 -0.2371
 7450TIP3    H143765   2.679   4.073  15.269  0.2904 -0.3366 -0.5042
 7450TIP3    H243766   2.566   4.024  15.357  0.8967  0.4647  0.7402
 7451TIP3   OH243767   6.210   4.487   6.660  0.3186 -0.2375  0.4783
 7451TIP3    H143768   6.231   4.557   6.598  0.2019  0.2683  1.0046
 7451TIP3    H243769   6.123   4.509   6.693  0.4045 -0.4657  0.8631
 7452TIP3   OH243770   0.941   0.985   3.440  0.4855 -0.1010 -0.1130
 7452TIP3    H143771   0.895   0.929   3.502  0.0730 -1.0933 -1.2838
 7452TIP3    H243772   1.028   0.945   3.432 -0.3731 -1.6757 -2.2778
 7453TIP3   OH243773   3.173   1.220   0.370 -0.6442 -0.7413  0.3373
 7453TIP3    H143774   3.259   1.255   0.347 -1.2312 -0.4300 -1.4257
 7453TIP3    H243775   3.191   1.134   0.407  0.2805 -1.5603 -1.9626
 7454TIP3   OH243776   4.061   2.304  17.142  0.7769  0.3761  0.3719
 7454TIP3    H143777   4.103   2.362  17.206  3.2225  0.4950 -1.2605
 7454TIP3    H243778   4.062   2.354  17.060 -0.7353 -0.4465 -0.1619
 7455TIP3   OH243779   5.116   3.820   3.927 -0.0981  0.0406 -0.2782
 7455TIP3    H143780   5.046   3.871   3.967 -1.2551 -1.0274 -0.9288
 7455TIP3    H243781   5.122   3.741   3.981  1.3512  0.6085  0.4265
 7456TIP3   OH243782   2.694   1.187  12.647  0.4902 -0.1118 -0.0922
 7456TIP3    H143783   2.659   1.121  12.586  0.9447 -1.1341  0.7412
 7456TIP3    H243784   2.621   1.206  12.706  0.0868  0.7896 -0.8726
 7457TIP3   OH243785   1.426   4.921   0.944  0.0701 -0.1465  0.0529
 7457TIP3    H143786   1.355   4.976   0.910  0.5393  0.9724  0.8302
 7457TIP3    H243787   1.479   4.900   0.867  0.1887  0.9739 -0.1878
 7458TIP3   OH243788   5.883   4.729   1.026  0.3745 -1.0660 -0.6358
 7458TIP3    H143789   5.873   4.683   1.110  1.0628 -1.4356 -0.7535
 7458TIP3    H243790   5.931   4.667   0.970 -1.2773 -1.3821 -1.7565
 7459TIP3   OH243791   3.313   1.255   2.787 -0.6393  0.9723 -0.4581
 7459TIP3    H143792   3.383   1.301   2.740  0.2691 -1.1124 -1.2375
 7459TIP3    H243793   3.341   1.163   2.786 -2.1729  0.4596  1.4320
 7460TIP3   OH243794   4.728   2.703   6.046 -0.3331 -0.0401  0.4782
 7460TIP3    H143795   4.644   2.732   6.010 -0.3661 -1.1096 -0.3347
 7460TIP3    H243796   4.710   2.617   6.083  1.0652 -1.7248 -2.5324
 7461TIP3   OH243797   4.639   0.296  11.750  0.6451  0.2432 -0.0457
 7461TIP3    H143798   4.598   0.212  11.772 -0.6482  1.6718  3.3477
 7461TIP3    H243799   4.733   0.279  11.751  0.3662 -1.3987 -0.5690
 7462TIP3   OH243800   4.987   2.271  11.152  0.1035 -0.0454  0.7132
 7462TIP3    H143801   4.915   2.291  11.212 -0.1323  0.3550  0.3009
 7462TIP3    H243802   4.965   2.318  11.072  1.0789  0.5013  0.7484
 7463TIP3   OH243803   5.979   1.676  13.022 -0.6029 -0.0280  0.4397
 7463TIP3    H143804   5.955   1.707  12.935 -0.2719  1.9993  1.0378
 7463TIP3    H243805   6.073   1.659  13.017 -0.2860  1.5472  0.7955
 7464TIP3   OH243806   1.308   2.891   4.267  0.6431 -0.1014  0.7019
 7464TIP3    H143807   1.216   2.882   4.294  0.7213 -0.8243  0.7269
 7464TIP3    H243808   1.354   2.823   4.315  1.2680  0.5283  1.0099
 7465TIP3   OH243809   3.269   5.713  12.030  0.2345  0.1000  0.5290
 7465TIP3    H143810   3.270   5.738  12.122  0.2563  1.6921  0.1104
 7465TIP3    H243811   3.357   5.733  11.998 -0.4089  1.5892 -0.3491
 7466TIP3   OH243812   5.780   3.736   1.756  0.3085  0.3845 -0.1076
 7466TIP3    H143813   5.787   3.720   1.662 -0.3838  0.5401 -0.1908
 7466TIP3    H243814   5.870   3.753   1.785  0.6540 -0.6114 -0.5678
 7467TIP3   OH243815   1.981   2.571  14.996  0.0855  0.1667 -0.3928
 7467TIP3    H143816   1.899   2.599  14.955 -0.2768 -0.3487 -0.0165
 7467TIP3    H243817   1.960   2.488  15.038  1.0875 -0.5266 -1.2380
 7468TIP3   OH243818   4.419   0.562  14.642  0.5923  0.2572 -0.1390
 7468TIP3    H143819   4.419   0.504  14.718  0.7975 -0.0369 -0.3631
 7468TIP3    H243820   4.375   0.642  14.673  1.1227  0.3328  0.4327
 7469TIP3   OH243821   5.434   3.940   3.721  0.1173 -0.2109  0.0802
 7469TIP3    H143822   5.426   4.028   3.686  1.2323 -0.9924 -2.2220
 7469TIP3    H243823   5.349   3.899   3.706 -0.5093  0.5378  1.4487
 7470TIP3   OH243824   5.657   3.004   0.663 -0.3803  0.2483 -0.2081
 7470TIP3    H143825   5.653   2.952   0.743  0.4434  0.3426 -0.1031
 7470TIP3    H243826   5.683   2.942   0.596  0.2292  0.4521 -0.1557
 7471TIP3   OH243827   6.179   0.371   4.594 -0.1418  0.1710 -0.0789
 7471TIP3    H143828   6.103   0.393   4.540 -0.4539  1.3851  0.8174
 7471TIP3    H243829   6.247   0.346   4.531 -1.1880 -0.6523 -0.8984
 7472TIP3   OH243830   2.023   6.047  11.563 -0.0178  0.1608  0.0276
 7472TIP3    H143831   2.046   6.031  11.654 -0.7495  1.3625  0.4337
 7472TIP3    H243832   2.087   5.997  11.512  0.9668  0.2413  1.1863
 7473TIP3   OH243833   0.645   5.587  16.268  0.5562 -0.1211  0.2217
 7473TIP3    H143834   0.598   5.524  16.323  0.0952 -0.9003 -1.0343
 7473TIP3    H243835   0.700   5.533  16.212 -0.7446  0.4833 -1.7073
 7474TIP3   OH243836   5.329   5.772  17.022  0.0721 -0.4642 -0.0050
 7474TIP3    H143837   5.357   5.680  17.019 -0.1470 -0.4811 -2.1571
 7474TIP3    H243838   5.236   5.768  17.044 -0.0493 -0.8018 -0.5594
 7475TIP3   OH243839   3.258   1.590   3.459 -0.3162 -0.0518 -0.4609
 7475TIP3    H143840   3.187   1.549   3.410 -1.0996 -0.0860  0.6752
 7475TIP3    H243841   3.329   1.526   3.457 -0.5005 -0.2354 -1.1674
 7476TIP3   OH243842   0.187   3.647   5.402 -0.0044  0.0449  0.0935
 7476TIP3    H143843   0.185   3.715   5.334  1.1585  0.7806  0.7883
 7476TIP3    H243844   0.242   3.578   5.365 -1.4214 -0.6717 -0.7332
 7477TIP3   OH243845   3.015   3.271   2.822  0.1070  0.2841  0.1820
 7477TIP3    H143846   3.006   3.187   2.775 -0.6634  0.0856  0.6874
 7477TIP3    H243847   2.932   3.315   2.808 -0.0914  0.2678  1.2899
 7478TIP3   OH243848   3.948   4.651   1.412  0.9247  0.3714  0.0528
 7478TIP3    H143849   3.975   4.736   1.446  1.7860  0.3789 -0.6260
 7478TIP3    H243850   3.869   4.669   1.360  1.3276  0.8203 -0.4101
 7479TIP3   OH243851   3.437   2.998   1.581 -0.5376 -0.5453 -0.1639
 7479TIP3    H143852   3.426   2.927   1.644 -2.4115 -1.1589 -1.1168
 7479TIP3    H243853   3.386   3.070   1.617 -1.6493 -0.9112 -0.9659
 7480TIP3   OH243854   2.443   2.914  13.534 -0.3270  0.6078  0.0525
 7480TIP3    H143855   2.496   2.956  13.466 -1.8800  1.0531 -0.9034
 7480TIP3    H243856   2.434   2.980  13.602 -2.1581  1.6252 -1.1272
 7481TIP3   OH243857   3.091   1.286  12.363 -0.0138 -0.0348  0.1800
 7481TIP3    H143858   3.101   1.370  12.408  0.9158  0.3712 -0.7799
 7481TIP3    H243859   3.179   1.249  12.362 -0.7856 -2.1848  2.7834
 7482TIP3   OH243860   5.546   3.159  10.822  0.0263  0.1908  0.0390
 7482TIP3    H143861   5.602   3.224  10.782 -0.4273  0.4896 -0.1154
 7482TIP3    H243862   5.459   3.200  10.825 -0.8709 -1.4267 -2.5984
 7483TIP3   OH243863   1.455   0.533  15.492  0.0163  0.1511  0.0592
 7483TIP3    H143864   1.392   0.586  15.443  0.0696 -0.4414 -0.6720
 7483TIP3    H243865   1.412   0.447  15.499  0.2225  0.0954  0.6226
 7484TIP3   OH243866   1.724   5.906  16.413  0.6684 -0.1092  0.2963
 7484TIP3    H143867   1.770   5.822  16.411  1.2045  0.1485  1.3187
 7484TIP3    H243868   1.689   5.916  16.325 -0.4891 -2.0057  0.5099
 7485TIP3   OH243869   5.204   2.434  17.226  0.1710 -0.3724 -0.5902
 7485TIP3    H143870   5.193   2.339  17.225 -3.4587 -0.0498  0.1426
 7485TIP3    H243871   5.247   2.454  17.143 -0.4631 -2.5309 -1.4867
 7486TIP3   OH243872   0.100   2.703   4.606  0.0557 -0.6049  0.6282
 7486TIP3    H143873   0.170   2.769   4.598 -1.1912  0.6346 -0.2641
 7486TIP3    H243874   0.121   2.638   4.539 -0.6810  0.7594 -0.9629
 7487TIP3   OH243875   6.386   3.231   3.526 -0.1845  0.0447 -0.0762
 7487TIP3    H143876   6.322   3.292   3.489 -0.3080  1.0747  1.7692
 7487TIP3    H243877   6.470   3.273   3.512  0.1638 -1.5229 -2.9146
 7488TIP3   OH243878   4.695   6.389  14.055 -0.2426  0.3151 -0.3044
 7488TIP3    H143879   4.665   6.334  13.983 -1.3995 -2.9023  2.4756
 7488TIP3    H243880   4.766   6.339  14.095 -0.2363  1.6104  1.3507
 7489TIP3   OH243881   5.352   1.009  15.878 -0.1783  0.2308  0.3103
 7489TIP3    H143882   5.405   1.086  15.895 -0.7524  0.1375  2.7889
 7489TIP3    H243883   5.265   1.031  15.912 -1.5991  0.0960 -2.9788
 7490TIP3   OH243884   6.547   2.381  16.355 -0.1684 -0.4202 -0.0704
 7490TIP3    H143885   6.550   2.354  16.447 -2.0179  1.0183  0.4650
 7490TIP3    H243886   6.596   2.463  16.353  0.3466 -0.7396 -0.4767
 7491TIP3   OH243887   1.907   0.554   1.452 -0.3632 -0.4562  0.1061
 7491TIP3    H143888   1.871   0.562   1.363  1.7198  0.4242 -0.6914
 7491TIP3    H243889   1.838   0.589   1.508 -0.6896  1.4879 -1.4155
 7492TIP3   OH243890   1.116   3.438   4.826 -0.1044  0.0045 -0.2006
 7492TIP3    H143891   1.150   3.509   4.881 -1.3870 -0.1712  0.8621
 7492TIP3    H243892   1.030   3.418   4.864 -0.4200 -1.0717 -1.4383
 7493TIP3   OH243893   3.487   6.272  11.576 -0.1864 -0.0837 -0.5803
 7493TIP3    H143894   3.456   6.319  11.654 -1.8099  0.1395 -1.3416
 7493TIP3    H243895   3.436   6.191  11.576 -0.9078  0.3602 -1.9438
 7494TIP3   OH243896   4.445   4.142   5.736 -0.0544 -0.0974 -0.0381
 7494TIP3    H143897   4.404   4.175   5.816 -0.9224 -1.2549  0.0063
 7494TIP3    H243898   4.494   4.217   5.701 -0.5572  0.7163  0.9964
 7495TIP3   OH243899   6.158   5.821  11.168 -0.1588 -0.2836  0.2593
 7495TIP3    H143900   6.163   5.730  11.199 -0.4142 -0.3052  0.2327
 7495TIP3    H243901   6.245   5.857  11.188 -0.2786 -0.3363  0.8719
 7496TIP3   OH243902   1.120   4.743   2.191  0.4403  0.6712 -0.1372
 7496TIP3    H143903   1.050   4.681   2.170 -0.9145  2.7966 -2.1618
 7496TIP3    H243904   1.074   4.822   2.221  2.0088  1.7055 -0.3859
 7497TIP3   OH243905   2.673   5.326  16.579 -0.2371  0.1809  0.2074
 7497TIP3    H143906   2.719   5.271  16.515 -0.8202 -0.1955  0.1048
 7497TIP3    H243907   2.658   5.268  16.654  0.5676  0.6628  0.7426
 7498TIP3   OH243908   3.699   4.321  16.752 -0.2786  0.0590  0.5365
 7498TIP3    H143909   3.656   4.313  16.667  1.8110  0.1460 -0.5611
 7498TIP3    H243910   3.712   4.231  16.781 -0.2398  0.0036  0.3522
 7499TIP3   OH243911   0.722   6.481  15.406  0.1424 -0.2270 -0.1915
 7499TIP3    H143912   0.773   6.561  15.395  2.3763 -1.5661  0.0119
 7499TIP3    H243913   0.645   6.494  15.352 -1.0810  3.2850  2.2007
 7500TIP3   OH243914   5.893   3.745  12.019  0.2263 -0.4309 -0.0093
 7500TIP3    H143915   5.843   3.823  12.041 -0.1344 -0.7636  0.3740
 7500TIP3    H243916   5.899   3.697  12.102 -0.7795 -1.4923 -0.5277
 7501TIP3   OH243917   2.844   3.235   6.160 -0.0416  0.6962  0.0980
 7501TIP3    H143918   2.752   3.227   6.183  0.5196  1.2816  2.7420
 7501TIP3    H243919   2.850   3.316   6.110 -0.5726  2.1477  2.3063
 7502TIP3   OH243920   3.990   6.031   2.339  0.3925  0.5734  0.1701
 7502TIP3    H143921   4.046   6.060   2.411 -2.3898  2.0064  1.8479
 7502TIP3    H243922   3.980   5.937   2.353 -1.6301  1.1170  2.8544
 7503TIP3   OH243923   2.115   6.620   1.043 -0.0098 -0.0720 -0.1607
 7503TIP3    H143924   2.152   6.677   1.111 -2.4671  0.0754  1.1254
 7503TIP3    H243925   2.119   6.532   1.080 -0.7400 -0.0773 -0.0817
 7504TIP3   OH243926   3.206   0.747   2.098 -0.0501 -0.0605 -0.0937
 7504TIP3    H143927   3.273   0.730   2.164 -2.4730 -0.3197  2.3570
 7504TIP3    H243928   3.197   0.664   2.051 -0.2721 -0.6953  1.0670
 7505TIP3   OH243929   1.711   4.296  15.423  0.7362 -0.1623 -0.0782
 7505TIP3    H143930   1.797   4.324  15.391  1.2567 -1.6279 -0.0179
 7505TIP3    H243931   1.731   4.240  15.499 -0.3351  0.5877  0.7678
 7506TIP3   OH243932   5.868   6.117  12.659 -0.5942  0.1703 -0.1885
 7506TIP3    H143933   5.896   6.053  12.593 -1.4049  1.0401 -1.3946
 7506TIP3    H243934   5.838   6.063  12.732 -0.4151 -0.8272 -0.8299
 7507TIP3   OH243935   0.281   5.149  12.593 -0.1659  0.3449  0.1340
 7507TIP3    H143936   0.235   5.171  12.512  0.3599 -0.1336 -0.3041
 7507TIP3    H243937   0.367   5.189  12.583 -0.3945  1.0266  0.8416
 7508TIP3   OH243938   0.732   4.758  13.815  0.0304 -0.1810  0.7933
 7508TIP3    H143939   0.646   4.731  13.785 -0.3906  0.3190  1.5569
 7508TIP3    H243940   0.719   4.789  13.904  0.6586  1.6945  0.2518
 7509TIP3   OH243941   2.884   2.610  11.256 -0.6318 -0.0860  0.2535
 7509TIP3    H143942   2.911   2.563  11.177  1.8219 -1.2554  1.7104
 7509TIP3    H243943   2.960   2.664  11.278 -1.1010 -0.1418  2.0819
 7510TIP3   OH243944   6.298   5.615   4.205 -0.0690  0.5676 -1.0696
 7510TIP3    H143945   6.344   5.535   4.232  0.9475  1.2253 -0.8150
 7510TIP3    H243946   6.367   5.671   4.171 -0.9953  0.7232 -2.7327
 7511TIP3   OH243947   0.539   2.176   4.661 -0.2522 -0.0785  0.4961
 7511TIP3    H143948   0.618   2.221   4.691 -1.3408  0.7916  2.1115
 7511TIP3    H243949   0.479   2.247   4.638 -0.5612 -0.7383 -0.7744
 7512TIP3   OH243950   4.259   4.349  15.971  0.5093 -0.4581 -0.1414
 7512TIP3    H143951   4.252   4.256  15.989 -1.5806 -0.1108  1.0301
 7512TIP3    H243952   4.178   4.386  16.004  1.7695  1.9412  0.3980
 7513TIP3   OH243953   4.685   2.376   1.316  0.1797  0.4989  0.5247
 7513TIP3    H143954   4.630   2.437   1.267 -0.2699 -0.6676 -0.4648
 7513TIP3    H243955   4.730   2.430   1.381 -1.2407  1.6479  0.5632
 7514TIP3   OH243956   6.264   0.649   3.317  0.2271  0.0464  0.5401
 7514TIP3    H143957   6.302   0.736   3.330 -0.6665  0.6742 -0.8411
 7514TIP3    H243958   6.188   0.665   3.260  1.8701 -1.9860 -2.3495
 7515TIP3   OH243959   3.229   3.098   6.360 -0.6111 -0.3463 -0.4399
 7515TIP3    H143960   3.202   3.034   6.426  2.1289 -1.8156 -0.6765
 7515TIP3    H243961   3.321   3.114   6.378 -0.2984  0.6723 -2.7364
 7516TIP3   OH243962   1.233   3.470  15.824  0.0050 -0.6590 -0.6955
 7516TIP3    H143963   1.224   3.564  15.807  1.6916 -0.9872 -3.6120
 7516TIP3    H243964   1.152   3.447  15.870  0.3783  2.5552  1.7670
 7517TIP3   OH243965   4.451   0.240  10.790  0.0638  0.2508 -0.7052
 7517TIP3    H143966   4.494   0.271  10.710  2.3242 -0.4729  0.1804
 7517TIP3    H243967   4.402   0.316  10.822 -3.3231 -0.2965 -4.3249
 7518TIP3   OH243968   2.402   3.619   5.519  0.4314  0.3154  0.0965
 7518TIP3    H143969   2.445   3.694   5.561 -0.6882  0.2956  1.2983
 7518TIP3    H243970   2.329   3.658   5.470  1.0075  0.2037 -0.8815
 7519TIP3   OH243971   0.407   3.026   3.320 -0.0702 -0.3560 -0.2494
 7519TIP3    H143972   0.473   2.966   3.353  0.3539  0.9807  1.4421
 7519TIP3    H243973   0.337   2.970   3.287  0.6044 -1.7643  0.6744
 7520TIP3   OH243974   6.168   2.704  13.417 -0.6814 -0.0912  0.4119
 7520TIP3    H143975   6.167   2.741  13.505  0.9977  1.3377 -0.1327
 7520TIP3    H243976   6.163   2.780  13.359 -1.1892 -0.9855 -0.7364
 7521TIP3   OH243977   5.040   6.124   4.612 -0.3297 -0.6236  0.0636
 7521TIP3    H143978   5.038   6.084   4.525 -0.9685  0.0809 -0.2551
 7521TIP3    H243979   5.098   6.068   4.663 -1.0183 -1.8285 -0.4430
 7522TIP3   OH243980   1.984   3.230   2.566  0.1638  0.0759 -0.2107
 7522TIP3    H143981   2.041   3.211   2.492  0.3448 -1.2303  0.2548
 7522TIP3    H243982   1.990   3.152   2.621 -0.8258  0.5906  0.6302
 7523TIP3   OH243983   5.980   4.109   4.094  0.0968 -0.3058  0.1084
 7523TIP3    H143984   5.993   4.135   4.003 -1.5441  2.0434  0.5205
 7523TIP3    H243985   5.934   4.025   4.088 -1.6242  0.7115 -1.2418
 7524TIP3   OH243986   3.812   2.961   2.146  0.4192 -0.5546 -0.0277
 7524TIP3    H143987   3.820   2.912   2.065 -1.6743 -0.6129 -0.2277
 7524TIP3    H243988   3.801   2.894   2.214 -3.4782 -0.4246 -0.4255
 7525TIP3   OH243989   6.298   1.441  14.349 -0.1571 -0.7417 -0.2225
 7525TIP3    H143990   6.356   1.471  14.420 -0.9345  1.8136 -0.5947
 7525TIP3    H243991   6.357   1.403  14.284  0.9847  0.6145 -0.0042
 7526TIP3   OH243992   4.645   2.544   0.919  0.1270  0.4386  0.3403
 7526TIP3    H143993   4.643   2.477   0.852 -1.2724  0.2244  0.5801
 7526TIP3    H243994   4.738   2.555   0.939  0.3508 -1.7851  0.6601
 7527TIP3   OH243995   0.383   1.224  14.855  0.0110 -0.2586 -0.5281
 7527TIP3    H143996   0.371   1.222  14.760  0.3472 -0.2081 -0.5712
 7527TIP3    H243997   0.401   1.315  14.876  1.3786 -0.5083 -0.5941
 7528TIP3   OH243998   4.541   6.275   4.578  0.2256  0.7752  0.0535
 7528TIP3    H143999   4.503   6.187   4.586  2.0345 -0.1378 -0.9991
 7528TIP3    H244000   4.542   6.292   4.484  0.4620  1.6600  0.2127
 7529TIP3   OH244001   0.145   1.663   0.880  0.0551  0.7078  0.3673
 7529TIP3    H144002   0.234   1.692   0.860  0.2776 -0.1073  0.1830
 7529TIP3    H244003   0.112   1.627   0.797 -0.8252  1.9768  0.1514
 7530TIP3   OH244004   5.474   6.056   5.382 -0.4488 -0.0390 -0.0792
 7530TIP3    H144005   5.382   6.082   5.388 -0.3179  0.5385 -0.4774
 7530TIP3    H244006   5.520   6.116   5.440 -0.2439  0.1010 -0.3839
 7531TIP3   OH244007   1.748   0.924  13.507  0.1097  0.1004 -0.3623
 7531TIP3    H144008   1.814   0.904  13.574  1.5469  1.8152 -1.2199
 7531TIP3    H244009   1.792   0.906  13.424 -0.4514  1.3755 -0.9492
 7532TIP3   OH244010   1.189   3.048   1.364 -0.6949 -0.3978 -0.6264
 7532TIP3    H144011   1.108   2.997   1.367 -1.0930  0.2241 -0.6565
 7532TIP3    H244012   1.239   3.018   1.440 -0.9787 -0.7454 -0.5772
 7533TIP3   OH244013   6.383   3.923   2.964  0.0941 -0.1347  0.1616
 7533TIP3    H144014   6.291   3.947   2.979  0.1191  0.1417 -0.1265
 7533TIP3    H244015   6.433   3.997   3.000  0.1050  1.5801 -3.2317
 7534TIP3   OH244016   4.473   6.201  13.281 -0.2617 -0.3235  0.0446
 7534TIP3    H144017   4.515   6.142  13.344 -1.8360  0.0836  1.4982
 7534TIP3    H244018   4.402   6.148  13.243 -0.6094  0.0798  0.1261
 7535TIP3   OH244019   4.215   5.319   5.220  0.0382 -0.3240  0.6293
 7535TIP3    H144020   4.310   5.314   5.229  0.2340  1.1965 -0.5046
 7535TIP3    H244021   4.190   5.392   5.277 -0.3979 -0.4224  0.5634
 7536TIP3   OH244022   1.253   3.219   6.334  0.0881  0.1610 -0.2252
 7536TIP3    H144023   1.231   3.254   6.421  1.9849 -2.7832  1.5480
 7536TIP3    H244024   1.176   3.238   6.280 -1.7631  0.7414  2.5079
 7537TIP3   OH244025   2.414   5.189  15.751 -0.2323  0.1040 -0.1147
 7537TIP3    H144026   2.464   5.237  15.685 -0.0247 -0.7862 -0.6111
 7537TIP3    H244027   2.377   5.257  15.807 -1.3708  0.9226 -1.8165
 7538TIP3   OH244028   3.560   5.768   2.566 -0.2036 -0.1505 -0.1388
 7538TIP3    H144029   3.540   5.729   2.651 -0.6274 -0.0111 -0.1716
 7538TIP3    H244030   3.639   5.819   2.580 -0.2927 -0.1025  0.1831
 7539TIP3   OH244031   3.803   1.119  13.542 -0.7630  0.4261 -0.2424
 7539TIP3    H144032   3.803   1.203  13.588 -2.5891  0.5612 -0.4601
 7539TIP3    H244033   3.822   1.054  13.610  1.4134  1.0427 -0.2019
 7540TIP3   OH244034   5.745   2.726   3.452  0.2854 -0.0178  0.0039
 7540TIP3    H144035   5.677   2.742   3.386  0.1454  0.6459  0.3054
 7540TIP3    H244036   5.826   2.721   3.401  0.3423  1.7381 -0.1007
 7541TIP3   OH244037   3.429   2.665   5.052 -0.6899  0.5816  0.1643
 7541TIP3    H144038   3.404   2.755   5.033  0.1174  0.9558  0.8541
 7541TIP3    H244039   3.457   2.666   5.144  2.6979  0.3853 -0.7871
 7542TIP3   OH244040   5.682   0.487   0.921  0.6616  0.1137 -0.1531
 7542TIP3    H144041   5.766   0.528   0.903  1.2578 -0.8449  0.4114
 7542TIP3    H244042   5.643   0.472   0.835  1.1746  0.3462 -0.4260
 7543TIP3   OH244043   3.767   1.531  16.441  0.2859 -0.0539  0.3768
 7543TIP3    H144044   3.723   1.461  16.393 -1.1981  1.9811 -1.3023
 7543TIP3    H244045   3.729   1.528  16.528  0.2577 -1.3278  0.3352
 7544TIP3   OH244046   6.726   3.289   0.487  0.1795 -0.2042 -0.0011
 7544TIP3    H144047   6.777   3.208   0.496 -0.8716 -0.6794  1.8941
 7544TIP3    H244048   6.779   3.344   0.430  0.1241 -2.8564 -2.7529
 7545TIP3   OH244049   3.109   5.359  12.661  0.3676  0.3687  0.5748
 7545TIP3    H144050   3.045   5.388  12.597 -1.2704 -1.4182  1.3718
 7545TIP3    H244051   3.188   5.341  12.609 -0.7519 -0.4879 -0.8571
 7546TIP3   OH244052   4.107   5.071   3.877 -0.3181  0.2878 -0.6454
 7546TIP3    H144053   4.182   5.071   3.817 -0.8594 -0.4075 -1.3356
 7546TIP3    H244054   4.031   5.064   3.820 -0.8980  0.5995  0.0762
 7547TIP3   OH244055   4.684   0.020   1.690  0.3036 -0.5529  0.2764
 7547TIP3    H144056   4.597   0.008   1.728  0.2633 -0.9700  0.0503
 7547TIP3    H244057   4.711   0.108   1.718  0.1347 -0.7292  0.9788
 7548TIP3   OH244058   2.014   5.564   3.207 -0.4955  0.1511 -0.2436
 7548TIP3    H144059   1.986   5.499   3.271  0.4919 -1.5114 -1.4757
 7548TIP3    H244060   1.951   5.635   3.216 -2.4987 -1.6310  0.0365
 7549TIP3   OH244061   1.991   1.492   3.487 -0.6592 -0.2117 -0.5060
 7549TIP3    H144062   2.047   1.550   3.436 -1.5233  0.3318 -0.8388
 7549TIP3    H244063   1.979   1.537   3.571 -0.3012 -0.5041 -0.2928
 7550TIP3   OH244064   6.399   5.659   0.521  0.1532  0.3130  0.2071
 7550TIP3    H144065   6.449   5.736   0.492  0.0434  0.8386  1.3584
 7550TIP3    H244066   6.334   5.695   0.581 -1.2639 -0.4449 -0.8608
 7551TIP3   OH244067   3.916   2.117   1.050 -0.5129 -0.4959  0.2671
 7551TIP3    H144068   3.896   2.202   1.010 -1.1253 -0.3344  0.9053
 7551TIP3    H244069   3.830   2.074   1.059 -0.2533 -0.9975  0.3603
 7552TIP3   OH244070   0.652   6.498  11.794 -0.5703 -0.3477  0.0563
 7552TIP3    H144071   0.696   6.533  11.717 -1.5507  0.8638  0.0323
 7552TIP3    H244072   0.722   6.488  11.859 -0.6239  4.2090  0.9773
 7553TIP3   OH244073   0.021   1.911   4.082  0.0724  1.0421  0.4734
 7553TIP3    H144074   0.068   1.993   4.099  0.7331  0.9219 -0.7332
 7553TIP3    H244075   0.089   1.844   4.087 -0.1564  0.7563 -0.2603
 7554TIP3   OH244076   0.726   4.702   2.142  0.0941  0.7831  0.0963
 7554TIP3    H144077   0.642   4.657   2.137  0.4594  0.2407 -1.1534
 7554TIP3    H244078   0.718   4.759   2.219 -1.4147  0.7383 -0.0230
 7555TIP3   OH244079   5.431   2.964  13.032 -0.2380  0.0554 -0.0656
 7555TIP3    H144080   5.351   2.925  13.068 -0.2434  0.5335  0.4604
 7555TIP3    H244081   5.501   2.908  13.064 -0.1891  0.8425  1.2392
 7556TIP3   OH244082   0.014   6.747  11.728 -0.1619 -0.1588 -0.3556
 7556TIP3    H144083   0.011   6.652  11.723 -0.9702 -0.1335 -0.4974
 7556TIP3    H244084  -0.074   6.772  11.757 -0.4881  0.6369 -1.9530
 7557TIP3   OH244085   2.833   3.297  12.020 -0.4425 -0.1831 -0.0336
 7557TIP3    H144086   2.785   3.289  12.102  0.0663  0.6542  0.3538
 7557TIP3    H244087   2.779   3.250  11.956  0.1926 -2.6502  1.1776
 7558TIP3   OH244088   2.526   2.076   4.836  0.1235 -0.2888  0.6359
 7558TIP3    H144089   2.596   2.027   4.877  0.1403  0.1278  1.1075
 7558TIP3    H244090   2.512   2.033   4.752  2.9291  1.3906 -0.7418
 7559TIP3   OH244091   6.210   2.344  14.252  0.1442  0.5858 -0.0286
 7559TIP3    H144092   6.131   2.394  14.234  0.5340  0.5580 -1.9983
 7559TIP3    H244093   6.274   2.377  14.189  0.2628 -2.7045 -1.7671
 7560TIP3   OH244094   0.184   2.936   2.330 -0.7068 -0.6202 -0.1193
 7560TIP3    H144095   0.222   2.952   2.243  0.7921 -0.4580  0.5492
 7560TIP3    H244096   0.089   2.939   2.316 -0.4746  0.7087 -1.5142
 7561TIP3   OH244097   6.520   0.296   0.661 -0.1852  0.5025  0.3093
 7561TIP3    H144098   6.616   0.293   0.655 -0.3238 -1.5469 -1.1085
 7561TIP3    H244099   6.490   0.308   0.571 -1.3334 -1.7417  0.3511
 7562TIP3   OH244100   4.211   3.836  11.283 -0.0232  0.5008  0.0465
 7562TIP3    H144101   4.248   3.896  11.218  0.9761 -0.0676  0.0803
 7562TIP3    H244102   4.263   3.756  11.274 -1.1046 -0.2366  0.2549
 7563TIP3   OH244103   6.667   5.306  15.701 -0.0264 -0.0303  0.1569
 7563TIP3    H144104   6.617   5.281  15.624 -0.3267 -1.5885  0.8349
 7563TIP3    H244105   6.667   5.228  15.757  2.9361  0.0003  0.2964
 7564TIP3   OH244106   1.994   4.829   1.359  0.2921 -0.9162 -0.0839
 7564TIP3    H144107   2.028   4.915   1.336 -2.1034  0.2670  0.6489
 7564TIP3    H244108   2.006   4.823   1.454 -1.4048 -0.4943  0.1838
 7565TIP3   OH244109   6.503   1.158   5.271  0.3146  0.0874  0.2382
 7565TIP3    H144110   6.444   1.215   5.221  0.6212  0.9944  0.8933
 7565TIP3    H244111   6.568   1.130   5.207  0.1011  0.3936 -0.1177
 7566TIP3   OH244112   3.185   3.743   4.320 -0.1321  0.7211  0.3533
 7566TIP3    H144113   3.099   3.773   4.289 -0.8083 -1.2217  0.2804
 7566TIP3    H244114   3.164   3.683   4.392  1.2256  1.1660  1.1217
 7567TIP3   OH244115   4.980   2.546   5.109 -0.2919 -0.4208 -0.1592
 7567TIP3    H144116   4.969   2.607   5.036  0.8980 -0.9245 -0.7713
 7567TIP3    H244117   4.921   2.580   5.177 -0.7518  0.5580 -1.0220
 7568TIP3   OH244118   6.713   1.248  12.821 -0.0062 -0.2058  0.1113
 7568TIP3    H144119   6.763   1.321  12.785  1.0862 -0.8362  0.3386
 7568TIP3    H244120   6.684   1.278  12.907  0.1705  0.0709  0.0745
 7569TIP3   OH244121   0.261   5.921   2.073 -0.3438  0.7320 -0.1068
 7569TIP3    H144122   0.241   5.977   1.998  0.0026 -0.8003 -1.3764
 7569TIP3    H244123   0.353   5.938   2.092 -0.5554  1.4715  0.2950
 7570TIP3   OH244124   5.840   5.427   2.922  0.1022  0.3460  0.2392
 7570TIP3    H144125   5.901   5.489   2.963 -0.8975  0.9873  0.7768
 7570TIP3    H244126   5.879   5.341   2.937  1.0931  0.7888  0.1978
 7571TIP3   OH244127   4.312   0.058   4.544  0.2545 -0.1043 -0.0740
 7571TIP3    H144128   4.352   0.142   4.518  0.1423  0.2636  0.9094
 7571TIP3    H244129   4.221   0.080   4.563  0.0155 -0.6161 -0.6058
 7572TIP3   OH244130   2.715   1.869  14.667  0.0286 -0.0614  0.1643
 7572TIP3    H144131   2.733   1.816  14.589  2.8945 -2.1748  2.1626
 7572TIP3    H244132   2.633   1.835  14.701 -0.0160 -0.7475 -0.6276
 7573TIP3   OH244133   4.575   6.334   3.116  0.0837 -0.3393 -0.1134
 7573TIP3    H144134   4.651   6.341   3.173 -1.5790 -3.3894  2.7000
 7573TIP3    H244135   4.555   6.241   3.115 -1.8472  0.0456 -3.2238
 7574TIP3   OH244136   2.916   5.370  16.229  0.0078  0.0321  0.1434
 7574TIP3    H144137   2.923   5.389  16.322  0.5392  1.0184 -0.0935
 7574TIP3    H244138   3.004   5.384  16.194 -0.0642 -0.8578 -0.4122
 7575TIP3   OH244139   2.152   6.673   5.240 -0.3551  0.3864  0.0938
 7575TIP3    H144140   2.073   6.698   5.288 -0.4164 -0.5066  0.4709
 7575TIP3    H244141   2.172   6.585   5.271  1.5497  1.1060  0.9933
 7576TIP3   OH244142   4.775   6.332   5.629 -0.0899  0.0678 -0.0966
 7576TIP3    H144143   4.729   6.416   5.619  0.5893  0.3954 -0.4900
 7576TIP3    H244144   4.866   6.356   5.648 -0.1533 -0.5763  1.0775
 7577TIP3   OH244145   3.258   5.204  17.099  0.5609  0.2064 -0.1745
 7577TIP3    H144146   3.330   5.260  17.069  1.3708 -1.3038 -1.1007
 7577TIP3    H244147   3.302   5.127  17.135 -0.5927 -0.5612 -0.4072
 7578TIP3   OH244148   0.506   2.200  16.764 -0.0633  0.3274 -0.5541
 7578TIP3    H144149   0.440   2.268  16.751  1.7372  2.1026 -0.5727
 7578TIP3    H244150   0.540   2.182  16.676  0.3762  0.3239 -0.3834
 7579TIP3   OH244151   3.719   3.847  14.923 -0.1346  0.2423 -0.4181
 7579TIP3    H144152   3.673   3.841  14.839  0.3442 -0.4912 -0.6346
 7579TIP3    H244153   3.774   3.925  14.914 -0.6930  0.6274 -0.4822
 7580TIP3   OH244154   2.523   5.267  14.400 -0.0424 -0.0641 -0.3001
 7580TIP3    H144155   2.596   5.305  14.352 -0.9018  0.6674 -1.0363
 7580TIP3    H244156   2.455   5.251  14.334 -0.6305 -0.5457  0.4041
 7581TIP3   OH244157   3.048   0.928  14.300 -0.7520 -0.0855 -0.0711
 7581TIP3    H144158   3.010   0.845  14.326  1.9929 -1.3003  0.2263
 7581TIP3    H244159   3.059   0.977  14.381 -2.2223  0.5099 -0.2280
 7582TIP3   OH244160   5.100   2.096  12.724 -0.2853  0.0292  0.7086
 7582TIP3    H144161   5.060   2.088  12.637  1.4762  1.2292 -0.2596
 7582TIP3    H244162   5.110   2.005  12.754  1.8683 -0.6196 -1.7029
 7583TIP3   OH244163   4.903   1.040   3.556  0.0148 -0.2161  0.6518
 7583TIP3    H144164   4.853   0.999   3.485  0.2994  0.9064 -0.2328
 7583TIP3    H244165   4.838   1.090   3.605  0.3757  2.1234 -1.1457
 7584TIP3   OH244166   1.041   1.034   4.749 -0.3074 -0.6988  0.1330
 7584TIP3    H144167   1.003   1.122   4.747  0.2912 -0.4309  0.3212
 7584TIP3    H244168   0.987   0.986   4.812 -0.3787 -0.3470  0.3428
 7585TIP3   OH244169   0.037   0.694  12.882 -0.6547 -0.1438 -0.1860
 7585TIP3    H144170   0.103   0.657  12.941 -0.7614  1.6020  1.1034
 7585TIP3    H244171  -0.043   0.696  12.935 -0.6347  1.9077 -0.1772
 7586TIP3   OH244172   6.279   2.533  13.742  0.2352  0.5726 -0.0807
 7586TIP3    H144173   6.335   2.495  13.810 -0.4496  1.2381  0.8744
 7586TIP3    H244174   6.249   2.616  13.780  0.4033  1.2741 -1.4805
 7587TIP3   OH244175   5.583   0.838  13.695  0.0300 -0.4847  0.4665
 7587TIP3    H144176   5.676   0.855  13.709 -0.1436 -0.4398  1.6411
 7587TIP3    H244177   5.576   0.743  13.696 -0.1172 -0.4650  1.6575
 7588TIP3   OH244178   2.984   0.162   1.784  0.1720  0.1400 -0.2201
 7588TIP3    H144179   2.930   0.165   1.706 -0.7560  0.1209  0.4073
 7588TIP3    H244180   3.053   0.100   1.764  0.4900  0.8481 -1.3644
 7589TIP3   OH244181   2.113   1.759   4.985  0.8532 -0.1274 -0.4349
 7589TIP3    H144182   2.055   1.748   5.060 -0.6451  0.9650 -1.4282
 7589TIP3    H244183   2.149   1.847   4.995  0.8187 -0.0632 -0.8916
 7590TIP3   OH244184   4.923   2.317  12.573  0.1943 -0.2470  0.7037
 7590TIP3    H144185   4.968   2.338  12.655  0.4585  0.3563  0.4094
 7590TIP3    H244186   4.945   2.390  12.515  1.9801 -1.8208 -0.6702
 7591TIP3   OH244187   4.948   2.102   5.030 -0.5565 -0.3628 -0.3529
 7591TIP3    H144188   4.960   2.134   4.941  0.5248 -3.1393 -1.2589
 7591TIP3    H244189   4.883   2.032   5.022 -3.5885  2.0611  1.7064
 7592TIP3   OH244190   1.179   2.686   1.155 -0.1152 -0.4456 -0.3609
 7592TIP3    H144191   1.151   2.691   1.064  2.0806 -1.1559 -1.0911
 7592TIP3    H244192   1.271   2.661   1.151  0.5767  1.5146  1.9990
 7593TIP3   OH244193   5.830   2.884   4.672 -0.3305  0.1857  0.3374
 7593TIP3    H144194   5.771   2.865   4.599  0.2268 -0.0943 -0.0436
 7593TIP3    H244195   5.780   2.859   4.750 -0.0801 -1.7505 -0.0762
 7594TIP3   OH244196   3.544   4.214  14.229 -0.0374  0.2039  0.0140
 7594TIP3    H144197   3.466   4.236  14.179  0.0247  0.9784  0.2427
 7594TIP3    H244198   3.598   4.162  14.169  0.4172  1.8414 -1.0282
 7595TIP3   OH244199   5.127   3.332   2.377 -0.0160 -0.1891  0.0199
 7595TIP3    H144200   5.155   3.281   2.300  1.7223  0.1538  0.4059
 7595TIP3    H244201   5.037   3.357   2.357  0.4146 -0.0771 -1.9341
 7596TIP3   OH244202   2.261   6.765  13.367 -0.4054 -0.5522  0.2224
 7596TIP3    H144203   2.195   6.764  13.436  0.4478 -1.6255  1.0424
 7596TIP3    H244204   2.229   6.702  13.302 -0.3001 -0.9231  0.5249
 7597TIP3   OH244205   4.258   6.506  16.760  0.1784  0.1818  0.1095
 7597TIP3    H144206   4.170   6.537  16.782  0.4046 -0.0705  1.4012
 7597TIP3    H244207   4.308   6.585  16.745 -0.2226  0.3335 -0.4351
 7598TIP3   OH244208   6.250   2.718   0.041 -0.1951 -0.1846 -0.0446
 7598TIP3    H144209   6.174   2.777   0.040  1.0364  1.4320 -0.6013
 7598TIP3    H244210   6.243   2.672   0.124 -1.3519  0.5244  0.2724
 7599TIP3   OH244211   2.490   0.718   0.742 -0.0602  0.5189 -0.1093
 7599TIP3    H144212   2.524   0.739   0.829 -0.9673 -0.1734  0.4270
 7599TIP3    H244213   2.440   0.637   0.755 -1.4719  1.2316 -0.9526
 7600TIP3   OH244214   1.943   4.389  14.932 -0.5655  0.2909  0.0231
 7600TIP3    H144215   1.887   4.345  14.868  0.4483  0.9535 -1.3438
 7600TIP3    H244216   1.884   4.446  14.981 -1.1528  0.7718 -1.2166
 7601TIP3   OH244217   0.405   4.587   6.310 -0.1306  0.5024 -0.1570
 7601TIP3    H144218   0.447   4.634   6.237 -0.5712 -0.1669 -0.8487
 7601TIP3    H244219   0.318   4.566   6.277  0.4115 -1.7082 -0.2456
 7602TIP3   OH244220   1.911   3.372   0.144  0.0689  0.1366 -0.4216
 7602TIP3    H144221   1.916   3.451   0.198  0.0376  0.5032 -0.9561
 7602TIP3    H244222   1.838   3.322   0.181  1.3935 -0.6318  1.2393
 7603TIP3   OH244223   3.674   5.731   4.826  0.4967 -0.4426  0.1213
 7603TIP3    H144224   3.588   5.721   4.786  0.2498 -0.5460  0.6645
 7603TIP3    H244225   3.731   5.672   4.776  0.4183  0.1818 -0.7109
 7604TIP3   OH244226   2.601   1.013   2.691 -0.6511 -0.0099  0.4985
 7604TIP3    H144227   2.606   0.923   2.660 -0.2117  0.3310 -0.4305
 7604TIP3    H244228   2.510   1.039   2.675 -0.8551 -0.3699  1.0303
 7605TIP3   OH244229   3.436   0.665   2.239  0.2855  0.0014 -0.1638
 7605TIP3    H144230   3.499   0.721   2.284  0.1587 -0.3877  0.5120
 7605TIP3    H244231   3.485   0.624   2.169  0.8043 -0.3748  0.4219
 7606TIP3   OH244232   2.971   0.126  16.264 -0.2144 -0.2952  0.5005
 7606TIP3    H144233   3.004   0.211  16.291  0.9818 -0.7891  0.6247
 7606TIP3    H244234   2.905   0.104  16.329 -1.1289  0.9167 -0.0053
 7607TIP3   OH244235   6.221   5.465   2.187  0.0390 -0.1458  0.2915
 7607TIP3    H144236   6.213   5.504   2.101  1.1228 -1.2215 -0.3136
 7607TIP3    H244237   6.136   5.480   2.229 -1.5083 -2.0647 -2.0079
 7608TIP3   OH244238   3.824   6.444   1.220 -0.3635  0.0688  0.0520
 7608TIP3    H144239   3.846   6.385   1.148 -0.4855 -0.0113  0.0806
 7608TIP3    H244240   3.908   6.461   1.264  0.0852  1.8735 -1.4257
 7609TIP3   OH244241   0.868   2.927  13.302  0.2419  0.6075 -0.0084
 7609TIP3    H144242   0.822   2.857  13.256 -2.0170  1.2198  1.2823
 7609TIP3    H244243   0.959   2.917  13.274 -0.3660 -1.6373 -1.3368
 7610TIP3   OH244244   2.693   4.643   1.759  0.1136  0.1480 -0.5677
 7610TIP3    H144245   2.755   4.689   1.817  0.6470 -1.0894 -0.1277
 7610TIP3    H244246   2.723   4.552   1.760 -1.5832 -0.4261 -0.5396
 7611TIP3   OH244247   5.983   5.395   0.768  0.5475  0.3485  0.0830
 7611TIP3    H144248   5.888   5.391   0.760  0.5346  0.7423  0.0517
 7611TIP3    H244249   6.012   5.304   0.754 -0.0116 -0.2502  2.6211
 7612TIP3   OH244250   2.243   1.952   5.298  0.0530  0.2584  0.6949
 7612TIP3    H144251   2.326   1.978   5.338  0.3406 -0.7581  0.7788
 7612TIP3    H244252   2.268   1.920   5.211 -0.4216  1.2792  0.1741
 7613TIP3   OH244253   1.347   6.618  11.043 -0.6703  0.1697  0.0274
 7613TIP3    H144254   1.283   6.549  11.026 -1.1498  0.3668  1.0120
 7613TIP3    H244255   1.338   6.678  10.969  0.0019 -1.0069 -1.0212
 7614TIP3   OH244256   3.857   2.309  14.564 -0.3846  0.5117 -0.2235
 7614TIP3    H144257   3.801   2.338  14.492  0.8001 -0.5237 -1.5915
 7614TIP3    H244258   3.804   2.247  14.613 -1.6619  2.1967  0.5952
 7615TIP3   OH244259   1.376   3.302   3.987 -0.4263 -0.6229  0.3606
 7615TIP3    H144260   1.301   3.362   3.989 -0.1638 -0.2901  0.1440
 7615TIP3    H244261   1.371   3.254   4.070 -0.1434  0.2848  0.9034
 7616TIP3   OH244262   1.700   4.244   4.587 -0.1979 -0.1860 -0.7417
 7616TIP3    H144263   1.649   4.323   4.602 -0.0837 -0.2840  0.1631
 7616TIP3    H244264   1.654   4.175   4.635  0.7685 -0.2718  0.0931
 7617TIP3   OH244265   5.158   0.945   1.292  0.1838 -0.7155 -0.1906
 7617TIP3    H144266   5.067   0.977   1.292  1.0932  2.0842  1.8174
 7617TIP3    H244267   5.152   0.857   1.328 -1.6587 -0.2755  0.6614
 7618TIP3   OH244268   0.434   4.047  11.402 -0.3320 -1.0097 -0.2540
 7618TIP3    H144269   0.480   3.980  11.352 -0.5183 -2.6096  1.6143
 7618TIP3    H244270   0.501   4.110  11.426  0.3793 -1.9152  0.1673
 7619TIP3   OH244271   3.867   1.448   0.452  0.7240 -0.3349 -0.0788
 7619TIP3    H144272   3.926   1.443   0.377  0.1894 -0.1907 -0.5148
 7619TIP3    H244273   3.874   1.363   0.494  1.3780 -0.2585 -0.0205
 7620TIP3   OH244274   5.105   0.875   2.503  0.2220 -0.2982 -0.1724
 7620TIP3    H144275   5.086   0.953   2.451 -0.3357 -0.5740 -0.3882
 7620TIP3    H244276   5.024   0.824   2.501 -0.4718  0.6485  2.6696
 7621TIP3   OH244277   0.126   6.442  15.804 -0.6128  0.1256 -0.3644
 7621TIP3    H144278   0.106   6.515  15.745  0.0452 -0.8843 -1.8602
 7621TIP3    H244279   0.049   6.386  15.799 -1.0832  0.6643  0.7222
 7622TIP3   OH244280   6.334   6.545   4.040 -0.0818  0.3879 -0.4780
 7622TIP3    H144281   6.353   6.470   3.984 -0.0610 -0.5715  0.7947
 7622TIP3    H244282   6.239   6.543   4.052  0.1964 -1.0378  1.7351
 7623TIP3   OH244283   3.183   2.664  15.052 -0.1250  0.5184  0.6206
 7623TIP3    H144284   3.252   2.706  15.002 -0.5750 -0.8112 -1.1692
 7623TIP3    H244285   3.171   2.579  15.009 -2.0217  0.2385  1.6575
 7624TIP3   OH244286   5.863   0.411  14.922  0.1274 -0.1538 -0.0560
 7624TIP3    H144287   5.882   0.494  14.965 -1.1426  0.5870 -0.8892
 7624TIP3    H244288   5.930   0.351  14.955  0.3222  0.8776  1.4890
 7625TIP3   OH244289   6.422   1.006   3.572 -0.5624  0.0620  0.4285
 7625TIP3    H144290   6.348   1.005   3.633  0.1545  0.0649  1.2984
 7625TIP3    H244291   6.381   1.003   3.485 -1.6185  0.9266  0.8765
 7626TIP3   OH244292   2.539   2.235   0.599 -0.4768  0.1404  0.2003
 7626TIP3    H144293   2.605   2.237   0.530 -0.7581 -0.3199 -0.0831
 7626TIP3    H244294   2.554   2.315   0.650  1.5879 -0.9170  1.3242
 7627TIP3   OH244295   5.290   4.384   2.146 -0.4430  0.1784  0.0366
 7627TIP3    H144296   5.302   4.461   2.092 -0.2590 -0.0668 -0.2705
 7627TIP3    H244297   5.337   4.314   2.101  1.0009  0.3158  1.2907
 7628TIP3   OH244298   0.313   5.811   1.746  0.3971  0.3394 -0.3051
 7628TIP3    H144299   0.334   5.734   1.693 -0.3877  1.2293 -1.9431
 7628TIP3    H244300   0.246   5.858   1.695  1.9084  2.8655 -0.0801
 7629TIP3   OH244301   4.387   0.783  13.661 -0.0977 -0.0442 -0.4283
 7629TIP3    H144302   4.337   0.799  13.741  0.5541 -1.0911  0.1987
 7629TIP3    H244303   4.472   0.824  13.676 -0.5122  1.1251 -1.2170
 7630TIP3   OH244304   6.751   5.808  12.357  0.0200 -0.5753 -0.0964
 7630TIP3    H144305   6.678   5.817  12.296  1.6978  1.5726 -1.8825
 7630TIP3    H244306   6.761   5.895  12.396  0.4282 -1.3460  1.6039
 7631TIP3   OH244307   5.670   4.616  13.308 -0.0115  0.1266  0.7710
 7631TIP3    H144308   5.670   4.599  13.214  1.4501 -0.5461  0.8811
 7631TIP3    H244309   5.578   4.630  13.330 -0.3636  0.3044 -0.7554
 7632TIP3   OH244310   2.786   2.045  17.177 -0.4649  0.0095 -0.5866
 7632TIP3    H144311   2.763   2.092  17.097  0.2277  2.9735  0.9105
 7632TIP3    H244312   2.786   1.953  17.151  0.1495  0.9387 -4.0840
 7633TIP3   OH244313   6.113   3.276   4.832  0.3011 -0.1434  0.7465
 7633TIP3    H144314   6.191   3.297   4.883 -0.0958  0.0135  1.2927
 7633TIP3    H244315   6.105   3.347   4.768 -0.7194  1.0997  2.2208
 7634TIP3   OH244316   3.499   0.961  14.805 -0.1385  0.1497  0.0512
 7634TIP3    H144317   3.442   0.945  14.730 -0.0948  0.1842  0.0099
 7634TIP3    H244318   3.474   1.048  14.836  0.2792  0.4001 -0.3137
 7635TIP3   OH244319   4.354   2.224   1.986  0.1160  0.9387 -0.4129
 7635TIP3    H144320   4.340   2.182   1.902 -1.7426  2.4490 -0.8967
 7635TIP3    H244321   4.353   2.153   2.050 -1.5628  0.0891 -1.3530
 7636TIP3   OH244322   0.215   2.646   2.460 -0.1758  0.2867 -0.5272
 7636TIP3    H144323   0.294   2.598   2.482 -0.9158  0.4968  2.7457
 7636TIP3    H244324   0.246   2.719   2.405  1.7094 -0.4292 -0.4511
 7637TIP3   OH244325   5.001   5.772   6.118  0.1667  0.0600  0.1243
 7637TIP3    H144326   4.911   5.759   6.146 -0.0776  0.0753 -0.6285
 7637TIP3    H244327   5.051   5.704   6.163  0.0575  1.0874  1.8452
 7638TIP3   OH244328   6.740   4.882   4.161 -0.3351  0.0492  0.2077
 7638TIP3    H144329   6.824   4.880   4.206 -0.1803 -2.8034 -0.1356
 7638TIP3    H244330   6.740   4.965   4.114  2.6935 -0.3002 -0.5125
 7639TIP3   OH244331   6.321   5.441   1.210  0.1493  0.1160  0.4880
 7639TIP3    H144332   6.234   5.480   1.209 -0.5484 -1.4467  0.0282
 7639TIP3    H244333   6.351   5.443   1.119  0.1381 -0.3527  0.4706
 7640TIP3   OH244334   1.797   3.993  12.528 -0.2948  0.2308 -0.7592
 7640TIP3    H144335   1.761   3.946  12.604  0.0735  2.1492  0.6516
 7640TIP3    H244336   1.720   4.026  12.482 -0.4637  0.8532 -0.0355
 7641TIP3   OH244337   2.976   5.077  10.980  0.2676 -0.1610 -0.4356
 7641TIP3    H144338   3.071   5.087  10.974  0.4119 -1.5968 -0.8240
 7641TIP3    H244339   2.945   5.089  10.890  0.3869 -2.4237 -0.8063
 7642TIP3   OH244340   3.140   4.029   1.283 -0.0308  0.2833 -0.2818
 7642TIP3    H144341   3.051   4.017   1.317  0.9375 -3.0607  1.3135
 7642TIP3    H244342   3.135   4.002   1.191 -0.5259 -0.5177 -0.0196
 7643TIP3   OH244343   4.039   4.496  12.248  0.3284 -0.3012  0.1164
 7643TIP3    H144344   4.000   4.462  12.167  0.0564 -0.8697  0.4832
 7643TIP3    H244345   4.123   4.451  12.256  1.2248  1.1564 -0.8370
 7644TIP3   OH244346   0.470   3.394   4.040  0.2173 -0.2626  0.0412
 7644TIP3    H144347   0.381   3.386   4.007  0.2572 -0.1048 -0.1068
 7644TIP3    H244348   0.481   3.319   4.097 -0.0925 -0.1557  0.2448
 7645TIP3   OH244349   5.118   5.574  14.321  0.0106 -0.0985  0.0686
 7645TIP3    H144350   5.029   5.593  14.292 -0.5802 -1.8260  0.6992
 7645TIP3    H244351   5.168   5.653  14.297 -1.5762  0.7135 -0.6757
 7646TIP3   OH244352   2.159   3.998  12.053  0.0230 -0.1006 -0.1065
 7646TIP3    H144353   2.241   3.958  12.024  1.9566  3.5628  0.1207
 7646TIP3    H244354   2.113   4.019  11.971  0.9980  1.1704 -0.3464
 7647TIP3   OH244355   0.855   4.644  11.033 -0.8926 -0.2960 -0.2402
 7647TIP3    H144356   0.917   4.573  11.048  1.0865  1.6671  1.1999
 7647TIP3    H244357   0.773   4.612  11.072  0.0538 -1.6434  0.6953
 7648TIP3   OH244358   6.118   5.359  16.198 -0.1313  0.0228 -0.4482
 7648TIP3    H144359   6.199   5.393  16.161  0.6860  0.1094  1.3707
 7648TIP3    H244360   6.137   5.267  16.216 -0.1668  0.2223  0.6676
 7649TIP3   OH244361   1.791   2.053   4.751 -0.4623 -0.0295  0.0267
 7649TIP3    H144362   1.834   2.117   4.694 -0.9874 -0.2009 -0.5686
 7649TIP3    H244363   1.823   2.073   4.838 -0.1727  0.6720 -0.2405
 7650TIP3   OH244364   3.922   5.603  17.080 -0.1344  0.2146 -0.2709
 7650TIP3    H144365   3.831   5.584  17.103  0.0996 -0.1432  0.3556
 7650TIP3    H244366   3.970   5.523  17.104  0.4226  0.5843 -0.1582
 7651TIP3   OH244367   4.702   3.818   4.189 -0.1947 -0.2068 -0.5654
 7651TIP3    H144368   4.716   3.762   4.113  0.0007 -0.1007 -0.6075
 7651TIP3    H244369   4.743   3.772   4.261 -0.1471 -0.1797 -0.5751
 7652TIP3   OH244370   5.737   0.489  15.410 -0.2859 -0.3984 -0.4023
 7652TIP3    H144371   5.795   0.563  15.425 -0.9758  0.6399 -2.6435
 7652TIP3    H244372   5.785   0.413  15.442  0.7819  0.8832  1.1258
 7653TIP3   OH244373   6.376   0.449   5.410 -0.2842  0.1040  0.1366
 7653TIP3    H144374   6.425   0.383   5.458  0.3531  0.7180  0.3506
 7653TIP3    H244375   6.292   0.455   5.455 -1.9936 -3.5109 -2.3711
 7654TIP3   OH244376   5.113   3.981  12.243  0.5663 -0.0027 -0.0731
 7654TIP3    H144377   5.068   3.956  12.162  0.7166 -1.2471  0.2266
 7654TIP3    H244378   5.155   3.901  12.273  1.4516  0.7189  0.6427
 7655TIP3   OH244379   2.571   0.009   1.874 -0.3001 -0.0487 -0.5568
 7655TIP3    H144380   2.553  -0.084   1.859  0.4648 -0.6277  1.9391
 7655TIP3    H244381   2.647   0.010   1.932 -0.6133  2.1264 -0.1470
 7656TIP3   OH244382   6.711   6.370   4.696 -0.3917 -0.1066  0.0613
 7656TIP3    H144383   6.625   6.347   4.661 -0.5205  0.4229  0.0386
 7656TIP3    H244384   6.696   6.387   4.789 -0.1044 -1.1774  0.3127
 7657TIP3   OH244385   2.410   3.016  12.510 -0.3296  0.0550 -0.5511
 7657TIP3    H144386   2.379   2.986  12.596  2.2699 -1.5768 -0.1230
 7657TIP3    H244387   2.415   2.936  12.457  1.3951  0.5496 -1.1485
 7658TIP3   OH244388   3.747   0.638   5.844 -0.2027  0.3106  0.0202
 7658TIP3    H144389   3.821   0.621   5.902  0.0189 -1.2843 -0.7021
 7658TIP3    H244390   3.787   0.666   5.761 -0.5267  2.9505  0.7223
 7659TIP3   OH244391   1.307   2.857   0.810  0.2093  0.0221  0.5884
 7659TIP3    H144392   1.242   2.838   0.742  1.1075 -0.1041 -0.2468
 7659TIP3    H244393   1.333   2.948   0.795  1.1917 -0.3311  0.0848
 7660TIP3   OH244394   4.886   2.235   3.444 -0.1748  0.0582  0.1272
 7660TIP3    H144395   4.858   2.316   3.488 -0.3541 -0.0361  0.1871
 7660TIP3    H244396   4.931   2.266   3.365  1.0200  0.2471  0.8799
 7661TIP3   OH244397   5.037   3.640   1.789 -0.1938 -0.3489  0.7443
 7661TIP3    H144398   5.077   3.721   1.819 -4.0500  1.9983 -0.0288
 7661TIP3    H244399   4.974   3.617   1.858 -0.0391 -1.9630  0.3624
 7662TIP3   OH244400   1.553   4.520   4.382  0.9652 -0.2532 -0.2366
 7662TIP3    H144401   1.458   4.511   4.379  0.7217  2.0944 -1.0779
 7662TIP3    H244402   1.583   4.492   4.296  0.8561  0.6030 -0.5588
 7663TIP3   OH244403   4.009   1.979  13.336 -0.5182 -0.1736 -0.3539
 7663TIP3    H144404   4.094   1.984  13.293  0.2759  0.5995  1.2615
 7663TIP3    H244405   3.991   1.885  13.343  1.4885 -0.4648  1.7039
 7664TIP3   OH244406   1.067   0.179  10.294 -0.1638  0.8018  0.0090
 7664TIP3    H144407   1.051   0.125  10.372 -0.4401  1.0356  0.1158
 7664TIP3    H244408   1.149   0.146  10.259  0.0800  0.8468  0.5302
 7665TIP3   OH244409   5.788   1.879   5.840 -0.0343 -0.3374  0.2283
 7665TIP3    H144410   5.722   1.948   5.840  0.9233  0.5894  0.4203
 7665TIP3    H244411   5.821   1.877   5.751  1.4181  0.8938  0.7285
 7666TIP3   OH244412   4.777   0.958  11.822 -0.3157  0.2736  0.1071
 7666TIP3    H144413   4.780   0.863  11.813 -0.3059  0.4128 -1.4801
 7666TIP3    H244414   4.699   0.984  11.774 -0.5263  1.0432  0.8551
 7667TIP3   OH244415   0.874   3.761  11.632  0.4499  0.3276  0.5709
 7667TIP3    H144416   0.839   3.834  11.682 -3.5879  0.3003 -1.9972
 7667TIP3    H244417   0.961   3.790  11.605  0.2514  2.7770  2.3694
 7668TIP3   OH244418   4.427   0.245   2.036 -0.3306  0.2127 -0.1081
 7668TIP3    H144419   4.477   0.326   2.044 -0.0014  0.1477 -1.3952
 7668TIP3    H244420   4.336   0.275   2.026 -0.0966  0.4808 -1.6101
 7669TIP3   OH244421   2.583   4.756   5.732 -0.4105 -0.2927 -0.0579
 7669TIP3    H144422   2.621   4.669   5.742 -2.5552 -1.1348  1.0354
 7669TIP3    H244423   2.490   4.740   5.718 -0.5089  1.7453 -1.9924
 7670TIP3   OH244424   3.038   2.878   5.207 -0.5795  0.1573 -0.3411
 7670TIP3    H144425   3.006   2.958   5.248  0.0452 -0.7272  1.9506
 7670TIP3    H244426   3.119   2.904   5.164  0.0093  0.6107  1.0298
 7671TIP3   OH244427   2.155   1.576   5.915  0.1713 -0.0641  0.0143
 7671TIP3    H144428   2.188   1.580   6.004 -1.8816 -1.0429  0.8626
 7671TIP3    H244429   2.066   1.539   5.924 -0.9107  1.8778 -2.1953
 7672TIP3   OH244430   5.517   3.698  14.500  0.2220  0.2526  0.4204
 7672TIP3    H144431   5.498   3.607  14.476 -0.7240  0.3133  0.9150
 7672TIP3    H244432   5.511   3.699  14.595  1.7907  0.4914  0.5279
 7673TIP3   OH244433   2.290   4.773  12.469  0.2653 -0.2548  0.1028
 7673TIP3    H144434   2.300   4.848  12.528  2.3313 -1.6516  1.6123
 7673TIP3    H244435   2.219   4.722  12.508  0.4646 -0.2910  0.4224
 7674TIP3   OH244436   5.033   3.549  15.937 -0.2799 -0.2849  0.5130
 7674TIP3    H144437   5.002   3.564  15.848 -0.5941  1.0700  0.8402
 7674TIP3    H244438   4.960   3.506  15.981  0.1446 -1.6274 -0.0745
 7675TIP3   OH244439   6.774   6.678  15.731  0.2400 -0.0088 -0.5649
 7675TIP3    H144440   6.741   6.747  15.789 -1.6746 -0.6575 -0.8547
 7675TIP3    H244441   6.822   6.725  15.663  1.2538  0.8507  0.7301
 7676TIP3   OH244442   4.849   6.428   2.701 -0.3107 -0.2501 -0.1200
 7676TIP3    H144443   4.874   6.419   2.793 -0.8493  3.2659  0.4422
 7676TIP3    H244444   4.753   6.436   2.704 -0.5928 -2.6554 -1.2775
 7677TIP3   OH244445   4.027   4.191   3.788 -0.1743 -0.4608  0.3660
 7677TIP3    H144446   4.011   4.192   3.882 -0.8741 -1.4376  0.2711
 7677TIP3    H244447   4.091   4.260   3.773 -1.1504  0.6728  1.3589
 7678TIP3   OH244448   3.048   5.211  13.451 -0.6728  0.0646  0.2869
 7678TIP3    H144449   3.008   5.272  13.514 -1.9659 -2.0946  1.6306
 7678TIP3    H244450   3.022   5.124  13.482 -0.0959 -1.1296 -2.4026
 7679TIP3   OH244451   4.263   1.279  13.601 -0.2929 -0.8100 -0.2562
 7679TIP3    H144452   4.221   1.192  13.600 -0.1039 -0.8915 -1.2262
 7679TIP3    H244453   4.304   1.287  13.515  2.1475 -0.9538  0.8610
 7680TIP3   OH244454   3.855   5.927  13.646  0.6967  0.4332 -0.3935
 7680TIP3    H144455   3.899   6.006  13.678  1.2448  0.5177 -1.3448
 7680TIP3    H244456   3.811   5.954  13.566 -0.3227  0.1170  0.0623
 7681TIP3   OH244457   0.715   4.696  10.282 -0.2441  0.7236  0.1504
 7681TIP3    H144458   0.785   4.635  10.262 -0.4197  0.4934  0.2304
 7681TIP3    H244459   0.677   4.663  10.364 -1.5672 -0.1555 -0.8082
 7682TIP3   OH244460   3.426   3.603  12.791  0.3633  0.6432  0.0396
 7682TIP3    H144461   3.381   3.552  12.858  1.2861  0.9456  0.9136
 7682TIP3    H244462   3.356   3.635  12.734 -0.6750  1.9878  1.9762
 7683TIP3   OH244463   3.404   2.746   3.705 -0.3239 -0.4874 -0.4517
 7683TIP3    H144464   3.413   2.841   3.695 -4.8624  0.0976  0.0866
 7683TIP3    H244465   3.400   2.712   3.616  1.4340 -0.2197 -0.6437
 7684TIP3   OH244466   0.675   6.307   0.666  0.3579 -0.5922  0.0397
 7684TIP3    H144467   0.688   6.219   0.630 -0.1082 -0.4642 -0.4498
 7684TIP3    H244468   0.707   6.301   0.756  0.2341 -1.2903  0.0397
 7685TIP3   OH244469   0.692   1.161  13.678  0.2997  0.3184 -0.2177
 7685TIP3    H144470   0.648   1.102  13.739 -0.1513 -1.6315 -2.3347
 7685TIP3    H244471   0.782   1.165  13.709  0.5548 -2.2289 -0.4988
 7686TIP3   OH244472   3.967   6.078  17.233  0.1576  0.2739 -0.2978
 7686TIP3    H144473   3.985   6.109  17.144 -0.8521  1.1197 -0.2129
 7686TIP3    H244474   3.930   6.154  17.278  0.1446 -0.3087  0.6862
 7687TIP3   OH244475   2.083   3.097   1.712  0.3545 -0.4947  0.2955
 7687TIP3    H144476   2.069   3.144   1.794  2.4229 -0.1853  0.5024
 7687TIP3    H244477   2.088   3.005   1.737 -0.0880 -0.4973  0.3730
 7688TIP3   OH244478   6.638   4.621   4.851 -0.0138  0.2974  0.0394
 7688TIP3    H144479   6.614   4.636   4.759  1.9098  0.7441 -0.4215
 7688TIP3    H244480   6.580   4.551   4.880 -3.0221  2.4502 -0.4707
 7689TIP3   OH244481   3.873   1.117   3.954 -0.2836  0.2028  0.5483
 7689TIP3    H144482   3.810   1.184   3.979 -0.4634 -0.6246  2.4156
 7689TIP3    H244483   3.823   1.036   3.953  0.2566 -0.1220 -0.2094
 7690TIP3   OH244484   3.966   0.937  11.245 -0.0075  0.0238  0.1166
 7690TIP3    H144485   4.007   0.942  11.158  1.2322  0.5181  0.7232
 7690TIP3    H244486   3.943   1.028  11.266 -0.9180 -0.1775  0.0340
 7691TIP3   OH244487   1.446   2.249  12.094 -0.3418  0.1221  0.0939
 7691TIP3    H144488   1.489   2.325  12.133 -0.0019  0.0711 -0.1835
 7691TIP3    H244489   1.459   2.259  12.000 -0.4886 -0.1622  0.0423
 7692TIP3   OH244490   3.224   6.541  16.243  0.0306 -0.1609 -0.4965
 7692TIP3    H144491   3.233   6.446  16.251 -0.9372 -0.2033  0.1628
 7692TIP3    H244492   3.131   6.555  16.228  0.2565  0.6494 -1.1688
 7693TIP3   OH244493   6.214   1.119   2.426  0.1804 -0.3811 -0.3666
 7693TIP3    H144494   6.305   1.121   2.455  0.2062 -0.1603 -0.4604
 7693TIP3    H244495   6.188   1.027   2.435  0.2357 -0.3464  0.2048
 7694TIP3   OH244496   2.991   3.655   1.996 -0.2776 -0.5102  0.8011
 7694TIP3    H144497   2.934   3.590   2.038 -1.2617  0.5676  1.1524
 7694TIP3    H244498   3.078   3.638   2.032 -0.1950 -2.7206 -0.3736
 7695TIP3   OH244499   3.613   5.954  17.092 -0.3849  0.2031  0.8516
 7695TIP3    H144500   3.635   6.045  17.112 -2.0635  0.1109  3.3241
 7695TIP3    H244501   3.530   5.939  17.137 -1.2781 -1.9084 -1.3682
 7696TIP3   OH244502   4.363   0.543   5.610 -0.2702 -0.1244 -0.0937
 7696TIP3    H144503   4.299   0.472   5.608 -0.1859 -0.2028 -0.0065
 7696TIP3    H244504   4.326   0.608   5.670 -1.0195  0.5382 -1.2619
 7697TIP3   OH244505   5.684   6.476   1.156  0.1797 -0.7393 -0.6442
 7697TIP3    H144506   5.735   6.469   1.076 -1.5718 -0.1296 -1.8562
 7697TIP3    H244507   5.618   6.407   1.149 -0.6813  0.0368 -0.2614
 7698TIP3   OH244508   2.309   5.760  16.272 -0.2809 -0.1368  0.0874
 7698TIP3    H144509   2.311   5.848  16.308  1.0673 -0.0622 -0.1257
 7698TIP3    H244510   2.360   5.766  16.192 -1.6359 -0.7370 -0.8278
 7699TIP3   OH244511   4.878   1.220  14.136  0.1930  0.1686  0.3036
 7699TIP3    H144512   4.885   1.301  14.186 -0.9405  0.4006  0.1146
 7699TIP3    H244513   4.933   1.157  14.183  0.7947  0.9480  0.6506
 7700TIP3   OH244514   0.482   0.398  12.029  0.0854  0.3857  0.0592
 7700TIP3    H144515   0.520   0.318  11.991 -0.2899  0.1769  0.1201
 7700TIP3    H244516   0.392   0.373  12.051  0.3518  0.4508  1.2465
 7701TIP3   OH244517   1.707   6.236   0.543 -0.2277 -0.3474  0.0654
 7701TIP3    H144518   1.614   6.242   0.523 -0.1228  1.3319  0.0502
 7701TIP3    H244519   1.714   6.254   0.637  0.0042 -1.2469  0.2259
 7702TIP3   OH244520   6.239   3.941   4.100 -0.4029  0.7269 -0.5645
 7702TIP3    H144521   6.324   3.979   4.121  0.3195 -0.2118 -1.6796
 7702TIP3    H244522   6.204   3.910   4.183  0.6598  0.5137 -0.1926
 7703TIP3   OH244523   0.258   4.222   5.170 -0.0276  0.5375  0.1909
 7703TIP3    H144524   0.179   4.275   5.184  0.9398  2.3156 -0.7839
 7703TIP3    H244525   0.281   4.239   5.079 -0.0400 -2.1200 -0.3213
 7704TIP3   OH244526   1.186   6.686   3.416 -0.2936  0.0742  0.2364
 7704TIP3    H144527   1.103   6.686   3.463  0.8310  0.9328  2.2644
 7704TIP3    H244528   1.190   6.773   3.375 -0.5048 -0.0650 -0.0829
 7705TIP3   OH244529   4.756   1.289   2.981 -0.4393  0.5633 -0.2519
 7705TIP3    H144530   4.833   1.236   2.963  0.3251  1.5901 -0.0287
 7705TIP3    H244531   4.789   1.364   3.030 -1.6923  0.6243  0.5233
 7706TIP3   OH244532   4.527   3.079   4.312 -0.3457  0.5371  0.0540
 7706TIP3    H144533   4.582   3.157   4.319  0.8057 -0.3849  1.4523
 7706TIP3    H244534   4.449   3.101   4.363  0.1452  0.6470  0.7667
 7707TIP3   OH244535   3.059   0.963   4.417  0.4706 -0.6578  0.6182
 7707TIP3    H144536   2.974   0.997   4.387 -0.3959 -2.3729  1.0959
 7707TIP3    H244537   3.038   0.906   4.490  2.2918  0.9144  2.4368
 7708TIP3   OH244538   5.319   6.656  13.886  1.1343  0.0089 -0.2824
 7708TIP3    H144539   5.312   6.745  13.852  1.3654  1.0545  2.3374
 7708TIP3    H244540   5.237   6.615  13.862  0.1659  1.5756  0.2780
 7709TIP3   OH244541   3.025   3.771   0.584 -0.3840 -0.1990 -0.1337
 7709TIP3    H144542   3.069   3.818   0.513 -0.1361 -0.5495 -0.2141
 7709TIP3    H244543   3.014   3.836   0.653 -0.5596  0.1255 -0.4669
 7710TIP3   OH244544   0.677   6.632   4.577  0.2506  0.3552 -0.4199
 7710TIP3    H144545   0.612   6.702   4.584 -0.6412 -0.4508 -0.4324
 7710TIP3    H244546   0.755   6.674   4.541 -0.8652  0.9618 -2.1911
 7711TIP3   OH244547   3.786   1.857  12.137  0.1054 -0.0027  0.0223
 7711TIP3    H144548   3.714   1.799  12.161 -1.5000  1.4838 -1.1090
 7711TIP3    H244549   3.807   1.905  12.218 -1.1850  0.6317 -0.0176
 7712TIP3   OH244550   1.807   6.777   0.009  0.4558  0.5143 -0.5122
 7712TIP3    H144551   1.776   6.737   0.091  1.8054 -1.6407 -1.0176
 7712TIP3    H244552   1.804   6.871   0.026  1.8874  0.0796  2.5027
 7713TIP3   OH244553   4.310   1.290   2.004 -0.1138 -0.8752  0.1877
 7713TIP3    H144554   4.278   1.210   2.046 -0.3422 -0.2282  1.2794
 7713TIP3    H244555   4.254   1.359   2.040 -0.1136 -0.2682 -0.9713
 7714TIP3   OH244556   3.144   0.749   1.623 -0.2961 -0.2149 -0.4328
 7714TIP3    H144557   3.139   0.844   1.635 -2.0924 -0.3448 -0.0464
 7714TIP3    H244558   3.151   0.714   1.712 -1.5222 -0.5439 -0.4655
 7715TIP3   OH244559   2.118   4.020  15.036  0.4747  0.1899  0.1517
 7715TIP3    H144560   2.034   4.047  14.998  0.5489 -0.0907 -0.2208
 7715TIP3    H244561   2.154   3.959  14.972  0.8157  0.0627  0.4650
 7716TIP3   OH244562   4.032   4.614  11.498  0.4067  0.0244  0.0328
 7716TIP3    H144563   3.991   4.530  11.518  1.5063 -0.7947 -1.0931
 7716TIP3    H244564   3.959   4.675  11.491 -0.3213 -0.5179  2.2700
 7717TIP3   OH244565   6.579   3.508  11.496 -0.2974 -0.0498 -0.0039
 7717TIP3    H144566   6.597   3.568  11.568 -1.1409  0.4697 -0.2273
 7717TIP3    H244567   6.524   3.557  11.436  1.9021  0.1410 -1.9233
 7718TIP3   OH244568   6.047   3.266  16.371  0.5183  0.0026  0.6330
 7718TIP3    H144569   6.038   3.171  16.368 -2.0492  0.2412 -0.2256
 7718TIP3    H244570   6.098   3.288  16.293 -0.5912 -0.5312 -0.2668
 7719TIP3   OH244571   1.936   6.536   0.154 -0.1246 -0.0155  0.3508
 7719TIP3    H144572   1.916   6.492   0.071  1.8385  0.9958 -0.6897
 7719TIP3    H244573   1.923   6.629   0.134 -1.7974  0.1012  1.8299
 7720TIP3   OH244574   1.167   1.872  15.292 -0.5856 -0.2192  0.5079
 7720TIP3    H144575   1.095   1.835  15.344  0.2675 -1.6242  0.7349
 7720TIP3    H244576   1.240   1.876  15.354 -0.3686  0.8247  0.1756
 7721TIP3   OH244577   3.298   6.130  16.468 -0.1919 -0.0243 -0.3410
 7721TIP3    H144578   3.244   6.052  16.477  0.1331 -0.2714 -0.5317
 7721TIP3    H244579   3.274   6.185  16.542  0.8339 -1.0599  0.7660
 7722TIP3   OH244580   1.023   0.193  13.752 -0.2929 -0.1397  0.1926
 7722TIP3    H144581   0.997   0.178  13.661  0.2458 -3.3197  0.5011
 7722TIP3    H244582   1.118   0.203  13.748 -0.4285  1.2156  0.2473
 7723TIP3   OH244583   2.948   0.835   3.406  0.0416 -0.2243  0.2607
 7723TIP3    H144584   2.985   0.809   3.490 -1.7662  0.2006  1.2050
 7723TIP3    H244585   2.998   0.912   3.380  1.2458 -0.9238  0.4780
 7724TIP3   OH244586   6.701   0.152  14.905 -0.5949 -0.2704  0.4395
 7724TIP3    H144587   6.607   0.162  14.915 -0.5108 -0.4584  1.5138
 7724TIP3    H244588   6.737   0.235  14.938 -0.3562 -0.3920  0.4820
 7725TIP3   OH244589   6.512   1.081  14.767  0.0258 -0.2016 -0.9074
 7725TIP3    H144590   6.432   1.089  14.714 -0.0310  0.3682 -0.7427
 7725TIP3    H244591   6.583   1.100  14.706 -0.1329  2.0724 -0.4316
 7726TIP3   OH244592   2.446   0.290   0.073 -0.2728 -0.6145  0.1459
 7726TIP3    H144593   2.423   0.225   0.140 -3.7779  2.0359  1.7309
 7726TIP3    H244594   2.390   0.269  -0.001  0.7160 -1.1501 -0.4524
 7727TIP3   OH244595   5.342   5.678  16.055  0.2953  0.6087 -0.3048
 7727TIP3    H144596   5.371   5.704  16.142  0.3678  0.7065 -0.3583
 7727TIP3    H244597   5.315   5.760  16.014 -1.4535  0.3300  0.2563
 7728TIP3   OH244598   4.832   2.483   5.823 -0.2501 -0.1478  0.8079
 7728TIP3    H144599   4.912   2.511   5.868  1.4790 -2.0099 -1.0029
 7728TIP3    H244600   4.850   2.499   5.730 -1.5750 -1.5158  0.2915
 7729TIP3   OH244601   0.655   3.621  14.989  0.5035 -0.2454 -0.6874
 7729TIP3    H144602   0.568   3.611  14.949  0.6047 -0.4444 -0.8563
 7729TIP3    H244603   0.697   3.537  14.976 -0.3170 -1.1049  1.8949
 7730TIP3   OH244604   0.737   5.379   0.670  0.4286  0.5211  0.1418
 7730TIP3    H144605   0.642   5.370   0.669  0.4142  0.6956 -0.2634
 7730TIP3    H244606   0.759   5.409   0.582  0.8485  0.5963  0.2706
 7731TIP3   OH244607   0.035   2.442   2.448  0.2231 -0.8275 -0.4260
 7731TIP3    H144608  -0.039   2.499   2.470  0.8087 -0.7304  1.3262
 7731TIP3    H244609   0.111   2.500   2.450  0.5943 -1.3172 -0.3867
 7732TIP3   OH244610   5.356   6.549   1.221  0.0460  0.1019  0.8442
 7732TIP3    H144611   5.409   6.610   1.170 -0.0698  0.0022  0.6030
 7732TIP3    H244612   5.403   6.465   1.216 -0.2001 -0.0159  0.5245
 7733TIP3   OH244613   5.243   4.507  12.479 -0.1657  0.0917  0.1046
 7733TIP3    H144614   5.227   4.545  12.392 -0.4693  1.4476  0.7368
 7733TIP3    H244615   5.272   4.418  12.461 -1.4481 -0.0609 -1.3529
 7734TIP3   OH244616   2.401   3.907  16.795  0.4038 -0.1821 -0.7577
 7734TIP3    H144617   2.484   3.875  16.760  1.0997  1.7795 -0.9646
 7734TIP3    H244618   2.423   3.993  16.833 -1.1400 -0.4954  0.8947
 7735TIP3   OH244619   5.462   1.834   2.616  0.2132 -0.8098 -0.3479
 7735TIP3    H144620   5.486   1.754   2.569 -2.4101 -0.9671 -1.5126
 7735TIP3    H244621   5.414   1.886   2.552  1.1324  1.3257  0.6526
 7736TIP3   OH244622   1.896   0.778   5.524 -0.2784 -0.0092 -0.0001
 7736TIP3    H144623   1.903   0.820   5.438 -2.1300  1.5346  0.5671
 7736TIP3    H244624   1.886   0.851   5.585 -1.0901 -1.1826  1.2816
 7737TIP3   OH244625   6.316   1.124   4.233  0.0955 -0.1524  0.2255
 7737TIP3    H144626   6.282   1.042   4.199 -1.2635  0.2807  0.5234
 7737TIP3    H244627   6.357   1.102   4.316  0.1151 -0.5887  0.0974
 7738TIP3   OH244628   6.230   4.717   4.513  0.0863 -0.2092  0.0441
 7738TIP3    H144629   6.279   4.637   4.495 -0.0431  0.1220 -1.9710
 7738TIP3    H244630   6.151   4.688   4.559  1.2956 -0.9367  1.6832
 7739TIP3   OH244631   4.517   5.050  12.209 -0.2798  0.2604  0.1276
 7739TIP3    H144632   4.439   5.078  12.161 -0.9199 -1.8066 -0.0792
 7739TIP3    H244633   4.591   5.086  12.159 -0.9920 -0.5955 -1.5566
 7740TIP3   OH244634   2.275   4.412  12.389  0.1380  0.2112  0.0192
 7740TIP3    H144635   2.257   4.365  12.308  0.7568  0.8602 -0.4998
 7740TIP3    H244636   2.222   4.368  12.455 -1.6317  0.7007 -1.0505
 7741TIP3   OH244637   5.027   3.237  15.581  0.6042  0.4041  0.6053
 7741TIP3    H144638   5.031   3.142  15.588  0.3685  0.3859  0.4949
 7741TIP3    H244639   5.118   3.266  15.592  1.0051  0.0166 -1.5739
 7742TIP3   OH244640   3.595   2.058   4.727  0.3737 -0.3093  0.5763
 7742TIP3    H144641   3.545   2.139   4.726  0.2216 -0.4104 -1.0021
 7742TIP3    H244642   3.532   1.989   4.708  1.0764 -0.4418 -1.3825
 7743TIP3   OH244643   4.785   1.735  15.153  0.1074  0.2087  0.1173
 7743TIP3    H144644   4.778   1.807  15.090 -0.6685  1.1667  1.2774
 7743TIP3    H244645   4.834   1.772  15.226  0.4865 -0.7216  0.3356
 7744TIP3   OH244646   6.090   2.386   3.725 -0.4574 -0.6205 -0.4199
 7744TIP3    H144647   6.049   2.359   3.643 -1.4952 -1.5245  0.3723
 7744TIP3    H244648   6.018   2.386   3.789  0.4789 -0.6937  0.6528
 7745TIP3   OH244649   1.924   2.052   2.812 -0.3932 -0.4546  0.1849
 7745TIP3    H144650   1.924   2.124   2.876  0.6588  1.1259 -1.5717
 7745TIP3    H244651   1.833   2.047   2.782 -0.3442  0.5132 -0.1159
 7746TIP3   OH244652   0.412   2.707  10.811  0.6455 -0.4224  0.3998
 7746TIP3    H144653   0.373   2.620  10.819  0.1890 -0.3124 -0.5042
 7746TIP3    H244654   0.489   2.704  10.867  0.0412 -1.0641  1.2153
 7747TIP3   OH244655   1.355   0.082   4.632  0.2172 -0.1241  0.3309
 7747TIP3    H144656   1.294   0.134   4.684  0.8927  2.2067 -1.1217
 7747TIP3    H244657   1.425   0.143   4.609  0.2504 -1.2281 -2.7701
 7748TIP3   OH244658   6.711   5.104   2.466 -0.1110 -0.5733  0.0113
 7748TIP3    H144659   6.626   5.147   2.456 -0.1924 -0.8414 -0.4475
 7748TIP3    H244660   6.756   5.156   2.532  0.2646  0.9252 -1.4086
 7749TIP3   OH244661   1.475   3.777   4.708 -0.4781  0.1540 -0.0970
 7749TIP3    H144662   1.487   3.718   4.782 -0.9848 -0.1436 -0.2538
 7749TIP3    H244663   1.467   3.720   4.632 -0.0224  0.4572 -0.3793
 7750TIP3   OH244664   2.336   4.581   4.200  0.3662  0.2911  0.9243
 7750TIP3    H144665   2.269   4.621   4.143  1.2538  1.0031  0.3662
 7750TIP3    H244666   2.310   4.489   4.205 -0.1121  0.3547 -0.0926
 7751TIP3   OH244667   4.026   1.092  10.917 -1.0142 -0.0872 -0.7663
 7751TIP3    H144668   3.969   1.060  10.847 -0.6081 -0.9523 -0.7044
 7751TIP3    H244669   4.066   1.013  10.954 -0.0201  0.4894 -0.5988
 7752TIP3   OH244670   2.668   2.177  13.840  0.3769 -0.0153  0.4206
 7752TIP3    H144671   2.635   2.190  13.751 -0.5373 -0.1678  0.7335
 7752TIP3    H244672   2.723   2.099  13.835  0.6768  0.2257 -0.0964
 7753TIP3   OH244673   5.196   0.197  14.952  0.2985 -0.1828  0.4213
 7753TIP3    H144674   5.211   0.283  14.912  1.0377  0.7823  2.7253
 7753TIP3    H244675   5.228   0.206  15.041  0.3648 -2.8731  0.6991
 7754TIP3   OH244676   5.552   6.112   0.894  0.7033 -0.3835 -0.0656
 7754TIP3    H144677   5.573   6.205   0.898  2.0534 -0.5927 -1.6062
 7754TIP3    H244678   5.602   6.073   0.965  0.2466  0.0365  0.4916
 7755TIP3   OH244679   2.652   2.498   4.086 -0.1197  0.4601  0.2073
 7755TIP3    H144680   2.649   2.412   4.128  1.5853  0.4189  0.2542
 7755TIP3    H244681   2.678   2.558   4.156 -2.2923  1.1966  0.4258
 7756TIP3   OH244682   2.689   6.417   3.343  0.5570  0.1266  0.3131
 7756TIP3    H144683   2.650   6.384   3.423  2.0066 -0.9241  0.6102
 7756TIP3    H244684   2.702   6.339   3.288 -2.1956  1.0584 -1.7450
 7757TIP3   OH244685   3.821   0.506   4.513  0.0507  0.1524  0.1476
 7757TIP3    H144686   3.833   0.524   4.606  0.5875 -0.2560  0.1611
 7757TIP3    H244687   3.910   0.491   4.480 -0.0346  1.3440 -0.6528
 7758TIP3   OH244688   4.424   5.060  10.727 -0.3543 -0.1700 -0.0123
 7758TIP3    H144689   4.505   5.051  10.777  0.5665 -1.8628 -1.7280
 7758TIP3    H244690   4.374   4.981  10.747 -1.2645  0.5065  0.4400
 7759TIP3   OH244691   0.391   4.998   0.267  0.1256  0.1626 -0.1133
 7759TIP3    H144692   0.483   4.976   0.247 -0.0518 -0.3798 -0.3608
 7759TIP3    H244693   0.379   4.968   0.357  0.2712  0.4792  0.0094
 7760TIP3   OH244694   0.903   5.871   4.098 -0.1075 -0.4372  0.1180
 7760TIP3    H144695   0.843   5.821   4.043 -1.5599  1.6730 -0.2927
 7760TIP3    H244696   0.856   5.953   4.116  1.9600  0.5437  1.2228
 7761TIP3   OH244697   2.490   3.223   2.266 -0.1777  0.1659 -0.1281
 7761TIP3    H144698   2.573   3.184   2.239  0.4383  0.5021  1.2608
 7761TIP3    H244699   2.425   3.155   2.248  0.5073 -0.4217 -0.4136
 7762TIP3   OH244700   6.415   6.398  15.040 -0.0658  0.5248 -0.1004
 7762TIP3    H144701   6.474   6.338  15.087 -0.9431  1.3810  2.1985
 7762TIP3    H244702   6.365   6.341  14.982  0.1412 -0.8023  0.9751
 7763TIP3   OH244703   3.563   1.707   1.236 -0.6181  0.4169  0.3952
 7763TIP3    H144704   3.542   1.620   1.270  0.7305  0.4356  1.2926
 7763TIP3    H244705   3.640   1.694   1.180  1.2299  1.4065  2.6077
 7764TIP3   OH244706   4.562   1.589   5.620 -0.1422 -0.9076 -0.3182
 7764TIP3    H144707   4.477   1.622   5.592  0.0148 -1.7463 -1.8314
 7764TIP3    H244708   4.597   1.658   5.676 -0.2606  1.0534 -2.5777
 7765TIP3   OH244709   5.176   5.380  12.228 -0.2340 -0.1591  0.2252
 7765TIP3    H144710   5.133   5.440  12.289  0.2045  0.9094 -0.5030
 7765TIP3    H244711   5.105   5.328  12.191 -1.0426  2.2365 -1.6915
 7766TIP3   OH244712   0.741   0.815   1.105  0.5844  0.1270 -0.4241
 7766TIP3    H144713   0.801   0.748   1.072 -1.0148 -2.1303  1.0367
 7766TIP3    H244714   0.657   0.795   1.063  0.7856  3.1496 -2.3332
 7767TIP3   OH244715   1.639   3.304   5.413  0.5896 -0.2326 -1.0645
 7767TIP3    H144716   1.601   3.382   5.373 -1.0454 -1.0797 -1.2058
 7767TIP3    H244717   1.606   3.232   5.359 -0.6155 -1.2886  1.0423
 7768TIP3   OH244718   2.696   6.135  16.439 -0.1269  0.0869 -0.2948
 7768TIP3    H144719   2.760   6.069  16.465  1.5685  2.1660  0.9708
 7768TIP3    H244720   2.688   6.126  16.344  1.5610 -0.6129 -0.3761
 7769TIP3   OH244721   3.886   6.562  15.234 -0.0673  0.5988  0.6675
 7769TIP3    H144722   3.878   6.468  15.250 -1.4528  0.6314  0.1668
 7769TIP3    H244723   3.981   6.577  15.233  0.1588 -0.2810  3.5895
 7770TIP3   OH244724   2.850   2.237   2.876  0.2947  0.1495 -0.2195
 7770TIP3    H144725   2.898   2.159   2.847  0.8403  0.3045  0.2441
 7770TIP3    H244726   2.759   2.220   2.851  0.4501 -0.5229 -0.3501
 7771TIP3   OH244727   2.688   3.555  13.441  0.1361  0.1164 -0.5522
 7771TIP3    H144728   2.672   3.535  13.533  1.7941  0.3341 -0.1945
 7771TIP3    H244729   2.604   3.588  13.409 -0.3460  0.4540  0.9973
 7772TIP3   OH244730   6.461   0.974  17.192  0.0113  0.5853  0.2388
 7772TIP3    H144731   6.551   0.973  17.225 -0.3809  0.8987  1.3250
 7772TIP3    H244732   6.410   1.012  17.263 -0.9765  0.4414 -0.3943
 7773TIP3   OH244733   6.393   0.249   5.085  0.2374  0.3701 -0.1616
 7773TIP3    H144734   6.394   0.319   5.020  1.4409 -0.0336 -0.5849
 7773TIP3    H244735   6.422   0.172   5.037  0.2754 -0.1222  0.6470
 7774TIP3   OH244736   4.157   0.443  13.378 -0.9632 -0.1095 -0.2159
 7774TIP3    H144737   4.120   0.360  13.347  0.0316 -1.2922  1.6815
 7774TIP3    H244738   4.154   0.437  13.473 -0.6244  1.9366 -0.0535
 7775TIP3   OH244739   3.414   0.816  15.675 -0.3745 -0.2546  0.3873
 7775TIP3    H144740   3.420   0.908  15.700 -1.9979 -0.2356  0.8025
 7775TIP3    H244741   3.320   0.802  15.663 -0.2961 -2.2971  1.9704
 7776TIP3   OH244742   6.087   4.360   2.197 -0.8567  0.3396 -0.2142
 7776TIP3    H144743   6.165   4.326   2.240 -1.8089 -0.2614  1.0441
 7776TIP3    H244744   6.113   4.447   2.166  0.7456 -0.4330 -1.0785
 7777TIP3   OH244745   5.991   2.649   5.352 -0.5118  0.4560 -0.3559
 7777TIP3    H144746   5.956   2.737   5.366 -2.2523  0.0188 -1.9461
 7777TIP3    H244747   6.060   2.661   5.287 -1.4450  0.4914 -1.3385
 7778TIP3   OH244748   2.070   5.375  14.718  0.5103 -0.5336 -0.0912
 7778TIP3    H144749   2.123   5.308  14.675  2.1420 -0.0879  1.1414
 7778TIP3    H244750   2.115   5.457  14.699 -0.8859  0.0969 -0.7140
 7779TIP3   OH244751   4.159   1.035  16.799 -0.5675 -0.2118  0.2540
 7779TIP3    H144752   4.093   1.058  16.734 -0.3554 -0.0827  0.0782
 7779TIP3    H244753   4.235   1.008  16.747 -0.2008  0.4439  0.4354
 7780TIP3   OH244754   0.151   1.925  16.213  0.0597  0.3488  0.1613
 7780TIP3    H144755   0.222   1.969  16.261  1.6532 -0.2568 -1.6169
 7780TIP3    H244756   0.081   1.991  16.210  1.0665  1.4732  0.6720
 7781TIP3   OH244757   6.282   0.934   3.320 -1.2081 -0.6034 -0.2386
 7781TIP3    H144758   6.317   0.908   3.235 -1.1072 -1.8532  0.1699
 7781TIP3    H244759   6.204   0.986   3.299 -0.0904  0.7326 -1.1111
 7782TIP3   OH244760   5.231   0.951  16.259 -0.1197  0.0398 -0.0264
 7782TIP3    H144761   5.161   0.972  16.197  0.7254  1.1552 -0.6096
 7782TIP3    H244762   5.293   1.024  16.252  2.0438 -1.8134 -0.8956
 7783TIP3   OH244763   1.593   1.680   2.507  0.5594 -0.4856  0.6823
 7783TIP3    H144764   1.575   1.774   2.509  0.8079 -0.4271  0.1721
 7783TIP3    H244765   1.623   1.659   2.596  0.4439 -0.0965  0.8118
 7784TIP3   OH244766   1.305   4.347   1.209 -0.2762 -0.4693  0.0097
 7784TIP3    H144767   1.237   4.347   1.141 -1.7249  2.6396  1.3436
 7784TIP3    H244768   1.385   4.324   1.163 -1.0146  2.6257 -3.0685
 7785TIP3   OH244769   3.485   0.232   5.334 -0.3003 -0.7380 -0.2104
 7785TIP3    H144770   3.409   0.225   5.392  0.2627  0.7241  0.7328
 7785TIP3    H244771   3.491   0.325   5.313  1.5075 -0.7586  0.1204
 7786TIP3   OH244772   5.190   0.655   0.686 -0.6109  0.1193  0.3936
 7786TIP3    H144773   5.256   0.724   0.696 -0.0637 -0.0249 -1.9474
 7786TIP3    H244774   5.188   0.611   0.770  0.2382  1.9388  1.3958
 7787TIP3   OH244775   3.035   0.136  11.486  0.6868 -0.2041 -0.3263
 7787TIP3    H144776   2.946   0.109  11.462  1.1458  0.4068 -2.9270
 7787TIP3    H244777   3.085   0.054  11.489  0.2891 -0.4345 -0.0717
 7788TIP3   OH244778   1.099   4.028  14.509 -0.1637  0.0742  0.0348
 7788TIP3    H144779   1.011   3.994  14.523  0.7022 -1.6036  1.7367
 7788TIP3    H244780   1.119   4.006  14.418 -2.3671  2.6386 -1.1145
 7789TIP3   OH244781   1.518   6.458  15.316 -0.6219  0.0022 -0.0364
 7789TIP3    H144782   1.458   6.445  15.242 -2.0523  0.0490  1.0963
 7789TIP3    H244783   1.512   6.376  15.366 -0.2233  0.2574  0.4319
 7790TIP3   OH244784   2.022   4.526   3.557  0.2958  0.1269  0.6801
 7790TIP3    H144785   1.992   4.538   3.647  3.2477  1.3021  1.5453
 7790TIP3    H244786   2.037   4.615   3.525  0.7408 -0.3550 -0.4784
 7791TIP3   OH244787   1.342   5.708  12.837  0.6660  0.0030 -0.0697
 7791TIP3    H144788   1.388   5.625  12.845  0.8756 -0.0526 -1.6866
 7791TIP3    H244789   1.295   5.702  12.754  0.8832  1.5769 -0.3278
 7792TIP3   OH244790   0.904   4.374  16.542 -0.8173 -0.7527 -0.1837
 7792TIP3    H144791   0.931   4.284  16.525  1.8767  0.0790 -0.5102
 7792TIP3    H244792   0.948   4.425  16.474  1.0669  1.2989  2.5010
 7793TIP3   OH244793   5.164   2.961  11.735 -0.0491 -0.2037  0.3481
 7793TIP3    H144794   5.189   2.972  11.643  0.7070  1.7381  0.7532
 7793TIP3    H244795   5.111   2.881  11.736  1.7343 -1.4669 -1.4055
 7794TIP3   OH244796   5.598   3.226   2.928 -0.7638 -0.4433 -0.1208
 7794TIP3    H144797   5.630   3.252   2.841 -1.1263  0.6850  0.0711
 7794TIP3    H244798   5.519   3.278   2.941 -1.4043 -1.5213  0.3774
 7795TIP3   OH244799   0.854   1.396   2.138  0.2098 -0.1899 -0.4915
 7795TIP3    H144800   0.825   1.306   2.155 -0.7287  0.1546 -0.2844
 7795TIP3    H244801   0.860   1.402   2.043  0.0454 -0.4017 -0.5154
 7796TIP3   OH244802   0.917   5.752   5.341 -0.3318  0.1072 -0.3957
 7796TIP3    H144803   0.945   5.661   5.355  1.5159  0.4354 -1.7880
 7796TIP3    H244804   0.990   5.805   5.373 -1.5417  1.1510  0.7385
 7797TIP3   OH244805   3.150   4.873   3.427  0.9642  0.2169  0.1771
 7797TIP3    H144806   3.176   4.862   3.519  1.4449 -0.6069 -0.0501
 7797TIP3    H244807   3.070   4.822   3.419  0.3458  1.1479  0.3936
 7798TIP3   OH244808   0.933   2.286   5.505  0.4750 -0.2426  0.7473
 7798TIP3    H144809   1.017   2.243   5.491  0.9484  0.5909  0.9674
 7798TIP3    H244810   0.894   2.239   5.579  0.2800 -1.2866 -0.0052
 7799TIP3   OH244811   6.294   6.185  16.612  0.0787 -0.2859  0.2729
 7799TIP3    H144812   6.210   6.140  16.597 -0.4368  0.3100  1.3429
 7799TIP3    H244813   6.270   6.263  16.661  1.1050  0.5996 -0.6269
 7800TIP3   OH244814   2.198   6.187  14.310  0.4145  0.0593 -0.3158
 7800TIP3    H144815   2.245   6.147  14.237  0.4011 -0.6843  0.0823
 7800TIP3    H244816   2.109   6.153  14.304 -0.5655  2.7908 -2.0786
 7801TIP3   OH244817   2.049   1.883   1.669  1.1863  0.0531 -0.0459
 7801TIP3    H144818   2.140   1.909   1.661  1.3856 -0.3513  0.8750
 7801TIP3    H244819   2.040   1.854   1.759 -0.3661  2.0690  0.4914
 7802TIP3   OH244820   0.990   5.319  13.044 -0.2537 -0.0655 -0.2335
 7802TIP3    H144821   0.920   5.258  13.072 -0.3838  0.2744  0.1897
 7802TIP3    H244822   0.946   5.404  13.038 -0.4180 -0.2864 -2.3337
 7803TIP3   OH244823   2.140   1.242  12.818  0.8316  0.1883  0.1057
 7803TIP3    H144824   2.115   1.211  12.906 -0.0406 -3.0221 -1.1896
 7803TIP3    H244825   2.223   1.287  12.832 -0.0278  1.0611  2.8096
 7804TIP3   OH244826   4.341   2.838  12.550 -0.1661 -0.4854 -0.4803
 7804TIP3    H144827   4.285   2.768  12.583 -1.1184 -0.1618 -1.3792
 7804TIP3    H244828   4.283   2.892  12.497  0.6882  0.6676 -0.2627
 7805TIP3   OH244829   3.060   3.823   5.993  0.5950  0.1637  0.6487
 7805TIP3    H144830   3.066   3.827   6.089  0.0545  0.0829  0.6862
 7805TIP3    H244831   2.970   3.797   5.976  0.3318  1.4070  0.0824
 7806TIP3   OH244832   4.278   5.482   0.940  0.2055  0.4071 -0.0244
 7806TIP3    H144833   4.223   5.483   0.862  0.1099  1.0095  0.0509
 7806TIP3    H244834   4.361   5.520   0.911  0.1400  0.7116  0.1906
 7807TIP3   OH244835   0.737   4.231   6.411 -0.1630  0.6921  0.3184
 7807TIP3    H144836   0.786   4.289   6.469 -0.3548  0.0403  1.1409
 7807TIP3    H244837   0.647   4.235   6.443  0.0900 -1.2180  1.3442
 7808TIP3   OH244838   1.547   3.283   2.714 -0.1228  0.0686 -0.0904
 7808TIP3    H144839   1.630   3.259   2.754 -1.4308 -0.1816  2.6330
 7808TIP3    H244840   1.498   3.201   2.708 -0.9665  0.5238  0.3568
 7809TIP3   OH244841   5.579   3.139  14.895  0.1418  0.2816 -0.2059
 7809TIP3    H144842   5.603   3.230  14.883  4.2516 -0.3680  2.4178
 7809TIP3    H244843   5.635   3.091  14.834  0.5542 -0.7437  0.9634
 7810TIP3   OH244844   2.731   6.065  13.579  0.0369 -0.1428 -0.0727
 7810TIP3    H144845   2.702   5.975  13.593  1.0716 -0.4748 -0.0355
 7810TIP3    H244846   2.731   6.076  13.484 -2.7024  0.6952 -0.0086
 7811TIP3   OH244847   0.062   1.617   2.340 -0.1795 -0.3570 -0.1057
 7811TIP3    H144848   0.022   1.675   2.275  2.1855  0.2024 -1.1351
 7811TIP3    H244849   0.131   1.571   2.292  0.7626 -0.8839  1.7036
 7812TIP3   OH244850   1.942   2.448   3.241 -0.4134 -1.0607  0.4832
 7812TIP3    H144851   1.863   2.501   3.229  1.1581  0.8189 -1.7962
 7812TIP3    H244852   1.991   2.493   3.309  0.4299 -0.1647 -0.7138
 7813TIP3   OH244853   4.437   2.090   3.628 -0.7126  0.2153 -0.0135
 7813TIP3    H144854   4.496   2.032   3.580  1.4624  1.3249  1.2738
 7813TIP3    H244855   4.391   2.032   3.688  1.0017 -0.2998  0.8335
 7814TIP3   OH244856   5.483   6.416  15.553 -0.2982 -0.0663 -0.1106
 7814TIP3    H144857   5.543   6.358  15.506 -1.4556  0.8830 -2.8509
 7814TIP3    H244858   5.540   6.471  15.606  1.2353  0.2211 -1.9804
 7815TIP3   OH244859   3.862   6.248   4.585  0.4809  1.0803  0.6004
 7815TIP3    H144860   3.808   6.272   4.660  0.7224  0.4459  0.9771
 7815TIP3    H244861   3.839   6.157   4.567 -0.5117  1.6053 -0.8863
 7816TIP3   OH244862   2.932   1.719  16.643  0.0274  0.2036 -0.3370
 7816TIP3    H144863   2.837   1.722  16.652  0.1332  1.3380  0.5689
 7816TIP3    H244864   2.962   1.662  16.714  0.1576  1.4033  0.5826
 7817TIP3   OH244865   2.812   3.172   4.035  0.0426  0.0855  0.2397
 7817TIP3    H144866   2.776   3.084   4.043 -0.1350  0.1005 -0.3799
 7817TIP3    H244867   2.741   3.224   3.998  0.5107  0.2465 -0.4414
 7818TIP3   OH244868   3.802   1.924   4.603  0.0895 -0.4154  0.3592
 7818TIP3    H144869   3.736   1.970   4.654  0.3672  1.2272 -0.7312
 7818TIP3    H244870   3.786   1.831   4.621 -3.0594 -0.1025 -0.5858
 7819TIP3   OH244871   4.987   2.076  13.111  0.5475 -0.5793  0.4017
 7819TIP3    H144872   4.942   2.001  13.150 -1.2930  0.9942  1.3976
 7819TIP3    H244873   4.926   2.110  13.046  1.4695 -0.0941 -0.2200
 7820TIP3   OH244874   0.179   1.516  12.285  0.0226 -0.7621  0.1856
 7820TIP3    H144875   0.239   1.495  12.357  4.0547  1.7427 -2.2255
 7820TIP3    H244876   0.187   1.442  12.225 -0.6190 -1.2319  0.6830
 7821TIP3   OH244877   3.639   2.992  12.640  0.4697  0.6359  0.3551
 7821TIP3    H144878   3.553   2.953  12.625 -0.1297  1.7713  0.7822
 7821TIP3    H244879   3.641   3.009  12.735  2.0748 -1.5031  0.7529
 7822TIP3   OH244880   2.248   3.942   2.413  0.3623 -0.0292 -0.3529
 7822TIP3    H144881   2.333   3.982   2.431 -0.0951  0.5321  0.6088
 7822TIP3    H244882   2.263   3.888   2.335  1.6698 -0.1591 -0.0277
 7823TIP3   OH244883   1.632   4.034  16.136  0.2057  0.0323 -0.3590
 7823TIP3    H144884   1.713   4.010  16.090  0.9547  0.1915  0.8529
 7823TIP3    H244885   1.609   4.119  16.100  0.6270  0.0290 -0.6492
 7824TIP3   OH244886   1.330   1.183   2.518 -0.1320  0.1794  0.1396
 7824TIP3    H144887   1.397   1.203   2.452 -1.1064  0.7969 -0.6775
 7824TIP3    H244888   1.379   1.146   2.591  0.9171 -0.9248 -1.0984
 7825TIP3   OH244889   3.049   4.967  11.850 -0.4513 -0.2042 -0.8973
 7825TIP3    H144890   2.962   4.995  11.820  0.1356  1.5478 -1.0045
 7825TIP3    H244891   3.088   4.923  11.774 -1.6984 -2.1115 -0.4709
 7826TIP3   OH244892   4.762   6.182  15.515  0.5455  0.1727 -0.5280
 7826TIP3    H144893   4.851   6.199  15.484  1.1107  0.1396  1.0379
 7826TIP3    H244894   4.723   6.128  15.447  1.3842  1.0294 -1.7191
 7827TIP3   OH244895   6.764   1.462  13.981 -0.0916 -0.6344 -0.2845
 7827TIP3    H144896   6.747   1.482  13.889  1.1053 -0.3858 -0.4689
 7827TIP3    H244897   6.732   1.373  13.993  0.6782 -1.0437 -1.2059
 7828TIP3   OH244898   6.607   0.472  12.868  0.1010 -0.0523  0.0307
 7828TIP3    H144899   6.574   0.529  12.937  0.3976  1.3875 -0.9750
 7828TIP3    H244900   6.561   0.502  12.789  2.2554  0.6053 -1.0128
 7829TIP3   OH244901   2.598   2.192  13.311  0.5803 -0.0821  0.2575
 7829TIP3    H144902   2.507   2.190  13.281  0.1343  1.3049  1.4580
 7829TIP3    H244903   2.633   2.274  13.277  1.0719 -0.1336  0.6283
 7830TIP3   OH244904   1.743   2.981  15.775 -0.0625  0.2972 -0.2119
 7830TIP3    H144905   1.764   3.072  15.754 -0.2654  0.7558  1.5326
 7830TIP3    H244906   1.743   2.977  15.871 -0.7298 -1.3830 -0.2570
 7831TIP3   OH244907   2.656   6.339   3.993  0.2198  0.2889 -0.1747
 7831TIP3    H144908   2.675   6.342   4.087 -0.4520 -2.2230  0.0773
 7831TIP3    H244909   2.567   6.373   3.985  0.8512  1.9870 -0.1006
 7832TIP3   OH244910   4.900   5.127  11.235 -0.2889  0.4469  0.6950
 7832TIP3    H144911   4.970   5.081  11.188 -0.0607 -0.4549  1.8995
 7832TIP3    H244912   4.920   5.113  11.328 -1.1234  1.6218  1.0595
 7833TIP3   OH244913   6.278   4.651   3.014 -0.7316 -0.2483 -0.2910
 7833TIP3    H144914   6.217   4.582   2.987 -0.0952 -0.5857 -0.8671
 7833TIP3    H244915   6.225   4.711   3.066 -1.1056 -1.6429  0.9624
 7834TIP3   OH244916   1.530   2.844   5.023 -0.1254  0.8127  1.0803
 7834TIP3    H144917   1.578   2.873   5.101 -0.1571  0.8930  1.0690
 7834TIP3    H244918   1.599   2.812   4.964 -0.2535 -1.0834  1.9264
 7835TIP3   OH244919   4.758   4.890   1.265  0.1941  0.3237 -0.6559
 7835TIP3    H144920   4.726   4.896   1.355  1.6819  2.6080 -0.2523
 7835TIP3    H244921   4.770   4.796   1.251 -1.1805 -0.1564  1.1106
 7836TIP3   OH244922   4.712   1.089   4.577  0.5507 -0.1210  0.0223
 7836TIP3    H144923   4.801   1.117   4.600 -0.0224  0.6516  1.4235
 7836TIP3    H244924   4.656   1.151   4.624 -0.7999 -3.7628  3.4671
 7837TIP3   OH244925   4.787   4.481  12.539  0.1716  0.1607 -0.4513
 7837TIP3    H144926   4.846   4.491  12.614  0.0280 -1.9832 -0.0194
 7837TIP3    H244927   4.746   4.567  12.530 -0.8034  0.1293  2.7753
 7838TIP3   OH244928   0.014   2.858  14.165 -0.4616 -0.3094  0.2094
 7838TIP3    H144929   0.044   2.900  14.085  0.4160 -1.0068  0.1587
 7838TIP3    H244930  -0.045   2.921  14.206  0.2565  0.6492 -0.2357
 7839TIP3   OH244931   0.926   0.912  16.848 -0.1636 -0.2810  0.1295
 7839TIP3    H144932   0.840   0.902  16.808  0.2861 -0.0062 -0.9280
 7839TIP3    H244933   0.933   1.005  16.867 -0.6766 -0.5204  1.5664
 7840TIP3   OH244934   1.315   6.106   2.293 -0.1071 -0.0027  0.6689
 7840TIP3    H144935   1.260   6.057   2.354 -0.1073  1.5233  1.9101
 7840TIP3    H244936   1.275   6.090   2.208 -1.7750  0.1303  1.3989
 7841TIP3   OH244937   0.144   0.045   1.162 -0.3184 -0.0463 -0.1724
 7841TIP3    H144938   0.190   0.063   1.080  0.2744 -0.3926  0.0775
 7841TIP3    H244939   0.069   0.104   1.161 -0.2799 -0.0061 -0.9363
 7842TIP3   OH244940   6.043   3.581   6.267  0.6518  0.4933  0.0646
 7842TIP3    H144941   6.008   3.516   6.207  0.8590  0.5687 -0.1368
 7842TIP3    H244942   6.053   3.660   6.214  4.0091 -0.3302 -0.6755
 7843TIP3   OH244943   0.442   0.439   1.998 -0.0166 -0.7550 -0.1591
 7843TIP3    H144944   0.394   0.417   2.078 -1.0395  0.4954 -0.4106
 7843TIP3    H244945   0.522   0.480   2.028 -0.2126 -0.6679  0.2425
 7844TIP3   OH244946   4.653   6.048   2.303 -0.1800 -0.2573 -0.0382
 7844TIP3    H144947   4.658   5.973   2.362  1.6021  0.2739  0.5282
 7844TIP3    H244948   4.664   6.124   2.360  0.1889  0.3236 -0.8736
 7845TIP3   OH244949   4.322   3.618   2.882  0.5187 -0.2667 -0.1226
 7845TIP3    H144950   4.309   3.646   2.972 -2.8327 -1.3642 -0.1908
 7845TIP3    H244951   4.282   3.687   2.829 -1.3404 -1.6352 -0.5590
 7846TIP3   OH244952   0.665   4.462   1.105  0.6926 -0.3361  0.0678
 7846TIP3    H144953   0.731   4.394   1.099  2.7258  1.6277 -0.6004
 7846TIP3    H244954   0.614   4.453   1.024  0.5968 -1.3843  0.2375
 7847TIP3   OH244955   6.462   3.077  12.477  0.0742  0.3187  0.3775
 7847TIP3    H144956   6.411   3.040  12.406  0.3397  0.5569  0.0614
 7847TIP3    H244957   6.534   3.015  12.490 -0.2684  0.0050  0.7954
 7848TIP3   OH244958   5.183   1.292   4.205  0.3835 -0.4569 -0.0011
 7848TIP3    H144959   5.099   1.248   4.189 -1.0159  2.1173  0.1388
 7848TIP3    H244960   5.203   1.336   4.122 -0.5663  2.4511  1.2637
 7849TIP3   OH244961   6.557   4.160  11.596  0.3914  0.4143  0.0453
 7849TIP3    H144962   6.574   4.254  11.602  1.8484  0.0960  1.4500
 7849TIP3    H244963   6.527   4.147  11.506  0.2937  2.1935 -0.2119
 7850TIP3   OH244964   1.713   4.832  16.050 -0.2753 -0.3820  0.4204
 7850TIP3    H144965   1.716   4.764  16.118  1.3111 -0.0299  0.7239
 7850TIP3    H244966   1.795   4.821  16.001 -0.6520  0.4247 -0.4022
 7851TIP3   OH244967   3.711   5.132  12.899  0.2903  0.1210 -0.1849
 7851TIP3    H144968   3.692   5.053  12.950  1.0088 -0.4081 -0.7465
 7851TIP3    H244969   3.791   5.112  12.852  0.5005  1.2075 -0.2958
 7852TIP3   OH244970   1.414   6.507  10.744  0.1998  0.7121 -0.4463
 7852TIP3    H144971   1.337   6.453  10.757  0.3882 -0.1420 -2.7176
 7852TIP3    H244972   1.390   6.592  10.782 -2.1536  0.6917 -1.7612
 7853TIP3   OH244973   4.669   3.865  16.673  0.6260  0.3475 -0.3494
 7853TIP3    H144974   4.692   3.811  16.748  1.3188 -1.1924 -1.6217
 7853TIP3    H244975   4.648   3.951  16.709  1.4323 -0.2368  1.5348
 7854TIP3   OH244976   2.081   6.315   1.844  0.3739  0.7866 -0.3593
 7854TIP3    H144977   2.076   6.254   1.770  1.4570  0.9806 -0.5983
 7854TIP3    H244978   2.019   6.280   1.907 -0.0743  0.2403 -1.0846
 7855TIP3   OH244979   0.140   1.027   0.370 -0.1696 -0.1788  0.0318
 7855TIP3    H144980   0.209   0.961   0.377  1.3897  1.1062 -2.4314
 7855TIP3    H244981   0.136   1.068   0.456  1.9896 -0.4384  0.2639
 7856TIP3   OH244982   4.147   0.375   1.322  0.3608 -0.3104  0.2251
 7856TIP3    H144983   4.226   0.391   1.373  0.4560 -2.3401  0.7582
 7856TIP3    H244984   4.079   0.426   1.366  1.0758  0.3215  0.5970
 7857TIP3   OH244985   3.805   5.613  11.471 -0.1767  0.5465 -0.6427
 7857TIP3    H144986   3.858   5.693  11.482  0.0040  0.2513  0.7140
 7857TIP3    H244987   3.777   5.616  11.379  2.7133  0.3916 -1.5856
 7858TIP3   OH244988   5.393   1.173   1.748 -0.0292  0.2908 -0.1029
 7858TIP3    H144989   5.353   1.191   1.663  0.1011  0.7050 -0.0792
 7858TIP3    H244990   5.362   1.086   1.772  1.5371 -0.6846 -1.5168
 7859TIP3   OH244991   5.401   3.141   0.555 -0.2943  0.0490  0.1584
 7859TIP3    H144992   5.478   3.087   0.572  0.6836  1.1028 -0.8035
 7859TIP3    H244993   5.408   3.212   0.620  0.3996  0.9908 -0.9264
 7860TIP3   OH244994   1.726   4.895  11.582 -0.0432 -0.0561  0.5008
 7860TIP3    H144995   1.698   4.863  11.496 -1.7648  1.7761  0.3482
 7860TIP3    H244996   1.772   4.977  11.563  0.6337 -0.2662  1.2352
 7861TIP3   OH244997   3.904   0.144  11.838 -0.3138 -0.3234 -0.6824
 7861TIP3    H144998   3.889   0.050  11.840  1.4289 -0.6094 -0.4180
 7861TIP3    H244999   3.963   0.160  11.912  0.1372  0.8346 -1.2857
 7862TIP3   OH245000   2.896   5.723   4.285  0.1737  0.2033  0.1517
 7862TIP3    H145001   2.839   5.654   4.251  0.0691  0.6833 -0.6532
 7862TIP3    H245002   2.981   5.681   4.295  0.3256  0.1922 -1.1726
 7863TIP3   OH245003   4.839   4.822   5.668  0.9338  0.0276 -0.3069
 7863TIP3    H145004   4.896   4.894   5.697 -2.0812  2.8644 -1.1266
 7863TIP3    H245005   4.802   4.787   5.749  0.1088  1.4333 -0.0576
 7864TIP3   OH245006   6.612   0.242  11.630 -0.5620  0.2490  0.8205
 7864TIP3    H145007   6.540   0.233  11.693 -2.4849  0.3224 -1.3108
 7864TIP3    H245008   6.572   0.222  11.545  2.4837 -1.9684 -0.1473
 7865TIP3   OH245009   3.195   6.042   4.320 -0.6912  0.0853  1.0250
 7865TIP3    H145010   3.130   6.012   4.256 -0.1238  1.7757 -0.3637
 7865TIP3    H245011   3.200   6.137   4.308 -0.9063  0.5335  3.9019
 7866TIP3   OH245012   3.892   4.896  11.530 -0.1782 -0.7463  0.0796
 7866TIP3    H145013   3.934   4.867  11.611 -0.4377 -0.9602  0.1373
 7866TIP3    H245014   3.799   4.903  11.552 -0.0633  0.4935  0.1581
 7867TIP3   OH245015   6.570   0.491   2.200 -0.1088 -0.1544 -0.3616
 7867TIP3    H145016   6.663   0.510   2.211  0.7145 -3.7335 -0.4360
 7867TIP3    H245017   6.539   0.471   2.288 -0.4981 -0.2203 -0.5109
 7868TIP3   OH245018   0.808   4.349   2.314  0.8004  0.2226  0.4098
 7868TIP3    H145019   0.721   4.310   2.329  1.0123  0.1237  1.4418
 7868TIP3    H245020   0.869   4.277   2.327  1.1245  0.6303  1.1561
 7869TIP3   OH245021   6.229   5.431  14.953 -0.0020 -0.0703  0.1164
 7869TIP3    H145022   6.150   5.411  15.003 -2.2171  1.3857 -2.6765
 7869TIP3    H245023   6.216   5.385  14.870  1.9291  0.5189 -0.5268
 7870TIP3   OH245024   6.141   6.291  10.316  0.1208 -0.0428 -0.0953
 7870TIP3    H145025   6.180   6.236  10.248  0.4018  1.4864 -1.1950
 7870TIP3    H245026   6.095   6.360  10.268 -2.6315 -0.8957  1.2078
 7871TIP3   OH245027   3.499   0.222   1.621  0.4368 -0.3543 -0.3320
 7871TIP3    H145028   3.509   0.299   1.565  2.2422 -1.2735 -1.3408
 7871TIP3    H245029   3.448   0.161   1.569 -2.3003  0.6930  1.0563
 7872TIP3   OH245030   5.123   5.624   2.414 -0.7497  0.1202 -0.3032
 7872TIP3    H145031   5.075   5.605   2.495  0.2924 -0.8597  0.0927
 7872TIP3    H245032   5.078   5.700   2.377 -3.0121 -1.1211 -0.2548
 7873TIP3   OH245033   4.808   3.999  12.726  0.0035 -0.1055 -0.3621
 7873TIP3    H145034   4.900   4.010  12.754 -0.1848  1.5354 -0.3110
 7873TIP3    H245035   4.814   3.966  12.637  0.6374 -1.6027  0.2224
 7874TIP3   OH245036   6.777   4.833  12.786 -0.4589 -0.3732  0.2231
 7874TIP3    H145037   6.848   4.833  12.722  0.8703 -2.2014  1.6517
 7874TIP3    H245038   6.698   4.850  12.734  0.8635  0.4741 -1.5535
 7875TIP3   OH245039   5.356   5.192  15.344 -0.3758 -0.5146 -0.3211
 7875TIP3    H145040   5.331   5.279  15.372  0.5604 -0.7693  1.3309
 7875TIP3    H245041   5.292   5.134  15.386  0.0458 -0.7616 -0.0173
 7876TIP3   OH245042   1.624   4.572   5.774 -0.2873  0.5976  0.1403
 7876TIP3    H145043   1.622   4.511   5.700 -0.3826  1.8007 -0.8688
 7876TIP3    H245044   1.616   4.658   5.734  3.0473  1.5068  1.2819
 7877TIP3   OH245045   3.884   3.655   2.364  0.0081 -0.3220 -0.5932
 7877TIP3    H145046   3.813   3.660   2.299  0.5569 -0.4675 -1.2084
 7877TIP3    H245047   3.882   3.741   2.407 -0.9918 -0.5743 -0.1293
 7878TIP3   OH245048   3.124   6.270  12.194 -0.0478  0.4937  0.1443
 7878TIP3    H145049   3.184   6.339  12.168 -0.0025  0.9156  1.3276
 7878TIP3    H245050   3.129   6.269  12.289 -0.1456 -1.0580  0.1466
 7879TIP3   OH245051   4.444   2.908   3.324  0.2529 -0.3310  0.0504
 7879TIP3    H145052   4.539   2.900   3.325  0.1738 -1.4400  2.8733
 7879TIP3    H245053   4.425   2.978   3.386 -0.7368  0.6598 -1.3426
 7880TIP3   OH245054   6.718   5.727  15.194 -0.4705 -0.2349  0.0809
 7880TIP3    H145055   6.791   5.695  15.248 -1.5724 -2.3360  0.3729
 7880TIP3    H245056   6.735   5.821  15.184  2.1571 -0.6561  0.3020
 7881TIP3   OH245057   6.152   2.272  16.660 -0.4348 -0.1628 -0.5931
 7881TIP3    H145058   6.153   2.348  16.718 -1.6819 -0.5019 -0.1146
 7881TIP3    H245059   6.091   2.295  16.591 -0.8965 -0.7566 -0.3935
 7882TIP3   OH245060   6.017   6.666  16.329 -0.5854 -0.0284 -0.2320
 7882TIP3    H145061   5.959   6.669  16.405 -1.4322 -0.2399 -0.8586
 7882TIP3    H245062   6.001   6.749  16.284 -0.8878 -0.3656 -0.7518
 7883TIP3   OH245063   0.729   3.880   4.191 -0.0070 -0.0855 -0.1010
 7883TIP3    H145064   0.788   3.812   4.158 -0.3181  0.1048 -1.0695
 7883TIP3    H245065   0.648   3.867   4.143 -0.0538  0.9954 -0.3279
 7884TIP3   OH245066   6.588   5.531   0.712 -0.0436 -0.7480 -0.6556
 7884TIP3    H145067   6.656   5.595   0.689  0.3698 -0.2901  1.6864
 7884TIP3    H245068   6.513   5.555   0.657  0.8757  0.2572 -1.5204
 7885TIP3   OH245069   2.770   2.202  12.195  0.4038  0.0282 -0.4537
 7885TIP3    H145070   2.780   2.172  12.285 -0.4850 -0.0635 -0.3841
 7885TIP3    H245071   2.676   2.209  12.182  0.5226 -0.1963 -1.4628
 7886TIP3   OH245072   2.919   2.155  14.542  0.2369 -0.2934 -0.3528
 7886TIP3    H145073   2.879   2.235  14.508  1.7501  0.7560  0.2711
 7886TIP3    H245074   2.920   2.094  14.468 -1.7437 -0.0504 -0.5879
 7887TIP3   OH245075   6.187   1.486   2.964  0.4576 -0.3664  0.6623
 7887TIP3    H145076   6.120   1.537   2.919  0.4482 -0.6271  0.3759
 7887TIP3    H245077   6.152   1.397   2.965  1.3424 -0.7383 -0.5763
 7888TIP3   OH245078   3.894   2.334   3.048  0.3375 -0.2389 -0.2646
 7888TIP3    H145079   3.852   2.401   2.994  0.1025 -0.4315 -0.3226
 7888TIP3    H245080   3.974   2.376   3.080  0.2344  0.0402 -0.3683
 7889TIP3   OH245081   3.316   0.818   4.697  0.4393 -0.1224 -0.3234
 7889TIP3    H145082   3.242   0.856   4.744  0.6422  0.3334 -0.3696
 7889TIP3    H245083   3.284   0.806   4.607  0.7212  0.9458 -0.5685
 7890TIP3   OH245084   1.267   2.632   4.372 -0.0492 -0.2149 -0.2212
 7890TIP3    H145085   1.238   2.612   4.462 -2.4649 -0.3689 -1.0044
 7890TIP3    H245086   1.228   2.563   4.319  1.8267 -0.4256 -1.3422
 7891TIP3   OH245087   6.068   0.156  10.306 -0.1964 -0.0418  0.3284
 7891TIP3    H145088   5.975   0.176  10.304 -0.0679  0.4836 -1.2630
 7891TIP3    H245089   6.075   0.069  10.266 -0.0770 -0.3911  1.1052
 7892TIP3   OH245090   6.126   3.467  16.808  0.6128 -0.4726  0.7998
 7892TIP3    H145091   6.177   3.508  16.878  1.4525  1.1981 -0.7576
 7892TIP3    H245092   6.122   3.532  16.739  0.2950 -2.3081 -0.9733
 7893TIP3   OH245093   2.512   5.835  12.289  0.1125  0.0179 -0.5495
 7893TIP3    H145094   2.560   5.917  12.277  0.2711 -0.4297 -3.2671
 7893TIP3    H245095   2.420   5.860  12.279  0.2521 -0.3762 -2.9561
 7894TIP3   OH245096   1.057   5.036   3.759  0.0584  0.4541  0.0745
 7894TIP3    H145097   1.131   5.054   3.817 -0.8959  0.7874  1.2052
 7894TIP3    H245098   0.983   5.024   3.818 -0.6224 -0.7420 -1.0050
 7895TIP3   OH245099   6.500   1.008   6.500 -0.4220  0.0535 -1.0423
 7895TIP3    H145100   6.421   0.957   6.480 -0.9664 -0.1969  1.4763
 7895TIP3    H245101   6.561   0.943   6.537  0.7005  0.3793 -2.2954
 7896TIP3   OH245102   1.390   3.163   4.242 -0.5856 -1.1588  0.2760
 7896TIP3    H145103   1.419   3.174   4.333 -1.6282 -0.5356  0.5417
 7896TIP3    H245104   1.353   3.075   4.240  2.4887 -2.4940 -0.4020
 7897TIP3   OH245105   3.859   6.316  14.750 -0.0830  0.5078  0.2999
 7897TIP3    H145106   3.899   6.369  14.819 -0.0500  1.0773 -0.1469
 7897TIP3    H245107   3.928   6.256  14.721 -0.0520  0.3748  0.6558
 7898TIP3   OH245108   3.376   4.544  14.261  0.0078  0.4089 -0.1033
 7898TIP3    H145109   3.419   4.502  14.186  0.2270 -0.0133  0.2570
 7898TIP3    H245110   3.434   4.617  14.283  0.8271 -0.4709  0.7113
 7899TIP3   OH245111   5.422   4.878  14.665  0.6337 -0.4999 -0.2653
 7899TIP3    H145112   5.357   4.808  14.671 -0.6045  0.7259  1.0915
 7899TIP3    H245113   5.401   4.923  14.584  2.1318 -2.3415 -1.7204
 7900TIP3   OH245114   4.100   3.772  13.522 -0.3038  0.5174 -0.5560
 7900TIP3    H145115   4.192   3.784  13.499 -0.9569  0.3470 -3.5414
 7900TIP3    H245116   4.053   3.830  13.462 -2.2038 -0.1355  0.2483
 7901TIP3   OH245117   0.032   0.824  12.394 -0.1070  0.1317  0.1179
 7901TIP3    H145118   0.112   0.819  12.342  0.0421 -0.6979  0.4181
 7901TIP3    H245119  -0.030   0.766  12.349 -0.9119  1.6375 -0.7428
 7902TIP3   OH245120   1.174   2.270   5.844  0.2872  0.1007  0.0496
 7902TIP3    H145121   1.164   2.285   5.938 -0.9764 -0.1496 -0.0250
 7902TIP3    H245122   1.185   2.176   5.836 -1.1402 -0.0657 -0.1486
 7903TIP3   OH245123   2.046   3.481  11.669 -0.5680 -0.3474  0.1149
 7903TIP3    H145124   2.108   3.530  11.615 -0.9175  1.4512  1.2636
 7903TIP3    H245125   1.993   3.549  11.711 -0.1186 -1.6677  2.9278
 7904TIP3   OH245126   4.013   0.288  17.091 -0.3728  0.5685  0.3749
 7904TIP3    H145127   4.074   0.259  17.159  1.4666  2.2680 -0.5043
 7904TIP3    H245128   4.064   0.287  17.010 -1.8413  0.9211 -0.5866
 7905TIP3   OH245129   5.419   2.144  14.388 -0.3085  0.3083  0.2216
 7905TIP3    H145130   5.489   2.115  14.329  0.4742 -1.0307  1.7533
 7905TIP3    H245131   5.340   2.142  14.335  0.3119 -1.2855 -0.6811
 7906TIP3   OH245132   3.372   5.098  13.419  0.5599  0.1087 -0.6549
 7906TIP3    H145133   3.439   5.062  13.477 -0.5340 -0.6693  0.1507
 7906TIP3    H245134   3.291   5.089  13.468 -0.5248 -1.4090 -2.6601
 7907TIP3   OH245135   0.706   2.370  13.711 -0.4904 -0.3549 -0.6607
 7907TIP3    H145136   0.633   2.398  13.655 -1.5530 -0.8688  0.4590
 7907TIP3    H245137   0.717   2.277  13.690 -1.0904 -0.6250  0.1827
 7908TIP3   OH245138   0.568   2.480   6.334 -0.0765 -0.4296 -0.3156
 7908TIP3    H145139   0.573   2.425   6.255  0.5676  0.1712 -0.6988
 7908TIP3    H245140   0.659   2.496   6.357 -0.2300  1.8276 -1.1631
 7909TIP3   OH245141   2.242   1.008   3.719  0.2750 -0.2128  0.3522
 7909TIP3    H145142   2.204   0.964   3.643 -1.4868 -1.5012  1.9270
 7909TIP3    H245143   2.187   1.086   3.731 -1.0768 -1.3503  1.7970
 7910TIP3   OH245144   6.496   5.626   4.581 -0.4198 -0.2798  0.1105
 7910TIP3    H145145   6.590   5.631   4.600 -0.5899  1.8659  0.5771
 7910TIP3    H245146   6.486   5.547   4.529  1.3085 -1.7510  1.9479
 7911TIP3   OH245147   2.928   3.928  12.841 -0.3692  0.1444 -0.1094
 7911TIP3    H145148   2.948   3.932  12.747 -0.0461 -2.9947 -0.2269
 7911TIP3    H245149   3.012   3.910  12.882 -0.6022  0.9909  0.7505
 7912TIP3   OH245150   3.786   0.597  12.745  0.1395 -0.1177  0.0069
 7912TIP3    H145151   3.784   0.604  12.649  1.7359 -0.3801 -0.0634
 7912TIP3    H245152   3.774   0.504  12.762  0.3168 -0.1370  0.0325
 7913TIP3   OH245153   2.721   0.002  16.313  0.4847 -0.2240  0.4588
 7913TIP3    H145154   2.735   0.065  16.242  0.0727  0.9804  1.4298
 7913TIP3    H245155   2.691  -0.078  16.269  0.7249  0.3452 -0.7560
 7914TIP3   OH245156   4.484   4.452  13.093  0.1288 -0.4781 -0.1938
 7914TIP3    H145157   4.538   4.389  13.045 -0.4550 -0.6869 -0.5800
 7914TIP3    H245158   4.394   4.420  13.083 -0.0875 -0.0382  0.2995
 7915TIP3   OH245159   6.483   1.222  16.080 -0.4060 -0.0575  0.0544
 7915TIP3    H145160   6.468   1.129  16.063 -1.0778  0.2304 -0.9805
 7915TIP3    H245161   6.556   1.246  16.023 -0.1635  0.0283  0.4003
 7916TIP3   OH245162   6.515   2.687  14.959  0.0243 -0.6689 -0.4115
 7916TIP3    H145163   6.464   2.648  15.030 -0.8142  0.7982 -0.1956
 7916TIP3    H245164   6.600   2.642  14.963 -0.1618 -0.9053  1.2360
 7917TIP3   OH245165   3.708   3.204  14.276 -0.2235  1.0979  0.5510
 7917TIP3    H145166   3.766   3.134  14.308 -0.9271  1.1576  1.9582
 7917TIP3    H245167   3.760   3.284  14.285 -0.2548  1.0545  1.0960
 7918TIP3   OH245168   2.411   0.055   6.167 -0.3559  0.3314  0.5762
 7918TIP3    H145169   2.399  -0.038   6.148 -0.4473  0.8174 -1.9110
 7918TIP3    H245170   2.337   0.078   6.224 -1.4867 -0.6798 -0.4488
 7919TIP3   OH245171   6.481   2.194   1.693 -0.1174  0.2002 -0.0922
 7919TIP3    H145172   6.523   2.220   1.774  1.6409 -0.0647 -0.9053
 7919TIP3    H245173   6.394   2.164   1.720  0.8723 -1.0337  1.8411
 7920TIP3   OH245174   1.548   3.749   0.847 -0.1101  0.0111 -0.3039
 7920TIP3    H145175   1.553   3.840   0.876  0.5005  0.3354 -1.3850
 7920TIP3    H245176   1.500   3.753   0.764  1.7533 -0.3650 -1.4389
 7921TIP3   OH245177   3.716   6.193  11.872  0.4387  0.1685  0.1483
 7921TIP3    H145178   3.693   6.125  11.808 -0.1186  0.3025  0.2059
 7921TIP3    H245179   3.809   6.180  11.888  0.3849 -0.4369 -0.0199
 7922TIP3   OH245180   3.197   1.317   4.217  0.5259 -0.6700 -0.4122
 7922TIP3    H145181   3.115   1.302   4.170 -1.0272  1.5186  1.4782
 7922TIP3    H245182   3.191   1.263   4.295  0.1440  0.7389  0.5446
 7923TIP3   OH245183   3.221   3.630  15.571  0.5516  0.8430  0.1062
 7923TIP3    H145184   3.244   3.577  15.494  0.2511  1.8472 -0.6912
 7923TIP3    H245185   3.168   3.571  15.625  0.6387  0.1678 -0.5247
 7924TIP3   OH245186   1.753   1.946   1.122  0.1133 -0.4757 -0.3006
 7924TIP3    H145187   1.756   1.852   1.105  3.9670 -0.5043  0.0975
 7924TIP3    H245188   1.784   1.986   1.041 -0.3692  0.4159 -0.0558
 7925TIP3   OH245189   0.117   1.228  14.663 -0.1738 -0.3524  0.0183
 7925TIP3    H145190   0.092   1.284  14.589  0.2402  1.6118  1.3234
 7925TIP3    H245191   0.211   1.215  14.652  0.1181  0.9488  0.8306
 7926TIP3   OH245192   3.065   3.422  15.199 -0.0808  0.5609  0.1423
 7926TIP3    H145193   3.148   3.460  15.227 -0.3249  0.8474  0.4831
 7926TIP3    H245194   3.012   3.496  15.171 -0.0161  0.3210 -0.6124
 7927TIP3   OH245195   3.062   4.887  15.622  0.1538  0.2319 -0.3710
 7927TIP3    H145196   3.074   4.980  15.641  0.8835  0.2771 -1.0351
 7927TIP3    H245197   2.968   4.876  15.614  0.1328  1.1589 -1.4966
 7928TIP3   OH245198   1.186   3.121   2.469  0.0186 -0.0708  0.8248
 7928TIP3    H145199   1.267   3.080   2.438  0.0933  0.5961  0.1182
 7928TIP3    H245200   1.127   3.115   2.393 -0.4369 -0.1281  1.1828
 7929TIP3   OH245201   1.823   4.298   3.079  0.5112 -0.4397  0.3204
 7929TIP3    H145202   1.897   4.240   3.062  3.0588  3.1012 -1.3306
 7929TIP3    H245203   1.850   4.349   3.155 -0.1860  0.9970 -0.3831
 7930TIP3   OH245204   2.017   1.385   0.905  0.2565  0.8682 -0.3292
 7930TIP3    H145205   2.087   1.324   0.885  0.2262  0.4792  0.7230
 7930TIP3    H245206   2.061   1.464   0.936  0.2326  0.6734  0.1999
 7931TIP3   OH245207   4.265   6.356  11.405 -0.3157 -0.2423 -0.1816
 7931TIP3    H145208   4.319   6.430  11.377 -0.4801 -0.4575 -1.0823
 7931TIP3    H245209   4.177   6.377  11.375 -1.5417  1.8030  4.3857
 7932TIP3   OH245210   3.031   5.152  15.737 -0.2201  0.1223 -0.3147
 7932TIP3    H145211   3.053   5.217  15.803  1.2465  0.0476 -0.6917
 7932TIP3    H245212   2.937   5.137  15.747  0.1424 -0.6629  2.4383
 7933TIP3   OH245213   3.559   1.797   4.394  0.5962 -0.2117 -0.1821
 7933TIP3    H145214   3.531   1.707   4.411 -0.3325 -0.0481 -0.7988
 7933TIP3    H245215   3.477   1.846   4.385  1.0886  0.5005 -0.8331
 7934TIP3   OH245216   2.631   1.181  15.200  0.2501 -0.1469 -0.1463
 7934TIP3    H145217   2.679   1.104  15.233  0.1122 -0.0032  0.4064
 7934TIP3    H245218   2.693   1.253  15.209  1.2696 -0.6009 -3.0052
 7935TIP3   OH245219   3.784   5.331   3.560  0.3797  0.0527  0.4297
 7935TIP3    H145220   3.727   5.346   3.636 -0.0537  0.6533 -0.0082
 7935TIP3    H245221   3.724   5.302   3.491  0.6144  0.6081 -0.0092
 7936TIP3   OH245222   0.892   2.372  14.444  0.0798 -0.3702 -0.0112
 7936TIP3    H145223   0.802   2.381  14.473  1.0118 -0.6192  3.1122
 7936TIP3    H245224   0.900   2.280  14.418 -1.1104  0.1641 -2.3694
 7937TIP3   OH245225   1.053   1.554  12.817  0.7078 -0.0060  0.0789
 7937TIP3    H145226   1.051   1.621  12.885 -2.7300  1.1134 -1.0332
 7937TIP3    H245227   0.968   1.509  12.824  0.8078 -0.7162 -2.6265
 7938TIP3   OH245228   3.520   3.732   2.977 -0.3441  0.4530 -0.7253
 7938TIP3    H145229   3.527   3.723   2.882 -1.2319 -1.0904 -0.6770
 7938TIP3    H245230   3.465   3.658   3.003  1.6252 -0.3773  1.2175
 7939TIP3   OH245231   4.758   0.355  15.209 -0.2117  0.2613 -0.4092
 7939TIP3    H145232   4.839   0.403  15.194 -0.0830  0.0521 -0.3888
 7939TIP3    H245233   4.773   0.270  15.168 -0.4231  0.2238 -0.4101
 7940TIP3   OH245234   6.348   6.001   4.730  0.3404 -0.1396  0.3409
 7940TIP3    H145235   6.275   6.045   4.686  0.0256  1.2802  2.1757
 7940TIP3    H245236   6.306   5.942   4.792  0.7690 -0.7512  0.0508
 7941TIP3   OH245237   4.380   1.226  13.322  0.0914  0.7025 -0.0883
 7941TIP3    H145238   4.319   1.179  13.264  0.0854  0.6275 -0.0211
 7941TIP3    H245239   4.424   1.157  13.371  0.1682  0.7619 -0.0740
 7942TIP3   OH245240   4.977   4.245   6.574 -0.2017  0.6337 -0.6784
 7942TIP3    H145241   5.022   4.325   6.601 -0.6843  1.3550 -1.9807
 7942TIP3    H245242   4.886   4.273   6.558 -0.7871 -0.5136  0.4948
 7943TIP3   OH245243   2.587   1.059  14.833  0.2687  0.5995  0.3321
 7943TIP3    H145244   2.572   0.966  14.816  0.5843  0.7050 -0.5614
 7943TIP3    H245245   2.669   1.062  14.882  1.1996  0.5070 -1.1621
 7944TIP3   OH245246   4.923   5.030  13.491 -0.2915 -0.0152  0.6922
 7944TIP3    H145247   5.008   5.072  13.492 -0.3093  0.0512  0.0037
 7944TIP3    H245248   4.866   5.087  13.543 -0.7279  1.7243 -1.6066
 7945TIP3   OH245249   1.977   4.917   3.638  0.1276 -0.0155 -0.1289
 7945TIP3    H145250   2.056   4.936   3.588  0.5406  0.2346  0.6086
 7945TIP3    H245251   1.905   4.936   3.577  0.6082  0.8571 -0.4322
 7946TIP3   OH245252   6.671   0.738   2.699  0.3732  0.3473  0.0991
 7946TIP3    H145253   6.752   0.787   2.716 -0.4663  1.0702  2.0996
 7946TIP3    H245254   6.614   0.801   2.656  0.2001  0.3903  0.3909
 7947TIP3   OH245255   2.881   5.546  14.797  0.2660  0.4075 -0.4187
 7947TIP3    H145256   2.836   5.521  14.717  0.5253  0.6325 -0.6373
 7947TIP3    H245257   2.919   5.464  14.830 -3.4763 -0.5559  1.8436
 7948TIP3   OH245258   4.298   1.212  16.275 -0.9518 -0.1872  0.1810
 7948TIP3    H145259   4.213   1.248  16.248 -1.1340 -1.0423 -0.3832
 7948TIP3    H245260   4.313   1.138  16.216 -1.7820 -2.6565  2.9395
 7949TIP3   OH245261   4.427   2.559  14.723 -0.3312  0.3957 -0.5059
 7949TIP3    H145262   4.459   2.522  14.806 -0.0553 -1.6476 -1.4796
 7949TIP3    H245263   4.506   2.590  14.678 -0.2681 -0.1041 -0.7486
 7950TIP3   OH245264   6.228   5.310   3.388  0.5284 -0.5080 -0.0109
 7950TIP3    H145265   6.143   5.289   3.428  0.2674 -1.0930 -0.8662
 7950TIP3    H245266   6.266   5.375   3.447  0.2715 -1.5668  1.3290
 7951TIP3   OH245267   5.542   5.000   0.243  0.0897 -0.2252 -0.2883
 7951TIP3    H145268   5.503   5.056   0.310  0.0657 -1.5063  0.7829
 7951TIP3    H245269   5.598   4.939   0.292  1.1193 -0.3211 -1.5467
 7952TIP3   OH245270   6.367   5.326  16.078 -0.0564  0.1414  0.0873
 7952TIP3    H145271   6.424   5.327  16.155  2.4008 -0.9818 -1.6422
 7952TIP3    H245272   6.414   5.271  16.014 -2.9238 -0.5507 -1.5348
 7953TIP3   OH245273   0.868   1.555   2.922 -0.1050 -0.4150 -0.5584
 7953TIP3    H145274   0.846   1.542   2.829 -0.9435 -2.2778 -0.1312
 7953TIP3    H245275   0.787   1.588   2.961  0.3045  0.5567 -0.5124
 7954TIP3   OH245276   0.927   3.026  13.587  0.2557 -0.4485 -0.0820
 7954TIP3    H145277   0.848   3.000  13.636 -0.4806 -0.2819 -1.1565
 7954TIP3    H245278   0.917   2.983  13.502  1.9706 -1.4733  0.2283
 7955TIP3   OH245279   4.907   4.898  16.579 -0.1767  0.1815  0.5818
 7955TIP3    H145280   4.871   4.980  16.545  2.3328  1.1229  0.1377
 7955TIP3    H245281   4.873   4.830  16.521  1.6770  1.4505 -2.0593
 7956TIP3   OH245282   2.045   2.158  16.922 -0.1744 -0.1322  0.1540
 7956TIP3    H145283   2.066   2.114  17.004  0.1361  0.9249  0.6512
 7956TIP3    H245284   1.998   2.237  16.949  0.4859  0.5395 -0.6498
 7957TIP3   OH245285   4.412   5.710  12.055 -0.1236 -0.8132  0.6427
 7957TIP3    H145286   4.478   5.706  11.986  1.3119 -0.5328  1.9728
 7957TIP3    H245287   4.336   5.750  12.013  0.8961 -0.1767 -0.6454
 7958TIP3   OH245288   4.318   5.405  14.688 -0.4460  0.5403 -0.4328
 7958TIP3    H145289   4.406   5.425  14.721 -0.5442  0.4909 -0.1419
 7958TIP3    H245290   4.305   5.468  14.617 -0.3661  0.8701 -0.1598
 7959TIP3   OH245291   5.716   2.577   0.251 -0.0600  0.0144 -0.6355
 7959TIP3    H145292   5.654   2.625   0.196  1.5469  3.5056  0.5003
 7959TIP3    H245293   5.695   2.604   0.340  2.4176  0.4716 -0.1687
 7960TIP3   OH245294   5.724   0.743  14.645 -0.1451  0.2398  0.4181
 7960TIP3    H145295   5.653   0.807  14.646  0.2524  0.7096 -0.8778
 7960TIP3    H245296   5.764   0.752  14.559  2.2699  0.8318  1.5452
 7961TIP3   OH245297   4.881   5.144   0.639  0.2112 -0.1482  0.0419
 7961TIP3    H145298   4.832   5.062   0.647 -0.5868  0.2364 -0.8819
 7961TIP3    H245299   4.960   5.120   0.591 -0.9121 -0.0253 -1.9006
 7962TIP3   OH245300   1.630   2.710  15.510 -0.0142  0.2605  0.0580
 7962TIP3    H145301   1.694   2.655  15.554  0.0965 -0.8036 -1.3843
 7962TIP3    H245302   1.545   2.677  15.537  0.0318  1.1720  1.3573
 7963TIP3   OH245303   5.474   6.107  11.812  0.1276 -0.5610  0.4579
 7963TIP3    H145304   5.423   6.135  11.737  1.2592 -1.7653 -0.7972
 7963TIP3    H245305   5.538   6.178  11.825 -0.2255 -0.2369  0.4373
 7964TIP3   OH245306   4.508   0.196  15.203  0.3558 -0.5512  0.1433
 7964TIP3    H145307   4.598   0.229  15.210 -0.2406  1.9289 -2.5573
 7964TIP3    H245308   4.505   0.153  15.118 -1.3290  0.5560 -0.3908
 7965TIP3   OH245309   5.382   0.860   5.390 -0.3276 -0.1821  0.3690
 7965TIP3    H145310   5.471   0.895   5.379 -0.3610  0.1457  1.1184
 7965TIP3    H245311   5.328   0.913   5.331  0.1584 -1.1532 -0.9710
 7966TIP3   OH245312   1.102   5.535  13.930  0.2046  0.1543  0.1697
 7966TIP3    H145313   1.072   5.476  13.860 -0.0359 -0.4355  0.7658
 7966TIP3    H245314   1.198   5.536  13.920  0.2272 -0.4759  0.2548
 7967TIP3   OH245315   6.009   2.221   0.270  0.5491 -0.5077  0.3104
 7967TIP3    H145316   5.958   2.140   0.272  1.4795 -1.1374 -1.4063
 7967TIP3    H245317   5.948   2.286   0.234 -0.0285 -0.5400  1.2037
 7968TIP3   OH245318   0.859   1.332  13.081 -0.4504 -0.2203 -0.1668
 7968TIP3    H145319   0.880   1.381  13.161  0.4603  0.3537 -0.7493
 7968TIP3    H245320   0.774   1.365  13.054 -0.6557 -0.2485  0.4306
 7969TIP3   OH245321   5.258   1.576  14.698  0.3696  0.5086 -0.5089
 7969TIP3    H145322   5.321   1.589  14.769  0.5840  0.8593 -0.7573
 7969TIP3    H245323   5.220   1.490  14.714  0.8257  0.3485 -0.2874
 7970TIP3   OH245324   4.081   6.493  15.509 -0.4509  0.6365  0.6900
 7970TIP3    H145325   4.147   6.440  15.463 -0.4892  0.5767  0.7039
 7970TIP3    H245326   4.085   6.579  15.466  0.3132  0.9263  1.3164
 7971TIP3   OH245327   6.244   3.417   6.393  0.2291  0.1067  0.2510
 7971TIP3    H145328   6.313   3.483   6.398 -0.4434  0.9836 -1.5419
 7971TIP3    H245329   6.173   3.461   6.346 -0.5892 -1.6064 -0.1331
 7972TIP3   OH245330   4.437   4.374  10.753  0.1099 -0.4280 -0.2540
 7972TIP3    H145331   4.507   4.439  10.750  0.7818 -1.0724  1.0636
 7972TIP3    H245332   4.479   4.295  10.787 -0.7475 -1.4929 -1.5919
 7973TIP3   OH245333   1.446   1.756  16.937  0.2881  0.4679 -0.3149
 7973TIP3    H145334   1.357   1.789  16.947 -0.6667 -1.7241 -1.2509
 7973TIP3    H245335   1.484   1.762  17.025 -1.1823  0.2954  0.3382
 7974TIP3   OH245336   6.117   1.324  12.605 -0.0892 -0.1194 -0.7935
 7974TIP3    H145337   6.164   1.383  12.664 -1.2600  1.9118 -1.8171
 7974TIP3    H245338   6.176   1.312  12.531 -0.1312  0.3550 -0.9053
 7975TIP3   OH245339   6.158   2.061  13.335  0.1762  0.2197  0.1801
 7975TIP3    H145340   6.208   2.114  13.398 -0.6136  2.0396 -0.6680
 7975TIP3    H245341   6.072   2.050  13.377  0.0679  0.3396 -0.0104
 7976TIP3   OH245342   5.725   4.494  12.632 -0.3593  0.6791  0.9103
 7976TIP3    H145343   5.684   4.440  12.701  0.7881 -0.1188  0.9824
 7976TIP3    H245344   5.814   4.510  12.664  0.2414  0.1498 -0.4577
 7977TIP3   OH245345   2.359   1.009   2.989  0.0782 -0.6573  0.3190
 7977TIP3    H145346   2.437   0.956   3.002 -0.0071 -0.7383  0.5003
 7977TIP3    H245347   2.342   1.004   2.895  1.0137  0.3879  0.0918
 7978TIP3   OH245348   0.406   6.059   0.622  0.3102 -0.0877  0.1909
 7978TIP3    H145349   0.365   6.078   0.537 -2.0251 -2.6678  0.6269
 7978TIP3    H245350   0.500   6.062   0.605 -0.1092  0.6421 -2.2077
 7979TIP3   OH245351   0.856   3.295   0.585  0.4796  0.5296  0.2115
 7979TIP3    H145352   0.834   3.202   0.580 -1.9409  0.9588  1.7373
 7979TIP3    H245353   0.875   3.320   0.494  0.3780 -1.2652 -0.3237
 7980TIP3   OH245354   1.911   1.022  16.660  0.0699 -0.5046 -0.4900
 7980TIP3    H145355   1.819   0.998  16.666  0.2478 -1.0076  0.2579
 7980TIP3    H245356   1.952   0.981  16.736  0.9313 -0.3702 -0.8744
 7981TIP3   OH245357   2.644   2.514  15.730  0.0323 -0.3004  0.3047
 7981TIP3    H145358   2.606   2.531  15.644  1.9994  2.5984 -0.0738
 7981TIP3    H245359   2.585   2.451  15.770 -1.9848 -0.2534 -2.4220
 7982TIP3   OH245360   0.630   3.674   6.537  0.1164  0.1362  0.2371
 7982TIP3    H145361   0.603   3.667   6.628  0.0732  1.6037  0.3538
 7982TIP3    H245362   0.725   3.684   6.541  0.2660 -1.1734  0.0411
 7983TIP3   OH245363   2.354   1.343  16.254  0.0153 -0.6159  0.2676
 7983TIP3    H145364   2.449   1.355  16.246  0.3505 -2.9370  0.6005
 7983TIP3    H245365   2.344   1.274  16.319 -1.9678  0.7092  1.3961
 7984TIP3   OH245366   0.251   3.179   5.665 -0.2081 -0.5876 -0.2199
 7984TIP3    H145367   0.329   3.190   5.719  0.2897 -0.8937 -0.8792
 7984TIP3    H245368   0.190   3.246   5.697  0.2721 -0.4338  0.3761
 7985TIP3   OH245369   0.191   5.477   0.045 -0.0891 -0.2277 -0.2749
 7985TIP3    H145370   0.163   5.544   0.107 -1.4380 -0.4037 -0.6666
 7985TIP3    H245371   0.235   5.411   0.098  3.1387  1.9586 -0.1533
 7986TIP3   OH245372   1.637   5.900  14.564  0.3118 -0.3158 -0.1801
 7986TIP3    H145373   1.561   5.894  14.622 -0.6996 -0.6375 -1.5116
 7986TIP3    H245374   1.647   5.994  14.548 -0.6836 -0.3601 -1.1185
 7987TIP3   OH245375   5.686   6.783  14.477  0.2868 -0.3978  0.4282
 7987TIP3    H145376   5.623   6.849  14.506  1.1108  1.2284 -1.4162
 7987TIP3    H245377   5.757   6.833  14.438  0.2977 -2.4006 -2.2612
 7988TIP3   OH245378   0.499   4.315  13.005  0.4588  0.1768 -0.5072
 7988TIP3    H145379   0.490   4.394  13.058  0.7044 -0.7685  0.9820
 7988TIP3    H245380   0.580   4.328  12.956  0.4324  0.9035 -0.3641
 7989TIP3   OH245381   0.107   1.659  11.287 -0.0310  0.4023 -0.4654
 7989TIP3    H145382   0.061   1.658  11.203 -0.8262  1.5978 -0.0618
 7989TIP3    H245383   0.144   1.571  11.295  1.2973  0.7025 -2.7284
 7990TIP3   OH245384   5.531   2.789   3.239  0.2306 -0.0733 -0.2742
 7990TIP3    H145385   5.450   2.839   3.246 -1.2750 -2.7123  2.0864
 7990TIP3    H245386   5.562   2.807   3.150 -1.7886  2.6348 -0.5028
 7991TIP3   OH245387   2.203   3.771   3.112  0.2567  0.8349  0.3250
 7991TIP3    H145388   2.251   3.845   3.149  0.8007  0.1215  1.0593
 7991TIP3    H245389   2.263   3.733   3.049 -1.3177  3.1419 -2.7440
 7992TIP3   OH245390   6.167   2.979  11.448  0.0256  0.2181 -0.3499
 7992TIP3    H145391   6.223   2.930  11.388  1.4019  1.6354 -0.2668
 7992TIP3    H245392   6.103   2.915  11.480  1.9863 -1.5971  0.0261
 7993TIP3   OH245393   4.578   0.887   2.269  0.2751 -0.0135  0.1503
 7993TIP3    H145394   4.580   0.971   2.223 -0.6961 -0.6304 -1.0579
 7993TIP3    H245395   4.597   0.909   2.360  0.7349  1.4233 -0.2817
 7994TIP3   OH245396   4.900   3.170   0.212 -0.4576 -0.0454 -0.2701
 7994TIP3    H145397   4.980   3.137   0.252  0.4254  1.2644 -0.9163
 7994TIP3    H245398   4.887   3.115   0.135  0.9521  1.0032 -1.2868
 7995TIP3   OH245399   6.157   5.140  15.220 -0.1303  0.2127 -0.8177
 7995TIP3    H145400   6.127   5.229  15.237 -0.9616 -0.0204 -1.0398
 7995TIP3    H245401   6.250   5.149  15.201 -0.0978  0.9689 -0.2886
 7996TIP3   OH245402   0.001   3.622   0.452 -0.2821 -0.0868 -0.4978
 7996TIP3    H145403   0.011   3.557   0.383 -0.5544 -1.4061  0.6770
 7996TIP3    H245404   0.022   3.705   0.410  0.1710 -0.9384 -1.9985
 7997TIP3   OH245405   1.735   1.615  12.681 -0.0521 -0.0599 -0.3143
 7997TIP3    H145406   1.674   1.671  12.729 -0.0457 -0.0150 -0.3597
 7997TIP3    H245407   1.772   1.557  12.748  1.5752  1.4315  0.1085
 7998TIP3   OH245408   6.358   0.316   6.257 -0.3314  0.0664  0.0650
 7998TIP3    H145409   6.306   0.384   6.215  0.4844  0.6750  0.0044
 7998TIP3    H245410   6.448   0.349   6.251 -0.0759 -0.3925  1.2200
 7999TIP3   OH245411   6.415   0.260  11.828  0.7312  0.6185 -0.3637
 7999TIP3    H145412   6.371   0.249  11.912 -1.0900 -0.6583 -1.4542
 7999TIP3    H245413   6.370   0.333  11.786  1.8578  1.4737 -0.1251
 8000TIP3   OH245414   5.636   2.520   2.412  0.5879 -0.7875 -0.0271
 8000TIP3    H145415   5.641   2.493   2.504  0.6735 -1.2063 -0.1548
 8000TIP3    H245416   5.570   2.463   2.373  0.6199 -0.6747 -0.2514
 8001TIP3   OH245417   1.201   0.444   4.313  0.2377 -0.4503 -0.2872
 8001TIP3    H145418   1.246   0.361   4.325  0.8003 -0.6827 -3.5604
 8001TIP3    H245419   1.159   0.437   4.227 -0.5693  2.2336 -0.1644
 8002TIP3   OH245420   3.788   5.936  14.153  0.4230 -0.4501  0.0484
 8002TIP3    H145421   3.877   5.971  14.154  0.7788 -1.3441  0.0806
 8002TIP3    H245422   3.750   5.965  14.236  1.4870 -2.0882  1.1432
 8003TIP3   OH245423   3.822   6.273  13.368  0.1988 -0.5597  1.2277
 8003TIP3    H145424   3.736   6.293  13.332  1.1216 -2.5856 -2.4339
 8003TIP3    H245425   3.848   6.352  13.415 -1.7875  1.7733 -1.4373
 8004TIP3   OH245426   2.283   2.592   0.696  0.0137  0.3539 -0.0116
 8004TIP3    H145427   2.307   2.678   0.663  3.0518 -0.9740 -1.4877
 8004TIP3    H245428   2.202   2.570   0.650  0.5137  1.4214 -1.4429
 8005TIP3   OH245429   3.976   2.170  16.146 -0.0302 -0.4001  0.2718
 8005TIP3    H145430   4.034   2.153  16.072 -0.4194  1.3124 -0.4565
 8005TIP3    H245431   4.004   2.109  16.213  2.1314 -0.1046 -0.3281
 8006TIP3   OH245432   3.339   6.635   1.967 -0.1465  0.0839  0.0689
 8006TIP3    H145433   3.279   6.625   1.893  0.0808 -2.5272  0.2079
 8006TIP3    H245434   3.305   6.712   2.014 -1.9743  0.0775 -1.1699
 8007TIP3   OH245435   2.886   0.167   0.616 -0.0726  0.1971  0.6193
 8007TIP3    H145436   2.960   0.224   0.601  1.3297 -1.2217  1.9628
 8007TIP3    H245437   2.821   0.222   0.659 -0.1848  1.6770 -1.3887
 8008TIP3   OH245438   2.657   0.923   4.995 -0.2621  0.4565 -0.2770
 8008TIP3    H145439   2.665   0.947   5.087 -0.5638 -0.7006  0.0646
 8008TIP3    H245440   2.601   0.990   4.957 -3.5259 -1.2402  1.2869
 8009TIP3   OH245441   5.575   4.761  12.208 -0.5126  0.2957  0.2147
 8009TIP3    H145442   5.659   4.800  12.183 -0.8665 -0.6360 -2.7229
 8009TIP3    H245443   5.595   4.709  12.285  1.3479  1.0318  0.2766
 8010TIP3   OH245444   5.831   6.536  12.075 -0.6199  0.5182  0.4967
 8010TIP3    H145445   5.796   6.559  11.989  0.5794 -1.9508 -0.7292
 8010TIP3    H245446   5.794   6.449  12.093  0.6797  0.1758  1.5855
 8011TIP3   OH245447   1.072   3.139   5.726  0.0680  0.0333  0.6216
 8011TIP3    H145448   1.157   3.111   5.760  0.0092  0.1317  0.8516
 8011TIP3    H245449   1.043   3.207   5.787  0.2393  0.6378  0.0377
 8012TIP3   OH245450   0.100   1.052   4.945  0.0625  0.0372 -0.0159
 8012TIP3    H145451   0.072   1.140   4.918 -0.4586 -0.0130  0.3470
 8012TIP3    H245452   0.180   1.036   4.896 -1.0490 -0.1860 -1.7796
 8013TIP3   OH245453   3.839   0.847   0.669  0.1391  0.0929  0.1538
 8013TIP3    H145454   3.853   0.797   0.750 -0.4755  0.7772  0.6948
 8013TIP3    H245455   3.745   0.843   0.654  0.3219 -0.5260 -0.8584
 8014TIP3   OH245456   1.255   4.927   4.910  0.0435 -0.4502  0.3031
 8014TIP3    H145457   1.272   4.983   4.834 -0.1708 -0.7523  0.0309
 8014TIP3    H245458   1.159   4.921   4.913  0.0692 -0.8985  0.2593
 8015TIP3   OH245459   4.323   2.271   3.427 -0.0543  0.1875 -0.1033
 8015TIP3    H145460   4.397   2.332   3.427 -0.4084  0.6323  1.2385
 8015TIP3    H245461   4.347   2.204   3.491 -1.0998  0.6790  0.8044
 8016TIP3   OH245462   5.213   2.857   4.187  0.2484  0.2235  0.1087
 8016TIP3    H145463   5.243   2.939   4.146 -0.8499  1.3308  1.4818
 8016TIP3    H245464   5.293   2.812   4.213  0.8931  0.3868 -1.5573
 8017TIP3   OH245465   3.469   5.232  13.699 -0.2290 -0.2215  0.2891
 8017TIP3    H145466   3.476   5.322  13.729 -1.8278  0.4393 -1.2236
 8017TIP3    H245467   3.549   5.216  13.650 -0.4846  0.8096 -0.4854
 8018TIP3   OH245468   6.444   2.924  16.673  0.2115  0.0488  0.1848
 8018TIP3    H145469   6.498   2.867  16.728 -0.7359 -0.7483  0.3023
 8018TIP3    H245470   6.507   2.972  16.619  0.9901 -1.7234 -0.5063
 8019TIP3   OH245471   2.271   4.367   3.839  0.7545  0.1088  0.2290
 8019TIP3    H145472   2.271   4.462   3.850 -0.8526 -0.1126  2.3461
 8019TIP3    H245473   2.180   4.341   3.850  1.3426 -1.7912  0.7996
 8020TIP3   OH245474   5.914   6.427  14.374 -0.1362 -0.0148 -0.2303
 8020TIP3    H145475   5.865   6.452  14.452 -1.2589 -4.6332  0.7134
 8020TIP3    H245476   5.848   6.417  14.306  0.1976 -0.7433 -0.4554
 8021TIP3   OH245477   3.413   3.761  13.021  0.3362 -0.1909 -0.0497
 8021TIP3    H145478   3.385   3.741  13.110 -0.5620 -0.7943 -0.4585
 8021TIP3    H245479   3.475   3.691  12.999  0.9448  0.2442  0.2833
 8022TIP3   OH245480   3.436   0.221  11.900  0.6341  0.0091  0.6141
 8022TIP3    H145481   3.386   0.197  11.822 -0.0307  0.3169  0.9383
 8022TIP3    H245482   3.413   0.155  11.965 -1.2678  1.4941  1.5343
 8023TIP3   OH245483   2.816   6.203   4.799 -0.1173  0.0301 -0.1460
 8023TIP3    H145484   2.880   6.209   4.869 -0.8274 -2.0749  0.7317
 8023TIP3    H245485   2.754   6.274   4.816  0.6631  0.5852  0.3669
 8024TIP3   OH245486   2.643   3.500   0.139  0.0368 -0.3513 -0.1513
 8024TIP3    H145487   2.633   3.462   0.227 -1.9280  0.4478 -0.0050
 8024TIP3    H245488   2.710   3.446   0.097 -1.8081 -3.2326  0.4673
 8025TIP3   OH245489   6.722   4.366  13.828  0.1231  0.3180  0.3340
 8025TIP3    H145490   6.663   4.435  13.797  0.5673  0.4916 -0.1403
 8025TIP3    H245491   6.799   4.414  13.859  0.4063  0.0358  0.0670
 8026TIP3   OH245492   2.838   1.632  10.782  0.0538 -0.5057  0.4151
 8026TIP3    H145493   2.917   1.583  10.761  0.1545 -0.4843  0.7402
 8026TIP3    H245494   2.766   1.571  10.765  0.1422 -0.5390  0.1642
 8027TIP3   OH245495   5.436   5.782  13.254  0.2745 -0.0581 -0.4414
 8027TIP3    H145496   5.459   5.871  13.226  2.0279 -0.2123  0.4484
 8027TIP3    H245497   5.514   5.750  13.298 -0.1709 -2.2572 -1.2110
 8028TIP3   OH245498   0.190   0.072  14.100 -0.5186  0.2572  0.6234
 8028TIP3    H145499   0.198   0.168  14.093 -1.5239  0.3106 -0.0698
 8028TIP3    H245500   0.267   0.038  14.054 -0.6922  0.7336 -0.0337
 8029TIP3   OH245501   3.553   5.534  12.420 -0.0980 -0.3670 -0.0294
 8029TIP3    H145502   3.536   5.550  12.327  0.3226 -0.8013 -0.1846
 8029TIP3    H245503   3.649   5.534  12.427 -0.1279  0.5343  0.5612
 8030TIP3   OH245504   3.755   5.871  12.109  0.2925 -0.2903  0.2659
 8030TIP3    H145505   3.818   5.859  12.038 -0.3911  0.9644 -0.5604
 8030TIP3    H245506   3.677   5.823  12.081  0.4591 -0.8502  0.7511
 8031TIP3   OH245507   3.693   3.316   3.683  0.0336  0.1080  0.4875
 8031TIP3    H145508   3.700   3.221   3.678  4.2972  0.3225  1.1025
 8031TIP3    H245509   3.684   3.334   3.777  1.0158  0.3968  0.5282
 8032TIP3   OH245510   5.881   2.942  14.385  0.4023 -0.0430 -0.7876
 8032TIP3    H145511   5.793   2.907  14.389  0.6739 -0.4690  2.6105
 8032TIP3    H245512   5.869   3.037  14.381 -0.2165 -0.1740 -2.1081
 8033TIP3   OH245513   1.332   4.124  12.723  0.4666  0.1255 -0.1304
 8033TIP3    H145514   1.305   4.126  12.814  1.1502  0.5814  0.0720
 8033TIP3    H245515   1.363   4.034  12.709  2.0982  0.5451  0.6207
 8034TIP3   OH245516   3.576   4.284  16.479  0.2004  0.5728 -0.0688
 8034TIP3    H145517   3.491   4.278  16.436  0.7721 -1.6167 -1.0260
 8034TIP3    H245518   3.639   4.290  16.407  0.9358  0.6463  0.5674
 8035TIP3   OH245519   5.685   2.129  12.902  0.1025  0.3433 -0.2057
 8035TIP3    H145520   5.750   2.192  12.869  0.1231 -0.1079 -1.0264
 8035TIP3    H245521   5.712   2.113  12.992  0.5210  0.9672 -0.2157
 8036TIP3   OH245522   2.905   5.161  12.466 -0.4908  0.2687  1.0580
 8036TIP3    H145523   3.000   5.170  12.456 -0.3857 -1.4223  0.2399
 8036TIP3    H245524   2.870   5.186  12.380 -0.6589 -0.5433  0.8849
 8037TIP3   OH245525   0.583   3.148   3.823  0.2924  0.0497 -0.1075
 8037TIP3    H145526   0.599   3.072   3.878 -0.3383 -0.6450 -0.8642
 8037TIP3    H245527   0.510   3.121   3.766 -1.6436  2.0750  1.3053
 8038TIP3   OH245528   3.386   2.716   4.509 -0.0247 -0.0892 -0.4184
 8038TIP3    H145529   3.307   2.763   4.533 -0.7004 -0.6467 -1.4593
 8038TIP3    H245530   3.418   2.678   4.591  0.7054  2.3719  0.4876
 8039TIP3   OH245531   4.811   2.310  15.545  0.1323 -0.0548  0.1665
 8039TIP3    H145532   4.842   2.365  15.616 -1.0554 -0.7787  1.2864
 8039TIP3    H245533   4.766   2.370  15.485  2.7119  0.8259 -0.9315
 8040TIP3   OH245534   5.390   4.483  15.561 -0.0172 -0.5040  0.1660
 8040TIP3    H145535   5.423   4.523  15.480 -0.3535  1.8618  1.1611
 8040TIP3    H245536   5.461   4.495  15.624 -1.0300  0.6773  1.1087
 8041TIP3   OH245537   4.169   2.049  17.066 -0.0670  0.7098  0.1647
 8041TIP3    H145538   4.105   2.023  17.000 -0.0824 -0.7427  0.7352
 8041TIP3    H245539   4.139   2.134  17.097 -2.0415 -0.2067  0.8172
 8042TIP3   OH245540   6.737   2.202   4.978 -0.3434 -0.1041 -0.1428
 8042TIP3    H145541   6.765   2.286   5.015 -3.8738  0.4755  1.3987
 8042TIP3    H245542   6.807   2.141   5.001  1.0989  1.8719  0.8889
 8043TIP3   OH245543   2.940   5.163   3.587 -0.0134 -0.0625  0.1855
 8043TIP3    H145544   2.969   5.161   3.495 -0.9814  0.9942 -0.1435
 8043TIP3    H245545   3.003   5.220   3.631  0.1030 -0.0963  0.0637
 8044TIP3   OH245546   4.907   2.251   5.250 -0.3754  0.3002  0.3784
 8044TIP3    H145547   4.937   2.209   5.169  0.7803  3.9853 -1.1708
 8044TIP3    H245548   4.987   2.285   5.290 -1.5537  3.6027  0.0536
 8045TIP3   OH245549   1.209   2.762   0.397  0.0882 -0.3608  0.5491
 8045TIP3    H145550   1.258   2.744   0.317 -1.0796  0.0298 -0.2746
 8045TIP3    H245551   1.209   2.679   0.445  0.4272 -0.7170 -0.0618
 8046TIP3   OH245552   5.098   0.850  15.587 -0.9593  0.9085 -0.1706
 8046TIP3    H145553   5.131   0.777  15.639  1.3517  2.1761  0.1996
 8046TIP3    H245554   5.027   0.887  15.639 -0.9106  0.0702  0.4930
 8047TIP3   OH245555   3.954   2.772   2.873 -0.0963  0.2146 -1.0055
 8047TIP3    H145556   3.916   2.731   2.795 -0.2458 -1.2222 -0.2022
 8047TIP3    H245557   3.974   2.861   2.846  0.1598 -0.3582 -2.7937
 8048TIP3   OH245558   6.758   6.116   0.363 -0.0946  0.3412 -0.3077
 8048TIP3    H145559   6.715   6.131   0.279 -1.1129 -0.7801 -0.0003
 8048TIP3    H245560   6.808   6.035   0.351 -0.7155 -0.1511  0.3291
 8049TIP3   OH245561   3.910   2.452   0.293  0.5700 -0.1055 -0.3822
 8049TIP3    H145562   4.002   2.451   0.266  0.6606  0.2885 -0.0902
 8049TIP3    H245563   3.892   2.544   0.311  0.6452 -0.4212  1.3750
 8050TIP3   OH245564   0.167   5.413  16.339  0.0802 -0.3794 -0.2315
 8050TIP3    H145565   0.179   5.321  16.362 -0.1545 -0.0519  1.2486
 8050TIP3    H245566   0.256   5.445  16.323  0.1288 -0.9550 -1.1529
 8051TIP3   OH245567   4.337   0.859   1.796 -0.3041  0.4964  0.2182
 8051TIP3    H145568   4.254   0.836   1.838  0.2486 -0.5953  0.7376
 8051TIP3    H245569   4.403   0.820   1.853  0.5720  1.4525 -0.1347
 8052TIP3   OH245570   2.420   3.783   3.429  0.2403 -0.0391  0.4482
 8052TIP3    H145571   2.418   3.853   3.364  0.1954  0.5379  1.0679
 8052TIP3    H245572   2.362   3.715   3.394  0.9793 -0.1420 -0.5781
 8053TIP3   OH245573   3.601   2.563  14.094  0.3184 -0.3681  0.2692
 8053TIP3    H145574   3.629   2.549  14.004 -1.3023  0.0663 -0.3126
 8053TIP3    H245575   3.519   2.612  14.087  0.4727  0.1721  1.9921
 8054TIP3   OH245576   1.616   6.593   2.470 -0.4730  0.0452 -0.2336
 8054TIP3    H145577   1.710   6.591   2.488 -0.1600 -0.1361 -1.8040
 8054TIP3    H245578   1.611   6.599   2.375 -2.0453  1.3592 -0.0837
 8055TIP3   OH245579   2.223   0.415   5.766  0.0099  0.0830 -0.1411
 8055TIP3    H145580   2.313   0.384   5.781  0.6472  2.4560  1.0212
 8055TIP3    H245581   2.220   0.432   5.672  1.1740  1.1913  0.0099
 8056TIP3   OH245582   1.810   4.456  15.830  0.1330  1.0794  0.0504
 8056TIP3    H145583   1.796   4.508  15.751  0.8854  0.2437 -0.6343
 8056TIP3    H245584   1.813   4.366  15.800 -3.1480  0.4154  1.4598
 8057TIP3   OH245585   0.676   0.266   4.400  0.3200  0.7118  0.2628
 8057TIP3    H145586   0.741   0.290   4.465 -1.3011  0.7839  1.8890
 8057TIP3    H245587   0.631   0.190   4.437  0.0156  0.1537 -1.2131
 8058TIP3   OH245588   2.786   5.432  13.321  0.2978  0.0332 -0.0026
 8058TIP3    H145589   2.800   5.427  13.226  0.3971 -1.0035  0.0602
 8058TIP3    H245590   2.778   5.341  13.349 -1.6823  0.3779  0.6927
 8059TIP3   OH245591   0.287   2.953  10.673  0.0426 -0.6040  0.1976
 8059TIP3    H145592   0.331   3.029  10.711 -0.8449 -0.0279  0.1010
 8059TIP3    H245593   0.333   2.877  10.708 -0.7967 -0.0928  2.4691
 8060TIP3   OH245594   1.402   5.495  16.135  0.3594 -0.1157  0.5900
 8060TIP3    H145595   1.458   5.417  16.135 -1.2213 -1.2577  0.2182
 8060TIP3    H245596   1.355   5.490  16.052  0.4004  1.3598  0.4703
 8061TIP3   OH245597   5.571   2.303   3.851 -0.1280  0.0317  0.2850
 8061TIP3    H145598   5.563   2.217   3.810  1.4640 -0.0016  0.0324
 8061TIP3    H245599   5.526   2.362   3.791  1.4934 -0.1435 -1.1366
 8062TIP3   OH245600   6.110   2.594  15.805  0.6049  0.1814  0.5162
 8062TIP3    H145601   6.150   2.659  15.746 -1.0969  1.7947  1.0992
 8062TIP3    H245602   6.068   2.532  15.746  0.1626  0.9659 -0.0073
 8063TIP3   OH245603   2.256   2.629  12.179 -0.1716 -0.1197 -0.1947
 8063TIP3    H145604   2.176   2.681  12.171 -0.0034  0.6449  2.6662
 8063TIP3    H245605   2.226   2.545  12.214  0.4022  0.6945  2.3522
 8064TIP3   OH245606   0.582   0.806   2.581 -0.4166 -0.7478  0.2362
 8064TIP3    H145607   0.614   0.729   2.534 -0.6290 -2.1206  2.2584
 8064TIP3    H245608   0.645   0.819   2.651 -2.3003 -1.3133  2.1066
 8065TIP3   OH245609   1.106   5.232   1.399  0.4548  0.0286 -0.6874
 8065TIP3    H145610   1.012   5.211   1.400  0.2742  0.6948 -1.9153
 8065TIP3    H245611   1.148   5.161   1.446 -0.7078 -0.1522  0.0854
 8066TIP3   OH245612   4.552   0.648   4.903  0.7069  0.7769  0.2193
 8066TIP3    H145613   4.545   0.720   4.841 -0.8437 -1.1859 -2.0120
 8066TIP3    H245614   4.609   0.585   4.859  1.8476  0.5132  2.0229
 8067TIP3   OH245615   3.580   5.768   5.111  0.3955  0.1648 -0.1311
 8067TIP3    H145616   3.619   5.721   5.038 -0.6822 -2.2545  0.7923
 8067TIP3    H245617   3.487   5.773   5.090  0.0535 -0.6636  1.0842
 8068TIP3   OH245618   5.206   6.035   2.011 -0.0105 -0.0607  0.1129
 8068TIP3    H145619   5.188   6.033   2.105  1.1708  1.4902  0.3997
 8068TIP3    H245620   5.133   5.988   1.971 -0.2111 -1.2742  1.8496
 8069TIP3   OH245621   4.912   3.190   5.591  0.4364  0.4304  0.0453
 8069TIP3    H145622   4.971   3.173   5.665  3.0055 -0.7622 -2.2107
 8069TIP3    H245623   4.865   3.270   5.616  3.1407  1.5259  1.8165
 8070TIP3   OH245624   1.636   6.320  10.755 -0.0642 -0.0632  0.3371
 8070TIP3    H145625   1.577   6.387  10.723  0.0989 -0.1670 -0.1987
 8070TIP3    H245626   1.719   6.338  10.710 -0.0639 -0.7086  0.0620
 8071TIP3   OH245627   2.727   3.652   4.717 -0.2799  0.0137 -0.6085
 8071TIP3    H145628   2.738   3.560   4.692 -1.3327 -0.3054  0.0650
 8071TIP3    H245629   2.709   3.697   4.634 -0.2337 -0.4633 -0.8816
 8072TIP3   OH245630   3.076   0.382  14.539  0.4969  0.7911  0.0122
 8072TIP3    H145631   3.105   0.466  14.503 -0.1924  1.0395  0.0202
 8072TIP3    H245632   2.983   0.395  14.557  0.1597 -0.2749 -0.8706
 8073TIP3   OH245633   6.726   5.300   0.796  1.0549 -0.1472  0.4880
 8073TIP3    H145634   6.642   5.258   0.784  0.1616  1.0766  2.1461
 8073TIP3    H245635   6.711   5.391   0.770  2.4508 -0.4019 -1.2711
 8074TIP3   OH245636   1.263   1.927  15.027  0.0868 -0.2367  0.0060
 8074TIP3    H145637   1.239   1.893  15.113  1.5353  0.9986  0.9291
 8074TIP3    H245638   1.358   1.917  15.023  0.1937  0.9949 -0.8856
 8075TIP3   OH245639   1.919   3.799   5.617 -0.2749 -0.2904  0.6928
 8075TIP3    H145640   1.904   3.741   5.692  0.4503  0.0519  1.1071
 8075TIP3    H245641   1.931   3.886   5.655  3.1304 -0.5887  0.4689
 8076TIP3   OH245642   6.415   1.402   2.862 -0.0637  0.0172 -0.0670
 8076TIP3    H145643   6.332   1.450   2.869  0.3503  0.6842  0.3105
 8076TIP3    H245644   6.482   1.468   2.878  0.5367 -0.5635 -0.1802
 8077TIP3   OH245645   2.082   1.192   2.083 -0.3198 -0.3501 -0.6843
 8077TIP3    H145646   2.088   1.204   2.178  0.4402  0.4784 -0.8297
 8077TIP3    H245647   1.997   1.151   2.069 -0.1686 -1.0660  0.4110
 8078TIP3   OH245648   6.353   6.597   3.567  0.0997 -0.0095 -0.1120
 8078TIP3    H145649   6.269   6.617   3.525 -0.3381 -1.9473 -0.2028
 8078TIP3    H245650   6.346   6.637   3.654 -0.2180  1.3263 -0.7393
 8079TIP3   OH245651   4.639   4.931   2.995  0.1386  0.1854 -0.3191
 8079TIP3    H145652   4.579   4.944   3.068  0.8773  1.6732  0.0511
 8079TIP3    H245653   4.590   4.876   2.933 -0.6225 -0.7571  1.1059
 8080TIP3   OH245654   3.297   1.671   1.150  0.2151 -0.1334 -0.6743
 8080TIP3    H145655   3.362   1.696   1.216  1.1203  0.4143 -1.7688
 8080TIP3    H245656   3.214   1.702   1.185  0.5803 -0.5256  0.5726
 8081TIP3   OH245657   2.790   2.589   0.724 -1.0712  0.0794 -0.1997
 8081TIP3    H145658   2.868   2.538   0.747  0.6525  2.1478 -1.2226
 8081TIP3    H245659   2.784   2.582   0.629 -1.7252  0.4732 -0.1864
 8082TIP3   OH245660   5.077   2.953   2.803  0.3333  0.0388 -0.4074
 8082TIP3    H145661   5.010   3.019   2.821 -1.0326 -1.3654 -0.2077
 8082TIP3    H245662   5.053   2.879   2.859 -0.1312 -1.9049 -3.0832
 8083TIP3   OH245663   5.452   0.309   5.053 -0.0378  0.4176 -0.2365
 8083TIP3    H145664   5.408   0.384   5.092  0.9324  0.8572  0.0477
 8083TIP3    H245665   5.450   0.241   5.120  0.0125  0.5567 -0.0923
 8084TIP3   OH245666   2.273   4.142  16.201 -0.2444 -0.0447  0.6796
 8084TIP3    H145667   2.197   4.190  16.166 -0.9229 -1.6645 -0.1198
 8084TIP3    H245668   2.280   4.065  16.145  1.7622 -0.1223  1.0167
 8085TIP3   OH245669   0.868   0.400  12.060 -0.3546 -0.0917 -0.0187
 8085TIP3    H145670   0.774   0.418  12.066 -0.1540  1.0218 -0.1199
 8085TIP3    H245671   0.873   0.306  12.041 -1.4708  0.0120 -0.8982
 8086TIP3   OH245672   3.648   0.555   0.466  0.3957 -0.3512 -0.1511
 8086TIP3    H145673   3.569   0.597   0.498  1.4891  1.5928  0.0441
 8086TIP3    H245674   3.684   0.616   0.402  2.0514 -0.9495  0.1760
 8087TIP3   OH245675   5.079   5.137  15.359  0.4276 -0.6121  0.3221
 8087TIP3    H145676   5.036   5.120  15.443 -0.1447  0.6646  0.2918
 8087TIP3    H245677   5.015   5.187  15.308  0.3576 -2.2874 -1.2892
 8088TIP3   OH245678   5.278   6.400  11.282  0.4315 -0.6508  0.0273
 8088TIP3    H145679   5.204   6.433  11.231  1.3927 -0.9778 -1.6028
 8088TIP3    H245680   5.343   6.374  11.217  2.2959  0.3098  1.4474
 8089TIP3   OH245681   5.756   5.580   2.409  0.0813  0.6314 -0.0525
 8089TIP3    H145682   5.739   5.674   2.410  0.4601  0.6967  0.6756
 8089TIP3    H245683   5.788   5.562   2.320 -1.0154  0.9980 -0.5287
 8090TIP3   OH245684   2.146   2.314  14.624  0.0901  0.7988 -0.0270
 8090TIP3    H145685   2.212   2.319  14.554 -0.0538  0.4289 -0.1902
 8090TIP3    H245686   2.107   2.402  14.626  0.9664  1.1813  0.4431
 8091TIP3   OH245687   2.129   1.647   2.258  0.0020  0.0879 -0.3946
 8091TIP3    H145688   2.071   1.579   2.293  1.3859 -0.7429  0.3612
 8091TIP3    H245689   2.077   1.727   2.261 -0.7110 -0.4103  1.3997
 8092TIP3   OH245690   2.924   6.247   2.365 -0.6386 -0.0075 -0.1482
 8092TIP3    H145691   2.973   6.235   2.447 -1.8556 -0.4024  0.5343
 8092TIP3    H245692   2.951   6.173   2.310 -0.1504  0.0100  0.0666
 8093TIP3   OH245693   6.415   5.151  12.967  0.0672 -0.1632 -0.5810
 8093TIP3    H145694   6.370   5.069  12.990  1.2869 -0.5370  0.5846
 8093TIP3    H245695   6.474   5.127  12.896 -1.0122  0.1520 -1.5853
 8094TIP3   OH245696   3.455   0.567   5.961 -0.1279 -0.4320  0.1524
 8094TIP3    H145697   3.399   0.591   6.035  0.5971 -0.6684  0.7811
 8094TIP3    H245698   3.458   0.471   5.964 -1.0061 -0.4962 -0.8622
 8095TIP3   OH245699   3.589   2.429  16.965  0.1012  0.6576  1.0518
 8095TIP3    H145700   3.622   2.343  16.991  0.9895  0.2013 -1.4312
 8095TIP3    H245701   3.495   2.417  16.954  0.5673 -0.6766 -1.7430
 8096TIP3   OH245702   0.914   3.812  14.863 -0.7149 -0.3146  0.1409
 8096TIP3    H145703   0.920   3.900  14.826  1.0860  0.6369  2.5588
 8096TIP3    H245704   0.928   3.754  14.789  0.8138  1.4893 -1.0445
 8097TIP3   OH245705   2.247   1.985   0.921  0.2177 -0.5473  0.0730
 8097TIP3    H145706   2.180   1.917   0.925  1.1490 -1.4363  1.1694
 8097TIP3    H245707   2.225   2.045   0.993  0.7829 -1.0218  0.6445
 8098TIP3   OH245708   1.085   0.848  13.187  0.1295 -0.7960  0.0098
 8098TIP3    H145709   1.153   0.892  13.135 -0.1949 -1.8982 -1.3757
 8098TIP3    H245710   1.008   0.905  13.179  0.0901 -0.9456 -0.6985
 8099TIP3   OH245711   6.521   0.430  14.157  0.0003  0.1894 -0.6443
 8099TIP3    H145712   6.430   0.399  14.149  0.4905 -1.9871  1.4321
 8099TIP3    H245713   6.513   0.524  14.170 -2.0841 -0.1395  0.8236
 8100TIP3   OH245714   3.457   0.669   2.618 -0.7159 -0.4237 -0.2719
 8100TIP3    H145715   3.483   0.650   2.708 -1.7278  0.2694  0.1791
 8100TIP3    H245716   3.500   0.602   2.566  1.8417  0.5956  0.4554
 8101TIP3   OH245717   3.878   5.558   3.815  0.1323 -0.0276 -0.1279
 8101TIP3    H145718   3.876   5.470   3.850 -1.5232 -0.1381 -0.4574
 8101TIP3    H245719   3.787   5.578   3.794  0.2542  2.3244  1.3375
 8102TIP3   OH245720   5.692   4.300  14.822 -0.0923 -0.2155 -0.1418
 8102TIP3    H145721   5.619   4.281  14.882  0.4413 -0.4550  0.4398
 8102TIP3    H245722   5.749   4.358  14.872 -0.5989  1.1568 -1.1198
 8103TIP3   OH245723   0.544   0.381  12.629 -0.0682 -0.8468  0.0279
 8103TIP3    H145724   0.595   0.348  12.555  0.2183  1.2288 -0.7182
 8103TIP3    H245725   0.469   0.426  12.589  1.0432  1.8520  0.9300
 8104TIP3   OH245726   3.049   2.100  16.179  0.4470  0.1805 -0.1385
 8104TIP3    H145727   3.128   2.060  16.143 -0.3816  0.2945 -2.1645
 8104TIP3    H245728   3.080   2.174  16.231  1.8984 -2.0924  2.3049
 8105TIP3   OH245729   4.122   1.676   0.330 -0.3268 -0.2549  0.2521
 8105TIP3    H145730   4.176   1.611   0.286 -0.3329 -0.8628  1.1443
 8105TIP3    H245731   4.034   1.638   0.331 -0.3724 -0.1434  0.5912
 8106TIP3   OH245732   6.114   5.014   2.722  0.0702  0.6904  0.3801
 8106TIP3    H145733   6.053   5.087   2.710 -0.1177  0.4278 -0.2783
 8106TIP3    H245734   6.058   4.936   2.723  0.2992  0.5305  0.7939
 8107TIP3   OH245735   1.341   0.304  13.197 -0.4478 -0.0694  0.2600
 8107TIP3    H145736   1.397   0.358  13.143  0.7319 -1.0980  0.4324
 8107TIP3    H245737   1.288   0.254  13.135  0.4403 -0.7656  0.0532
 8108TIP3   OH245738   3.270   3.626   4.841  0.4545 -0.2300 -0.3457
 8108TIP3    H145739   3.300   3.703   4.889  1.3666 -0.9139  0.2082
 8108TIP3    H245740   3.175   3.629   4.847  0.5531 -0.2651  1.4362
 8109TIP3   OH245741   5.917   0.719   0.134 -0.0185 -0.3307  0.0358
 8109TIP3    H145742   5.984   0.752   0.075  1.0392 -2.2238  0.1245
 8109TIP3    H245743   5.963   0.705   0.217 -0.7391 -0.7236  0.3753
 8110TIP3   OH245744   2.073   1.514   2.632 -0.4800 -0.2609  0.3314
 8110TIP3    H145745   2.150   1.464   2.657  0.3481  1.0984  0.5232
 8110TIP3    H245746   2.078   1.594   2.683 -0.9245  0.7421 -1.1485
 8111TIP3   OH245747   2.629   5.357   1.953 -0.2063 -0.0424  0.2020
 8111TIP3    H145748   2.588   5.436   1.989  0.2388  0.1933  0.2005
 8111TIP3    H245749   2.640   5.299   2.029  1.5977  0.8276  0.6484
 8112TIP3   OH245750   2.846   5.544   1.198 -0.2092 -0.3578  0.0059
 8112TIP3    H145751   2.764   5.499   1.179 -0.6850  0.8605 -0.9630
 8112TIP3    H245752   2.843   5.623   1.144  1.1044  0.2634  0.7957
 8113TIP3   OH245753   5.835   4.784  13.758  0.0532 -0.2829 -0.4913
 8113TIP3    H145754   5.854   4.875  13.738 -3.2242  0.5471 -0.2326
 8113TIP3    H245755   5.848   4.737  13.676  1.6552  0.4140 -0.6490
 8114TIP3   OH245756   2.611   1.214  14.580 -0.2117 -0.4029  0.0629
 8114TIP3    H145757   2.626   1.183  14.669  0.7679  2.1684  0.8118
 8114TIP3    H245758   2.693   1.196  14.535 -0.2121 -0.3668  0.0473
 8115TIP3   OH245759   3.633   6.606   4.677  0.6324 -0.1690  0.2519
 8115TIP3    H145760   3.591   6.533   4.631  0.7269 -0.2479  0.2913
 8115TIP3    H245761   3.620   6.681   4.620 -2.2151  0.4674  1.6425
 8116TIP3   OH245762   2.563   1.945  11.979 -0.7328 -0.0800 -0.2891
 8116TIP3    H145763   2.478   1.912  11.949 -0.4448  0.5110 -1.7956
 8116TIP3    H245764   2.625   1.912  11.915  0.0259  0.4398  0.1795
 8117TIP3   OH245765   1.628   3.864  14.132 -0.1660 -0.3197 -0.0921
 8117TIP3    H145766   1.711   3.905  14.109 -0.0038 -0.7191 -0.2288
 8117TIP3    H245767   1.589   3.923  14.196 -0.3821  0.5345 -1.0009
 8118TIP3   OH245768   2.866   4.943   4.623  0.5674  0.3494  0.3977
 8118TIP3    H145769   2.803   4.980   4.684 -0.8986 -2.0970  0.4115
 8118TIP3    H245770   2.888   4.857   4.659  0.5044 -0.6865 -1.9047
 8119TIP3   OH245771   1.864   0.116   3.346  0.4226  0.0191 -0.1326
 8119TIP3    H145772   1.866   0.107   3.251  0.7811  0.2195 -0.1461
 8119TIP3    H245773   1.821   0.037   3.377  0.5489 -0.1720 -0.4469
 8120TIP3   OH245774   4.453   0.432   2.438  0.2568  0.1930 -0.1661
 8120TIP3    H145775   4.373   0.417   2.387 -0.2458 -0.9433  0.9385
 8120TIP3    H245776   4.476   0.346   2.474  0.1442  1.1155  2.1922
 8121TIP3   OH245777   5.629   2.230   4.118 -0.3863 -1.0400 -0.2536
 8121TIP3    H145778   5.708   2.177   4.108 -0.5944 -1.0315 -2.3373
 8121TIP3    H245779   5.612   2.263   4.029  0.7690  4.0043  1.1898
 8122TIP3   OH245780   6.498   5.740   4.015  0.3397 -0.2364 -1.0457
 8122TIP3    H145781   6.588   5.706   4.012 -0.2157 -1.6595 -2.4911
 8122TIP3    H245782   6.477   5.759   3.924 -1.1814 -0.9033 -0.8480
 8123TIP3   OH245783   5.971   1.139   2.295  0.5022 -0.1689  0.0336
 8123TIP3    H145784   5.979   1.053   2.253  1.1766 -0.1459  0.1079
 8123TIP3    H245785   6.050   1.146   2.349  1.3961  1.3088 -1.4491
 8124TIP3   OH245786   3.882   1.134  14.465 -0.0066  0.0934 -1.1627
 8124TIP3    H145787   3.813   1.087  14.511  0.4601  0.8624  0.3517
 8124TIP3    H245788   3.848   1.223  14.455  1.0693  0.6822  0.2959
 8125TIP3   OH245789   1.165   6.324  14.646  0.4633 -0.0082  0.0893
 8125TIP3    H145790   1.189   6.266  14.575  2.8107  0.4417  0.4683
 8125TIP3    H245791   1.187   6.275  14.726  1.3225  0.8944  0.4237
 8126TIP3   OH245792   3.721   1.307   4.072 -0.4279  0.3014 -0.1742
 8126TIP3    H145793   3.725   1.400   4.094 -0.0293 -0.3694  2.7456
 8126TIP3    H245794   3.664   1.269   4.138  0.9618 -1.8516 -0.1546
 8127TIP3   OH245795   2.396   2.110  16.678  0.1229 -0.2666  0.3207
 8127TIP3    H145796   2.311   2.087  16.641  0.4206  0.2434 -0.6981
 8127TIP3    H245797   2.459   2.060  16.627  0.5541  0.6157 -0.0186
 8128TIP3   OH245798   4.959   6.745   1.727  0.1667  0.3882 -0.3372
 8128TIP3    H145799   4.993   6.739   1.816 -1.6890 -0.4254  0.3581
 8128TIP3    H245800   4.864   6.747   1.738 -0.0570  1.3964 -2.2525
 8129TIP3   OH245801   3.381   4.212   1.203  0.4754  0.0616 -0.0698
 8129TIP3    H145802   3.451   4.234   1.264 -1.7565  1.6632  1.9884
 8129TIP3    H245803   3.325   4.151   1.251 -0.2405 -0.2305 -1.2453
 8130TIP3   OH245804   3.402   6.752  13.787 -0.5752 -0.0388 -0.2460
 8130TIP3    H145805   3.403   6.840  13.750  1.0752 -0.3735 -1.0475
 8130TIP3    H245806   3.310   6.727  13.785 -0.8531  0.9876 -1.6917
 8131TIP3   OH245807   5.630   1.200   1.890 -0.3790 -0.0335  0.4539
 8131TIP3    H145808   5.587   1.238   1.966 -0.7729 -0.5715  0.5001
 8131TIP3    H245809   5.559   1.171   1.833 -0.1001  0.8292 -0.3675
 8132TIP3   OH245810   0.618   4.837   3.064 -0.4479  0.7312 -0.0633
 8132TIP3    H145811   0.524   4.855   3.061 -0.2960  1.3963 -1.0426
 8132TIP3    H245812   0.654   4.888   2.991  0.5095 -0.5053 -0.4553
 8133TIP3   OH245813   3.065   1.799   1.983  0.3472  0.1420  0.2875
 8133TIP3    H145814   3.160   1.793   1.991  0.1886 -2.2225  0.6693
 8133TIP3    H245815   3.036   1.837   2.067  0.8774  0.1151  0.4811
 8134TIP3   OH245816   3.520   5.521   3.344  0.3733 -0.0022 -0.2736
 8134TIP3    H145817   3.491   5.550   3.430 -0.3869 -0.2957 -0.4265
 8134TIP3    H245818   3.522   5.425   3.349  1.1227  0.0067 -0.3285
 8135TIP3   OH245819   4.144   2.197  15.914 -0.1066 -0.0273 -0.0107
 8135TIP3    H145820   4.076   2.264  15.904  1.1072  1.0152 -1.6567
 8135TIP3    H245821   4.175   2.182  15.824  1.3053 -1.0398  0.6345
 8136TIP3   OH245822   6.021   5.756   1.864  0.0783  0.0037  0.0230
 8136TIP3    H145823   5.950   5.763   1.929 -0.0741 -0.5075 -0.0924
 8136TIP3    H245824   6.035   5.846   1.835 -0.7473  0.0686 -0.1927
 8137TIP3   OH245825   5.408   1.302  14.723  0.0963  0.1683  0.1295
 8137TIP3    H145826   5.407   1.292  14.627 -0.9818 -1.6138  0.3224
 8137TIP3    H245827   5.441   1.219  14.756 -0.9304  0.2402  1.3762
 8138TIP3   OH245828   6.140   4.957  14.451  0.8306 -0.1767 -0.2429
 8138TIP3    H145829   6.141   4.963  14.547  0.4837  0.7013 -0.2939
 8138TIP3    H245830   6.169   5.043  14.421 -0.5052  0.0449 -0.9370
 8139TIP3   OH245831   0.966   0.465  14.373 -0.1014 -0.2707 -0.2138
 8139TIP3    H145832   1.009   0.478  14.457  0.1091 -4.1454  0.3658
 8139TIP3    H245833   1.036   0.475  14.308  0.6729 -1.5411  0.4007
 8140TIP3   OH245834   6.006   1.472   4.733 -0.1305 -0.2159  0.5136
 8140TIP3    H145835   5.976   1.542   4.790  1.5447  0.1075  1.0434
 8140TIP3    H245836   6.069   1.514   4.674  0.1532 -1.0664  0.1990
 8141TIP3   OH245837   6.098   4.186  12.608  0.3117 -0.2937  0.0516
 8141TIP3    H145838   6.081   4.096  12.581 -2.1782  0.5754 -1.4175
 8141TIP3    H245839   6.014   4.231  12.598  1.3856  2.0795  1.2543
 8142TIP3   OH245840   6.530   4.811   6.300 -0.0014  0.1515  0.7513
 8142TIP3    H145841   6.552   4.904   6.292  0.0252  0.2084  1.4521
 8142TIP3    H245842   6.613   4.766   6.291 -0.0950  0.1555 -0.2017
 8143TIP3   OH245843   5.791   3.798   0.965  0.0153  0.6370 -0.2569
 8143TIP3    H145844   5.794   3.787   1.060 -1.0257 -0.3496 -0.3196
 8143TIP3    H245845   5.698   3.813   0.946  0.5525  3.3675 -0.8623
 8144TIP3   OH245846   4.296   6.315   2.213  0.5217  0.0904 -0.0271
 8144TIP3    H145847   4.317   6.229   2.178 -0.1284  0.4852 -1.4121
 8144TIP3    H245848   4.205   6.331   2.186 -0.8696 -0.6002  3.8629
 8145TIP3   OH245849   3.796   1.677  16.212  0.0826 -0.5123  0.4800
 8145TIP3    H145850   3.763   1.612  16.149  1.0678 -0.1096 -0.4590
 8145TIP3    H245851   3.749   1.656  16.293  0.7813 -2.7539  0.3505
 8146TIP3   OH245852   6.053   4.697  11.544  0.0337 -0.0371 -0.8883
 8146TIP3    H145853   5.964   4.726  11.561 -0.4496 -1.6037 -0.6919
 8146TIP3    H245854   6.049   4.601  11.550  2.0296 -0.0645  0.5934
 8147TIP3   OH245855   4.303   2.581  12.364  0.1654 -0.4629 -0.3661
 8147TIP3    H145856   4.209   2.568  12.349 -0.8067  0.5872  3.9812
 8147TIP3    H245857   4.312   2.675  12.378  1.5895 -0.7648  0.8730
 8148TIP3   OH245858   1.079   2.440   6.511  0.3671  0.3306 -0.4900
 8148TIP3    H145859   1.131   2.502   6.461  2.6453 -3.0232 -2.4572
 8148TIP3    H245860   1.139   2.407   6.579 -0.3011 -0.8252 -0.4403
 8149TIP3   OH245861   1.110   0.456  16.904 -0.0585  0.5531  0.2047
 8149TIP3    H145862   1.171   0.514  16.950 -1.3657  1.4949  0.7791
 8149TIP3    H245863   1.130   0.469  16.811  0.7289  0.7193  0.3886
 8150TIP3   OH245864   5.706   5.679  16.126 -0.9368  0.1201  0.3850
 8150TIP3    H145865   5.697   5.710  16.216 -2.0453 -1.4238  0.8339
 8150TIP3    H245866   5.680   5.587  16.130 -1.2542  0.1003 -1.5576
 8151TIP3   OH245867   1.193   1.801  13.362 -0.1631 -1.0824  0.5594
 8151TIP3    H145868   1.237   1.730  13.316  1.3473 -0.4274  0.9796
 8151TIP3    H245869   1.254   1.875  13.358 -1.0519 -0.2697  1.4820
 8152TIP3   OH245870   0.601   3.221  13.928 -0.4643  0.6856 -0.5723
 8152TIP3    H145871   0.544   3.164  13.877  0.2743  0.7473 -1.4805
 8152TIP3    H245872   0.549   3.299  13.945 -0.7609  0.6077 -1.1232
 8153TIP3   OH245873   2.287   2.054   3.684 -0.1746  0.3580 -0.2666
 8153TIP3    H145874   2.302   2.080   3.775 -0.5106 -0.9346  0.1711
 8153TIP3    H245875   2.228   2.121   3.650  2.6755  2.8057 -0.5907
 8154TIP3   OH245876   2.864   2.210  12.670  0.4922  0.2047 -0.3765
 8154TIP3    H145877   2.808   2.205  12.748 -0.6219  0.6930 -1.1306
 8154TIP3    H245878   2.951   2.184  12.701  0.0179  0.2055  0.9861
 8155TIP3   OH245879   6.199   3.506  14.940 -0.4448 -0.5453  0.5124
 8155TIP3    H145880   6.196   3.517  15.035  1.1319  0.8386  0.4261
 8155TIP3    H245881   6.206   3.595  14.906  0.6491 -1.1286 -0.8174
 8156TIP3   OH245882   3.763   4.925   4.405 -0.0786  0.8815  0.3888
 8156TIP3    H145883   3.831   4.860   4.392 -0.3979 -0.1268  3.3654
 8156TIP3    H245884   3.806   4.997   4.452 -0.0538  2.2748 -1.6759
 8157TIP3   OH245885   6.361   3.510  11.281 -0.3118  0.0379 -0.1842
 8157TIP3    H145886   6.270   3.522  11.252 -1.3622 -2.2577  1.9732
 8157TIP3    H245887   6.383   3.421  11.253  1.4630  0.7282 -1.0727
 8158TIP3   OH245888   2.874   1.227   2.934  0.1672  0.3166 -0.1609
 8158TIP3    H145889   2.967   1.226   2.960 -0.2045  0.2035  1.1964
 8158TIP3    H245890   2.842   1.141   2.961 -0.4305  0.5169 -0.2411
 8159TIP3   OH245891   3.899   0.442  12.016 -0.3804  0.5411 -0.1376
 8159TIP3    H145892   3.833   0.424  11.949 -2.2017  0.0695  1.7581
 8159TIP3    H245893   3.942   0.357  12.030  0.3447  0.7464 -1.0295
 8160TIP3   OH245894   6.475   0.884   2.899  0.7947 -0.4045  0.5846
 8160TIP3    H145895   6.460   0.874   2.805 -0.5290  0.3642  0.7053
 8160TIP3    H245896   6.414   0.823   2.940 -1.3133  1.9430  1.0443
 8161TIP3   OH245897   1.999   3.328   1.913  0.6010 -0.6972  0.0281
 8161TIP3    H145898   2.011   3.354   2.005  0.7268  1.5818 -0.5922
 8161TIP3    H245899   1.906   3.312   1.904  0.8303 -2.6699  0.9728
 8162TIP3   OH245900   0.610   5.297  14.412  0.0046  0.0833  0.3201
 8162TIP3    H145901   0.531   5.350  14.422 -0.0003  0.3128 -0.8495
 8162TIP3    H245902   0.594   5.244  14.334  1.2276  0.5485 -0.2689
 8163TIP3   OH245903   3.994   1.224   3.227  0.4104  0.3182 -0.3906
 8163TIP3    H145904   3.902   1.197   3.227  0.4435  0.1482  1.2161
 8163TIP3    H245905   3.997   1.297   3.165 -1.1801  1.5182  0.8752
 8164TIP3   OH245906   5.097   0.415   5.181 -0.1241 -0.3588  0.2112
 8164TIP3    H145907   5.017   0.425   5.233 -0.1554 -0.3105  0.1535
 8164TIP3    H245908   5.068   0.373   5.100 -0.7134  2.9580 -1.3985
 8165TIP3   OH245909   1.347   3.831  13.211  0.0895 -1.1555  0.0643
 8165TIP3    H145910   1.406   3.905  13.227  1.5924 -2.2095 -0.4997
 8165TIP3    H245911   1.277   3.842  13.276  1.6724 -0.6970  1.7413
 8166TIP3   OH245912   0.209   5.108  16.822 -0.0099  0.0931 -0.0073
 8166TIP3    H145913   0.254   5.176  16.873 -0.2964 -0.7068  1.3338
 8166TIP3    H245914   0.117   5.134  16.825 -0.2106 -0.7389  1.1159
 8167TIP3   OH245915   0.467   3.836  15.301  0.0102  0.0843  0.3865
 8167TIP3    H145916   0.382   3.840  15.343 -0.2430  1.3104 -0.2150
 8167TIP3    H245917   0.449   3.852  15.208  0.7344 -1.0241  0.0504
 8168TIP3   OH245918   1.641   0.919  15.695  0.1076  0.1313 -0.0433
 8168TIP3    H145919   1.606   0.909  15.783 -1.9163 -1.6853 -1.0261
 8168TIP3    H245920   1.581   0.981  15.652 -0.7838 -1.4340 -1.1040
 8169TIP3   OH245921   3.176   6.283  10.860 -0.5592  0.8878  0.1605
 8169TIP3    H145922   3.134   6.206  10.898 -1.7108  1.1594 -0.5433
 8169TIP3    H245923   3.211   6.253  10.777 -0.7735  1.0503  0.0095
 8170TIP3   OH245924   2.461   1.775   0.054  0.2760  0.6749 -0.3638
 8170TIP3    H145925   2.372   1.748   0.079  0.8242 -1.9488 -1.1457
 8170TIP3    H245926   2.490   1.829   0.128 -1.4606  0.4512  0.5213
 8171TIP3   OH245927   2.858   2.120   4.666 -0.7344 -0.3305 -0.1888
 8171TIP3    H145928   2.901   2.191   4.715 -1.2286  0.5175 -0.9707
 8171TIP3    H245929   2.880   2.041   4.715 -1.2608  0.5074  1.4537
 8172TIP3   OH245930   1.992   1.520   5.677  0.2658 -0.6087 -0.3274
 8172TIP3    H145931   2.060   1.584   5.698 -0.1314  0.0046 -0.8830
 8172TIP3    H245932   1.983   1.526   5.582 -1.8981  0.6958 -0.0686
 8173TIP3   OH245933   1.671   2.335   4.891  0.1056  0.0024 -0.1251
 8173TIP3    H145934   1.659   2.430   4.900 -2.3230 -0.3874  1.0917
 8173TIP3    H245935   1.659   2.319   4.798 -0.0826  0.8160 -0.2503
 8174TIP3   OH245936   4.094   2.679  14.126  0.4453 -0.4385 -0.3087
 8174TIP3    H145937   4.092   2.622  14.049  0.4978 -1.7985  0.6938
 8174TIP3    H245938   4.004   2.683  14.156  0.0944  1.6446 -1.5521
 8175TIP3   OH245939   3.562   1.119  15.149 -0.0558 -0.2107  0.0041
 8175TIP3    H145940   3.474   1.082  15.156  0.2491 -1.4473 -2.2391
 8175TIP3    H245941   3.564   1.161  15.063  1.1168  1.0155  0.6073
 8176TIP3   OH245942   0.772   0.707   5.413 -0.1640  0.5401 -0.2594
 8176TIP3    H145943   0.702   0.751   5.364 -2.2770 -0.7825  1.4956
 8176TIP3    H245944   0.763   0.615   5.390  0.8842  0.3318  0.1521
 8177TIP3   OH245945   5.543   4.862   1.928  0.6238 -0.4778 -0.4526
 8177TIP3    H145946   5.552   4.874   2.022  2.0116 -0.0564 -0.6373
 8177TIP3    H245947   5.520   4.948   1.894  1.9644 -0.2113 -0.7148
 8178TIP3   OH245948   2.689   4.534  11.385 -0.3372 -0.3455  0.5567
 8178TIP3    H145949   2.696   4.623  11.350  0.1988  0.0011  1.5042
 8178TIP3    H245950   2.653   4.546  11.473  1.9068 -0.8470  1.5846
 8179TIP3   OH245951   5.753   1.338   6.601  0.2301 -0.3029  0.4102
 8179TIP3    H145952   5.834   1.309   6.642  0.8051  1.4331  0.5457
 8179TIP3    H245953   5.758   1.302   6.512  0.5813 -1.1996  0.7815
 8180TIP3   OH245954   4.648   5.413  12.743 -0.4419 -0.0263 -0.1669
 8180TIP3    H145955   4.686   5.477  12.683 -0.1193  1.0204  1.1589
 8180TIP3    H245956   4.721   5.356  12.767 -0.1068  0.8761  0.9466
 8181TIP3   OH245957   2.222   1.355   3.754  0.1357  0.6602 -0.0458
 8181TIP3    H145958   2.241   1.326   3.843  0.9548 -0.7163 -0.6369
 8181TIP3    H245959   2.140   1.311   3.731  1.2218 -1.0133 -0.8365
 8182TIP3   OH245960   4.113   5.838  13.418 -0.3106  0.3551 -0.4613
 8182TIP3    H145961   4.179   5.872  13.357  0.5597  1.1882  0.8912
 8182TIP3    H245962   4.044   5.904  13.418  0.2598  0.9763  0.3443
 8183TIP3   OH245963   6.341   6.685  11.609 -0.2768  0.4987 -0.5208
 8183TIP3    H145964   6.348   6.607  11.554  2.5428 -0.3067  0.8558
 8183TIP3    H245965   6.248   6.707  11.608 -0.6906 -1.1363 -3.3036
 8184TIP3   OH245966   5.221   6.689   5.471  0.2762  0.1092 -0.0109
 8184TIP3    H145967   5.271   6.769   5.454 -1.1948  0.7727 -1.3046
 8184TIP3    H245968   5.152   6.716   5.531  0.8124 -0.5750  0.9207
 8185TIP3   OH245969   5.372   4.409  15.972 -0.3027  0.1896  0.4957
 8185TIP3    H145970   5.408   4.346  15.909 -0.0355  1.6905 -0.8629
 8185TIP3    H245971   5.348   4.485  15.920 -0.3356  1.3562  2.1630
 8186TIP3   OH245972   2.262   0.485   6.330 -0.4440 -0.2338  0.0908
 8186TIP3    H145973   2.232   0.448   6.246 -3.7956  0.5142  0.9030
 8186TIP3    H245974   2.230   0.575   6.329  2.2156  0.7516  0.8661
 8187TIP3   OH245975   4.650   0.943  15.522 -0.3287  0.1864  0.6810
 8187TIP3    H145976   4.705   1.008  15.479 -1.0134 -0.4277 -1.2025
 8187TIP3    H245977   4.703   0.909  15.593  0.5132  1.8783  0.8633
 8188TIP3   OH245978   6.380   1.401  11.572 -0.3744 -0.4294 -0.3493
 8188TIP3    H145979   6.335   1.459  11.512 -0.0103  1.1991  0.9158
 8188TIP3    H245980   6.407   1.457  11.645  0.1800 -2.1287  0.8029
 8189TIP3   OH245981   0.441   4.265   1.841 -0.0888 -0.1378 -0.1471
 8189TIP3    H145982   0.504   4.198   1.868 -1.8258 -2.5457 -1.7994
 8189TIP3    H245983   0.359   4.217   1.832 -1.2280  2.1057 -2.0343
 8190TIP3   OH245984   1.014   6.424  16.976 -0.4513  0.3449  0.1140
 8190TIP3    H145985   0.950   6.495  16.980 -0.5818  0.1775  1.3652
 8190TIP3    H245986   0.987   6.370  16.902 -0.7826  1.1954 -0.3819
 8191TIP3   OH245987   0.323   2.450   1.441  0.8454 -0.6174 -0.0843
 8191TIP3    H145988   0.401   2.394   1.445  0.9160 -0.5138 -0.0083
 8191TIP3    H245989   0.267   2.408   1.376 -0.0211 -1.9518  1.4897
 8192TIP3   OH245990   3.966   0.757  16.682 -0.5317  0.3182 -0.2802
 8192TIP3    H145991   4.029   0.719  16.744 -1.4722 -0.1913  0.3646
 8192TIP3    H245992   4.021   0.796  16.613  0.5150  0.5276  0.6498
 8193TIP3   OH245993   1.443   2.030  14.591 -0.4359 -0.2415 -0.0963
 8193TIP3    H145994   1.493   2.080  14.655 -0.2677  0.8649 -1.0866
 8193TIP3    H245995   1.353   2.032  14.624 -0.2196 -0.3467  0.5080
 8194TIP3   OH245996   0.226   2.987   3.020  0.3645 -0.5574  0.3067
 8194TIP3    H145997   0.270   2.919   3.071 -0.1163 -0.1853  1.2291
 8194TIP3    H245998   0.295   3.051   3.002  0.1982  0.0905  1.8596
 8195TIP3   OH245999   4.481   6.595   5.757  0.2529 -0.1437  0.1020
 8195TIP3    H146000   4.412   6.597   5.691  1.0222  0.8464 -0.6826
 8195TIP3    H246001   4.434   6.611   5.840 -0.7869 -2.0194 -0.1048
 8196TIP3   OH246002   5.847   6.589  12.872  0.4501 -0.4984  0.4589
 8196TIP3    H146003   5.878   6.518  12.817 -1.1737 -1.1740  0.3700
 8196TIP3    H246004   5.895   6.666  12.842 -1.0346 -0.6674 -2.5426
 8197TIP3   OH246005   0.367   2.104   5.863 -0.3377  0.4607 -0.1596
 8197TIP3    H146006   0.364   2.111   5.958 -2.3219 -0.1022 -0.1580
 8197TIP3    H246007   0.441   2.158   5.837  1.8787 -1.4721  1.8933
 8198TIP3   OH246008   6.017   0.375   5.368  0.2708 -0.3244 -0.4604
 8198TIP3    H146009   5.983   0.462   5.349 -0.8955 -1.2475 -2.9102
 8198TIP3    H246010   5.955   0.338   5.431  1.4068  0.9945  1.4700
 8199TIP3   OH246011   2.728   3.144  15.165 -0.4317 -0.1146 -0.5719
 8199TIP3    H146012   2.707   3.073  15.105  0.1302  0.6515 -1.7057
 8199TIP3    H246013   2.821   3.130  15.187  0.0043  0.8943 -1.7027
 8200TIP3   OH246014   4.890   2.540   5.536 -0.0050 -0.5573 -0.0282
 8200TIP3    H146015   4.805   2.584   5.534  0.4222  0.2619 -0.7546
 8200TIP3    H246016   4.883   2.471   5.470 -0.3310 -0.9238  0.3875
 8201TIP3   OH246017   6.470   6.526   4.386 -0.0117  0.6563 -0.0563
 8201TIP3    H146018   6.461   6.439   4.347  1.3633  0.0406  0.9655
 8201TIP3    H246019   6.554   6.558   4.353  0.7447  0.4925  1.6867
 8202TIP3   OH246020   4.405   3.786   4.104 -0.4199  0.1913  0.6498
 8202TIP3    H146021   4.359   3.832   4.034  0.2953 -0.5241 -0.3227
 8202TIP3    H246022   4.494   3.774   4.070  0.4133  1.2881  2.3620
 8203TIP3   OH246023   4.322   5.085  16.089 -0.1278 -0.5699 -0.0507
 8203TIP3    H146024   4.364   5.033  16.157 -2.7672 -1.0253  1.3040
 8203TIP3    H246025   4.288   5.021  16.027  0.7572 -0.2338 -0.8893
 8204TIP3   OH246026   4.964   2.457   2.723  0.1543 -0.1317  0.3474
 8204TIP3    H146027   4.954   2.528   2.659 -0.9268 -1.7943 -1.3646
 8204TIP3    H246028   5.035   2.403   2.688  1.5857  0.5362  2.1033
 8205TIP3   OH246029   0.235   6.129   4.182  0.3824 -0.5739  0.6477
 8205TIP3    H146030   0.287   6.160   4.108 -0.7514  1.1144  0.5195
 8205TIP3    H246031   0.264   6.182   4.256 -0.1816 -0.5659  0.8703
 8206TIP3   OH246032   2.886   4.215  12.129  0.7086  0.0326  0.2680
 8206TIP3    H146033   2.915   4.250  12.213 -0.6301  0.8818  0.3961
 8206TIP3    H246034   2.832   4.139  12.151 -0.3235  0.7429  0.2321
 8207TIP3   OH246035   1.483   6.547  11.387 -0.2330  0.1852  0.2203
 8207TIP3    H146036   1.545   6.618  11.368  1.2166 -0.9656  0.5391
 8207TIP3    H246037   1.529   6.468  11.361 -1.1528 -0.7928  1.5167
 8208TIP3   OH246038   0.822   5.132   1.393  0.6130  0.4942  0.4009
 8208TIP3    H146039   0.772   5.095   1.467 -0.9336 -0.5177 -1.1077
 8208TIP3    H246040   0.812   5.068   1.323  1.7153  1.6419 -0.8265
 8209TIP3   OH246041   5.189   2.187  17.136  0.1175  0.1893 -0.1092
 8209TIP3    H146042   5.107   2.156  17.173 -0.1433 -1.4797 -2.0479
 8209TIP3    H246043   5.224   2.113  17.087  1.8534  1.4610 -0.8725
 8210TIP3   OH246044   6.576   6.206  11.392  0.6491  0.0232  0.4276
 8210TIP3    H146045   6.648   6.266  11.370 -0.8039  0.8188 -2.3337
 8210TIP3    H246046   6.533   6.189  11.309 -2.1910 -0.6936  1.9992
 8211TIP3   OH246047   1.627   2.856   4.538  0.7467 -0.5559 -0.3814
 8211TIP3    H146048   1.618   2.920   4.609 -2.3700 -0.9405 -0.3440
 8211TIP3    H246049   1.642   2.909   4.460 -0.0133  0.1243 -0.0788
 8212TIP3   OH246050   4.188   6.664   1.333 -0.3345 -0.4168 -0.0717
 8212TIP3    H146051   4.132   6.739   1.353 -1.3006 -0.6541 -1.8020
 8212TIP3    H246052   4.200   6.667   1.238  0.2310 -2.0286 -0.0714
 8213TIP3   OH246053   3.468   6.668   0.766 -0.6686 -0.8811 -0.1376
 8213TIP3    H146054   3.465   6.747   0.712  0.4088  0.0292  1.1123
 8213TIP3    H246055   3.382   6.627   0.753 -0.8437 -0.0713 -1.6279
 8214TIP3   OH246056   1.701   5.727  11.521  0.3425  0.2345  0.3562
 8214TIP3    H146057   1.795   5.714  11.529  0.5106  0.9407 -0.4098
 8214TIP3    H246058   1.686   5.814  11.557  0.4159  1.3896 -2.3264
 8215TIP3   OH246059   1.088   1.056   0.704  0.3311 -0.4941  0.0471
 8215TIP3    H146060   1.106   1.142   0.743  2.5003 -1.0536  0.3428
 8215TIP3    H246061   1.041   1.076   0.623 -2.8154  0.7575  2.1089
 8216TIP3   OH246062   2.430   1.584  11.407 -0.3315 -0.1928 -0.3283
 8216TIP3    H146063   2.423   1.680  11.401  0.0875 -0.2253 -1.4084
 8216TIP3    H246064   2.459   1.568  11.497 -0.9092  0.6676  0.0213
 8217TIP3   OH246065   0.532   1.807  12.809 -0.2949 -0.3427 -0.7448
 8217TIP3    H146066   0.525   1.819  12.904 -1.6344 -1.4893 -0.6762
 8217TIP3    H246067   0.464   1.743  12.788 -0.3116  0.2491 -2.5549
 8218TIP3   OH246068   3.442   6.521  16.743  0.1393  0.4022 -0.0404
 8218TIP3    H146069   3.421   6.526  16.649 -0.0604 -1.1241 -0.0792
 8218TIP3    H246070   3.491   6.602  16.760 -0.2891  0.9590 -1.3350
 8219TIP3   OH246071   2.518   1.511   0.078  0.1139  0.1347  0.1620
 8219TIP3    H146072   2.607   1.539   0.059  0.3546 -0.2210  0.7655
 8219TIP3    H246073   2.464   1.588   0.056  0.4709  0.0456 -1.0492
 8220TIP3   OH246074   6.741   4.842  13.880  0.3548 -0.6087 -0.0143
 8220TIP3    H146075   6.773   4.798  13.959 -0.3459  0.2696  0.7619
 8220TIP3    H246076   6.753   4.935  13.897 -0.4120 -0.3841 -0.6800
 8221TIP3   OH246077   1.354   6.070   0.750 -0.5535  0.4357 -0.4508
 8221TIP3    H146078   1.447   6.068   0.726 -0.4561 -0.4185 -0.0128
 8221TIP3    H246079   1.344   6.002   0.816 -1.0093  2.1962  1.3490
 8222TIP3   OH246080   1.546   5.268  11.147 -0.0277 -0.4454  0.0779
 8222TIP3    H146081   1.596   5.350  11.152  0.6201 -0.8358 -0.0418
 8222TIP3    H246082   1.507   5.269  11.060  0.8481 -0.7626 -0.3291
 8223TIP3   OH246083   5.644   4.722  13.046 -0.1461  0.2347 -0.3226
 8223TIP3    H146084   5.630   4.799  12.992 -2.0275  1.0451  1.2216
 8223TIP3    H246085   5.582   4.657  13.012 -0.3213  0.2571 -0.0477
 8224TIP3   OH246086   1.839   2.836  12.459  0.6494  0.0500  0.3151
 8224TIP3    H146087   1.765   2.895  12.471  0.6278  0.0022  0.4123
 8224TIP3    H246088   1.803   2.749  12.472  0.3265 -0.0916 -1.3864
 8225TIP3   OH246089   1.276   5.122   4.698  0.2437  0.2700 -0.1817
 8225TIP3    H146090   1.294   5.136   4.606  1.3484  0.2604  0.0282
 8225TIP3    H246091   1.286   5.208   4.738 -0.9878  0.4296 -0.1777
 8226TIP3   OH246092   1.197   4.457   3.672 -0.3338  0.3237 -0.6077
 8226TIP3    H146093   1.238   4.373   3.694  1.2465  1.0081 -0.8896
 8226TIP3    H246094   1.114   4.432   3.630 -0.9469 -1.0422  1.3593
 8227TIP3   OH246095   5.279   2.962  14.625  0.3097  0.2078  0.2687
 8227TIP3    H146096   5.229   2.923  14.696 -1.9637  1.2172 -0.7560
 8227TIP3    H246097   5.222   2.958  14.549  1.4691  2.0702 -0.7547
 8228TIP3   OH246098   4.634   4.327   2.584  0.3442 -0.0294  0.1207
 8228TIP3    H146099   4.583   4.303   2.662 -1.0093 -2.4096 -1.4490
 8228TIP3    H246100   4.718   4.282   2.597  0.4497  0.3011  0.6170
 8229TIP3   OH246101   5.732   3.162   5.652 -0.1227 -0.0682  0.1382
 8229TIP3    H146102   5.821   3.196   5.641  0.0829 -0.8154 -0.5462
 8229TIP3    H246103   5.676   3.234   5.626  0.2946  0.1246 -0.2341
 8230TIP3   OH246104   3.624   2.326  16.466 -0.1148  0.5195 -0.0164
 8230TIP3    H146105   3.685   2.393  16.496 -0.5595  0.3504  1.2988
 8230TIP3    H246106   3.669   2.244  16.481  1.1526  0.5443 -3.2717
 8231TIP3   OH246107   2.452   3.131  13.725 -0.7190 -0.0494  0.1200
 8231TIP3    H146108   2.519   3.151  13.789  1.8589 -1.1605 -2.1456
 8231TIP3    H246109   2.466   3.194  13.654 -0.6901 -1.6191 -1.3134
 8232TIP3   OH246110   5.785   4.912   5.578 -0.0694  0.0313  0.4116
 8232TIP3    H146111   5.760   4.845   5.642  1.8062 -0.1993  0.9501
 8232TIP3    H246112   5.808   4.862   5.499 -1.7392  0.2710 -0.2421
 8233TIP3   OH246113   1.219   3.989   2.937 -0.3599  0.4515  0.0874
 8233TIP3    H146114   1.265   4.052   2.882  0.5666 -1.6801 -1.6365
 8233TIP3    H246115   1.127   4.016   2.933 -0.3480  0.2154 -2.7169
 8234TIP3   OH246116   1.706   6.272   4.131  0.2353 -0.0084 -0.2703
 8234TIP3    H146117   1.618   6.246   4.103  0.5786 -0.7230 -0.6936
 8234TIP3    H246118   1.695   6.297   4.223 -0.3558 -0.3930 -0.2286
 8235TIP3   OH246119   1.830   2.405  12.069 -0.8797 -0.4398 -0.4765
 8235TIP3    H146120   1.895   2.460  12.024  0.3973 -1.0787  0.5730
 8235TIP3    H246121   1.831   2.323  12.020 -0.6624 -0.5607 -0.2711
 8236TIP3   OH246122   6.641   3.756  17.160  0.0259 -0.0614 -0.2919
 8236TIP3    H146123   6.615   3.722  17.074  0.6786 -0.7542 -0.2172
 8236TIP3    H246124   6.686   3.838  17.141  0.9032 -0.6245 -0.6776
 8237TIP3   OH246125   0.637   1.849   0.161 -0.4308  0.3842  0.9386
 8237TIP3    H146126   0.665   1.800   0.238  1.8009 -0.4243 -0.3294
 8237TIP3    H246127   0.658   1.940   0.181  0.6434  0.1106  1.0998
 8238TIP3   OH246128   3.770   1.569   0.741  0.2650  0.1018 -0.9241
 8238TIP3    H146129   3.740   1.540   0.654 -0.7419 -2.0208  0.1013
 8238TIP3    H246130   3.689   1.583   0.790  0.8437 -0.6328  0.2663
 8239TIP3   OH246131   2.832   4.071   3.811 -0.2417  0.5848 -0.1210
 8239TIP3    H146132   2.835   4.127   3.733 -1.6385 -0.0296 -0.6260
 8239TIP3    H246133   2.806   4.130   3.882 -0.7682  0.7680 -0.4683
 8240TIP3   OH246134   5.484   0.501  12.506  0.0741 -0.0042  0.2712
 8240TIP3    H146135   5.529   0.556  12.442  0.6549 -0.2288  0.4826
 8240TIP3    H246136   5.532   0.418  12.504 -1.1134 -0.6881 -0.4188
 8241TIP3   OH246137   5.472   3.564  11.283 -0.3801  0.2904 -0.2880
 8241TIP3    H146138   5.528   3.515  11.344 -0.2104  0.6307 -0.1678
 8241TIP3    H246139   5.420   3.497  11.239  0.3353 -0.0546 -0.6130
 8242TIP3   OH246140   5.179   4.913  14.898 -0.2618  0.8035 -0.4738
 8242TIP3    H146141   5.133   4.947  14.975  0.0370  1.4145 -0.5607
 8242TIP3    H246142   5.211   4.992  14.853  0.6794  0.3993 -0.5226
 8243TIP3   OH246143   0.775   0.033   3.850 -0.0193  0.2843  0.0534
 8243TIP3    H146144   0.691   0.078   3.855  0.1802  0.4695  2.2808
 8243TIP3    H246145   0.830   0.076   3.916  1.5037 -0.5101 -0.6474
 8244TIP3   OH246146   1.633   0.333  12.501  0.3941  0.3802  0.4243
 8244TIP3    H146147   1.724   0.305  12.500 -0.0592 -1.2969  2.3491
 8244TIP3    H246148   1.615   0.354  12.593 -1.0287  1.1616 -0.0044
 8245TIP3   OH246149   5.627   5.789   2.952 -0.3581  0.5042 -0.0650
 8245TIP3    H146150   5.688   5.756   3.018 -2.6523  1.1763  2.4730
 8245TIP3    H246151   5.582   5.712   2.919 -1.3076  0.4126  1.3728
 8246TIP3   OH246152   2.616   3.373  15.678 -0.2485 -0.3587  0.5272
 8246TIP3    H146153   2.561   3.319  15.734  0.2203 -0.4471  0.9080
 8246TIP3    H246154   2.635   3.317  15.602  0.8429 -1.0132  1.2658
 8247TIP3   OH246155   5.579   4.282  11.327  0.5286  0.1601  0.3472
 8247TIP3    H146156   5.549   4.369  11.301 -1.3079 -0.3782  0.5391
 8247TIP3    H246157   5.514   4.253  11.391  1.8896 -0.7974  1.2944
 8248TIP3   OH246158   2.684   4.502   5.738  0.1948 -0.1821 -0.2539
 8248TIP3    H146159   2.639   4.418   5.749  0.9810 -0.6336 -0.4088
 8248TIP3    H246160   2.716   4.523   5.826  2.1309 -1.2840 -0.6680
 8249TIP3   OH246161   3.546   6.213   5.945  0.3750 -0.2642 -0.0496
 8249TIP3    H146162   3.578   6.136   5.898 -1.3384 -0.4464 -0.9488
 8249TIP3    H246163   3.482   6.253   5.886  1.0460  1.7148  0.5123
 8250TIP3   OH246164   6.077   5.672  16.547  0.0400  0.3904  0.1178
 8250TIP3    H146165   6.064   5.641  16.637  2.0336 -0.1579  0.2450
 8250TIP3    H246166   6.000   5.725  16.529 -0.6804  0.0217  1.9470
 8251TIP3   OH246167   6.196   1.571  11.365 -0.5127  0.0297 -0.5343
 8251TIP3    H146168   6.183   1.486  11.324  1.2868 -0.3297 -0.4336
 8251TIP3    H246169   6.155   1.564  11.451 -1.1487 -0.4281 -0.8754
 8252TIP3   OH246170   0.315   6.621  13.494  0.9403  0.1404 -0.1380
 8252TIP3    H146171   0.355   6.567  13.426  1.3866  0.1862  0.0853
 8252TIP3    H246172   0.366   6.601  13.573  1.0133  0.7790 -0.0227
 8253TIP3   OH246173   1.284   4.209   3.743 -0.3271  0.2714 -0.3111
 8253TIP3    H146174   1.282   4.116   3.721 -1.1000  0.7114 -2.2426
 8253TIP3    H246175   1.292   4.211   3.838  2.4805 -1.7642 -0.4379
 8254TIP3   OH246176   0.132   0.208   4.344 -0.3302 -0.0412  0.6255
 8254TIP3    H146177   0.150   0.256   4.263 -1.9102 -0.2496  0.1364
 8254TIP3    H246178   0.040   0.182   4.337 -0.3538 -0.4695  2.2819
 8255TIP3   OH246179   3.625   4.281  12.344 -0.2334 -0.5956  0.1728
 8255TIP3    H146180   3.654   4.213  12.284  2.3438  1.0628 -0.5091
 8255TIP3    H246181   3.638   4.363  12.297 -0.4829  0.5861  2.0851
 8256TIP3   OH246182   2.909   0.661  15.422 -0.3973 -0.1410  0.6263
 8256TIP3    H146183   2.889   0.574  15.456  0.5623  0.1262  1.9180
 8256TIP3    H246184   2.965   0.646  15.347 -2.8793 -0.7653 -1.1648
 8257TIP3   OH246185   2.803   3.155   2.457 -0.1064 -0.0180  0.0306
 8257TIP3    H146186   2.878   3.206   2.489 -0.6748 -0.0078  1.3478
 8257TIP3    H246187   2.727   3.211   2.472 -0.5981 -0.7747  0.3758
 8258TIP3   OH246188   5.755   3.612   3.601 -0.4131 -0.0776  0.3238
 8258TIP3    H146189   5.727   3.563   3.524 -0.6604  0.9795 -0.2727
 8258TIP3    H246190   5.690   3.592   3.668 -0.5365 -0.5173  0.0776
 8259TIP3   OH246191   6.472   4.718  11.908 -0.8248  0.2366 -0.2569
 8259TIP3    H146192   6.534   4.788  11.890  0.6460 -0.9654  0.0869
 8259TIP3    H246193   6.416   4.715  11.829 -1.2593  2.1261 -0.0487
 8260TIP3   OH246194   0.437   4.369   3.442 -0.2198  0.5353 -0.1988
 8260TIP3    H146195   0.430   4.285   3.487 -0.1926 -0.1036 -1.3654
 8260TIP3    H246196   0.418   4.349   3.350  0.7110  1.6302 -0.6490
 8261TIP3   OH246197   1.095   1.282  14.843 -0.2122  0.1028 -0.6887
 8261TIP3    H146198   1.023   1.255  14.785 -2.2181  0.0505  1.7551
 8261TIP3    H246199   1.097   1.377  14.837 -2.0913  0.2711  1.0591
 8262TIP3   OH246200   5.329   1.156   6.793  0.5504 -0.5161  0.1308
 8262TIP3    H146201   5.256   1.111   6.750 -1.9126  2.0998  1.4069
 8262TIP3    H246202   5.407   1.120   6.751 -1.4449 -3.1400 -1.5460
 8263TIP3   OH246203   3.440   1.072   2.242 -0.2202 -0.6688  0.3788
 8263TIP3    H146204   3.390   1.052   2.163 -0.7496 -1.2695  0.8572
 8263TIP3    H246205   3.381   1.048   2.314 -0.4541  1.5855  0.9768
 8264TIP3   OH246206   1.031   3.424  15.057 -0.6919  0.1328  0.2178
 8264TIP3    H146207   0.988   3.505  15.083 -0.3356  0.1457  0.7726
 8264TIP3    H246208   1.023   3.422  14.962  0.0138  1.2286  0.1247
 8265TIP3   OH246209   4.438   4.046   0.637 -0.4024  0.4750  0.0931
 8265TIP3    H146210   4.426   4.131   0.679  0.6307 -0.3649  2.2061
 8265TIP3    H246211   4.496   4.064   0.563 -0.9888  1.7518 -0.0737
 8266TIP3   OH246212   5.808   5.671   0.184 -0.1572  0.5319 -0.0378
 8266TIP3    H146213   5.835   5.581   0.199  0.0266  0.6209  0.1603
 8266TIP3    H246214   5.822   5.715   0.268  1.3729  1.1613 -0.6135
 8267TIP3   OH246215   0.173   4.653  13.465  0.2048 -0.0766  0.9892
 8267TIP3    H146216   0.099   4.691  13.512 -1.1070 -0.5155 -0.6507
 8267TIP3    H246217   0.176   4.562  13.495 -0.2351 -0.1880  0.7067
 8268TIP3   OH246218   1.743   0.013  16.396  0.4953 -0.8515 -0.0014
 8268TIP3    H146219   1.690   0.056  16.329  2.0698 -1.4041 -1.6644
 8268TIP3    H246220   1.790   0.084  16.439  0.2193 -0.5778 -0.1505
 8269TIP3   OH246221   2.519   5.045  12.171 -0.3663  0.3979  0.2257
 8269TIP3    H146222   2.423   5.052  12.170 -0.4428 -0.4340  0.8350
 8269TIP3    H246223   2.545   5.058  12.080 -1.2424 -1.4781 -0.3257
 8270TIP3   OH246224   6.546   4.251  15.851  0.4957  0.4205  0.1520
 8270TIP3    H146225   6.545   4.251  15.755 -0.6979  1.4794  0.1527
 8270TIP3    H246226   6.467   4.299  15.876  0.7322  0.0437  1.6708
 8271TIP3   OH246227   1.592   0.620   2.914 -0.0183 -0.0231  0.0191
 8271TIP3    H146228   1.594   0.525   2.903  0.1251 -0.1482  1.0724
 8271TIP3    H246229   1.554   0.634   3.001 -0.7279  0.9082 -0.4272
 8272TIP3   OH246230   3.407   3.053  15.481 -0.7571  0.2809  0.0902
 8272TIP3    H146231   3.407   3.051  15.576 -0.9650 -0.8120  0.0754
 8272TIP3    H246232   3.492   3.016  15.456 -1.3694 -0.9941 -0.1597
 8273TIP3   OH246233   2.526   3.970   5.790  0.0008  0.2540 -0.1937
 8273TIP3    H146234   2.441   3.982   5.831  0.3957  0.0125  0.7208
 8273TIP3    H246235   2.551   4.057   5.760 -1.2529  0.0570 -1.8530
 8274TIP3   OH246236   0.154   3.021   3.842  0.2249  0.4209 -0.7327
 8274TIP3    H146237   0.198   3.007   3.758 -0.3801  1.4761 -1.2349
 8274TIP3    H246238   0.225   3.028   3.905  0.6810 -0.4951 -1.1345
 8275TIP3   OH246239   3.076   0.625  16.284  0.3783  0.2996  0.1471
 8275TIP3    H146240   3.055   0.717  16.268  2.1737  0.4998 -1.2832
 8275TIP3    H246241   3.096   0.620  16.377  0.2708  1.3616  0.2293
 8276TIP3   OH246242   2.246   5.327  15.923 -0.1185 -0.2136  0.1262
 8276TIP3    H146243   2.169   5.278  15.896  0.1123 -0.5304  0.0455
 8276TIP3    H246244   2.213   5.391  15.986 -0.2790 -1.0810  0.9424
 8277TIP3   OH246245   2.204   0.460  16.232 -0.2642  0.1256  0.3262
 8277TIP3    H146246   2.224   0.389  16.172 -0.7663  0.0067  0.2944
 8277TIP3    H246247   2.219   0.540  16.180 -1.9217  0.0116 -0.3746
 8278TIP3   OH246248   6.201   4.739   0.009 -0.2511 -0.1007 -0.2173
 8278TIP3    H146249   6.206   4.776   0.098  0.3070 -1.4816  0.3399
 8278TIP3    H246250   6.121   4.776  -0.027  0.2451  1.6079  0.3350
 8279TIP3   OH246251   4.642   4.116  11.791 -0.1654 -0.5639 -0.3089
 8279TIP3    H146252   4.618   4.027  11.763 -0.6123 -0.3344 -0.6689
 8279TIP3    H246253   4.589   4.173  11.736 -1.0353 -0.0960  0.9705
 8280TIP3   OH246254   1.305   0.189   5.095 -0.3139  0.0219  0.3447
 8280TIP3    H146255   1.361   0.183   5.018 -0.2253 -0.8596  0.4657
 8280TIP3    H246256   1.274   0.099   5.109  1.9414 -0.4611  2.9642
 8281TIP3   OH246257   4.594   0.910   0.622  0.5427 -0.4166 -0.2682
 8281TIP3    H146258   4.621   0.824   0.653 -0.1214 -0.7971 -0.7395
 8281TIP3    H246259   4.576   0.960   0.701  0.3348 -0.9002 -0.0105
 8282TIP3   OH246260   1.452   0.978   2.335  0.7276  0.7269  0.6035
 8282TIP3    H146261   1.436   0.933   2.419  0.4206 -1.3230 -0.5238
 8282TIP3    H246262   1.369   1.019   2.314  0.2101 -0.4608  0.3106
 8283TIP3   OH246263   1.419   3.638   0.310 -0.4477 -0.2677 -0.2188
 8283TIP3    H146264   1.352   3.571   0.297 -1.6149  0.7978  0.2464
 8283TIP3    H246265   1.423   3.684   0.226  0.4721 -1.0184 -0.5920
 8284TIP3   OH246266   3.801   1.855  11.558 -0.0013  0.0833  0.2362
 8284TIP3    H146267   3.818   1.795  11.485 -0.3473 -0.8161  0.8837
 8284TIP3    H246268   3.887   1.874  11.595  0.2844  1.4013 -1.0685
 8285TIP3   OH246269   3.469   6.051   4.319  0.6269  0.4808 -0.1280
 8285TIP3    H146270   3.379   6.022   4.302  0.0274  1.5248  1.1501
 8285TIP3    H246271   3.473   6.139   4.282  1.9235 -0.5123 -2.4713
 8286TIP3   OH246272   2.501   6.145   0.699  0.5471  0.0805  0.1580
 8286TIP3    H146273   2.440   6.214   0.671 -0.1997 -0.6171  0.0521
 8286TIP3    H246274   2.559   6.132   0.624  0.6985  0.5944  0.1804
 8287TIP3   OH246275   0.652   1.728   1.713 -0.1468 -0.3840 -0.9385
 8287TIP3    H146276   0.623   1.638   1.724 -2.4096  0.5696  1.0483
 8287TIP3    H246277   0.609   1.758   1.633 -0.7960 -0.5082 -0.6344
 8288TIP3   OH246278   0.518   0.206  12.848 -1.0772 -0.3092  0.0183
 8288TIP3    H146279   0.531   0.271  12.779 -0.6712 -1.3968 -0.9503
 8288TIP3    H246280   0.424   0.203  12.860 -1.1549 -0.0942 -0.4862
 8289TIP3   OH246281   0.148   1.604  10.595 -0.0139 -0.5684  0.0793
 8289TIP3    H146282   0.193   1.681  10.559 -0.5228  0.0358  0.7021
 8289TIP3    H246283   0.218   1.546  10.624  0.3719  0.6387  1.6138
 8290TIP3   OH246284   6.632   0.423   0.222  0.1526 -0.1065  0.2583
 8290TIP3    H146285   6.700   0.474   0.265  0.6425 -0.3906 -0.1715
 8290TIP3    H246286   6.563   0.415   0.288  0.7709 -0.2929  0.8910
 8291TIP3   OH246287   2.579   6.001  16.954 -0.9230 -0.0515 -0.6314
 8291TIP3    H146288   2.636   5.947  17.009 -0.7590  0.7351 -0.0139
 8291TIP3    H246289   2.612   6.090  16.967 -2.1530  0.3802 -0.4601
 8292TIP3   OH246290   0.152   3.354  13.160 -0.3579  0.0742  0.0123
 8292TIP3    H146291   0.196   3.438  13.172 -1.7966  0.7878  0.2531
 8292TIP3    H246292   0.221   3.289  13.177  0.6916  1.1907  0.0594
 8293TIP3   OH246293   3.516   2.749  15.936  0.4880 -0.1260 -0.1254
 8293TIP3    H146294   3.442   2.692  15.957  0.9495 -0.5304  0.4171
 8293TIP3    H246295   3.528   2.802  16.015  0.7024  0.0203 -0.2565
 8294TIP3   OH246296   0.178   6.195   1.351 -0.3065 -0.4167  0.3594
 8294TIP3    H146297   0.257   6.147   1.326  0.4927 -0.2099  2.3267
 8294TIP3    H246298   0.141   6.226   1.269  0.9091 -1.6975 -0.7005
 8295TIP3   OH246299   3.992   1.832   3.755  0.4659 -0.8538 -0.4886
 8295TIP3    H146300   3.952   1.905   3.801  1.2335  0.0768 -1.2646
 8295TIP3    H246301   4.023   1.774   3.824  2.1938  0.8368  0.2200
 8296TIP3   OH246302   2.789   0.156  13.861  0.4020  0.2240  0.0562
 8296TIP3    H146303   2.749   0.240  13.882  0.5648  0.2509  0.2610
 8296TIP3    H246304   2.754   0.095  13.925 -1.8721 -0.4815 -1.7879
 8297TIP3   OH246305   0.492   0.193  11.248 -0.4214 -0.0898 -0.2593
 8297TIP3    H146306   0.540   0.111  11.236  0.4772  0.3065  0.5716
 8297TIP3    H246307   0.469   0.194  11.341 -2.9452 -0.7528 -0.8362
 8298TIP3   OH246308   6.202   3.698  12.927  0.4731  0.6372  0.5366
 8298TIP3    H146309   6.106   3.695  12.916  0.4776 -0.5049  0.6689
 8298TIP3    H246310   6.225   3.608  12.951  1.4710  1.1343  1.4581
 8299TIP3   OH246311   2.292   1.198  13.528 -0.7384  0.3850  0.2272
 8299TIP3    H146312   2.365   1.196  13.465 -1.0998 -2.6549 -0.1825
 8299TIP3    H246313   2.246   1.280  13.509 -0.0003  0.2116 -2.5295
 8300TIP3   OH246314   1.011   4.683  10.473 -0.1068  0.2743 -0.2482
 8300TIP3    H146315   1.033   4.666  10.382  2.2137 -0.0612  0.3341
 8300TIP3    H246316   0.989   4.598  10.510  1.3756  0.0048  0.0811
 8301TIP3   OH246317   2.256   0.372  12.629  0.1031  0.6873  0.5375
 8301TIP3    H146318   2.328   0.310  12.640 -0.2389  0.2361  0.2759
 8301TIP3    H246319   2.191   0.344  12.695  0.0689  0.9420  0.6106
 8302TIP3   OH246320   2.884   4.176  13.260  0.4528  0.2055  0.2254
 8302TIP3    H146321   2.799   4.219  13.264 -0.2365 -1.1704  0.5765
 8302TIP3    H246322   2.872   4.094  13.307  2.4180  0.7111  1.6912
 8303TIP3   OH246323   0.341   2.138  13.939  0.2283 -0.3937 -0.1020
 8303TIP3    H146324   0.371   2.051  13.912 -1.3714  0.0935 -3.5669
 8303TIP3    H246325   0.417   2.194  13.925  1.0866 -1.0620  1.6159
 8304TIP3   OH246326   2.971   4.248  14.105 -0.3056 -0.5346 -0.2944
 8304TIP3    H146327   2.899   4.262  14.044 -0.5985 -1.4231 -0.1504
 8304TIP3    H246328   2.969   4.325  14.163 -1.7698 -1.0631  0.3610
 8305TIP3   OH246329   3.112   2.380  16.689  0.5691  0.4686  0.5771
 8305TIP3    H146330   3.111   2.357  16.782 -0.2971  0.5927  0.5994
 8305TIP3    H246331   3.205   2.382  16.666  0.7632 -0.0825  1.3080
 8306TIP3   OH246332   0.174   5.949   1.545  0.4469 -0.2931  0.0311
 8306TIP3    H146333   0.250   5.981   1.496 -0.0453 -0.4210 -0.8302
 8306TIP3    H246334   0.120   5.905   1.479 -1.2799  1.3975  0.2982
 8307TIP3   OH246335   4.613   0.378  14.622 -0.3266 -0.0374 -0.3703
 8307TIP3    H146336   4.552   0.444  14.588 -1.2751 -0.6827  0.0693
 8307TIP3    H246337   4.630   0.406  14.712  0.5489  0.5015 -0.6906
 8308TIP3   OH246338   0.638   6.741   4.238 -0.1164 -0.3083  0.1073
 8308TIP3    H146339   0.555   6.789   4.244 -0.0303 -0.4626  2.6622
 8308TIP3    H246340   0.612   6.650   4.225 -0.2942 -0.0498 -1.5429
 8309TIP3   OH246341   4.061   1.581  16.215 -0.6003 -0.4752  0.1453
 8309TIP3    H146342   4.098   1.664  16.183 -2.2035  1.3232  2.7623
 8309TIP3    H246343   3.966   1.593  16.206 -0.9226 -1.2242  2.4048
 8310TIP3   OH246344   1.349   6.246   0.108 -0.0896  0.0152  0.6227
 8310TIP3    H146345   1.438   6.212   0.105  0.5324  1.4527  1.9252
 8310TIP3    H246346   1.300   6.181   0.158  0.7460  0.3069  1.8410
 8311TIP3   OH246347   1.567   1.421  16.179 -1.0045 -0.4572 -0.1035
 8311TIP3    H146348   1.502   1.406  16.111 -2.7566  1.6012  1.0576
 8311TIP3    H246349   1.516   1.430  16.259  0.6324  1.8150  0.7320
 8312TIP3   OH246350   3.377   2.548   0.064  0.0928 -0.4110  0.4391
 8312TIP3    H146351   3.468   2.569   0.041  0.1974 -3.3803 -2.1948
 8312TIP3    H246352   3.381   2.528   0.158  2.4206 -1.6686  0.1232
 8313TIP3   OH246353   2.454   3.737  13.885  0.0423 -0.0660  0.8851
 8313TIP3    H146354   2.471   3.664  13.944 -0.6436  0.3186  1.5679
 8313TIP3    H246355   2.382   3.708  13.830 -0.7939  0.4090  1.7195
 8314TIP3   OH246356   1.165   4.739   2.492  0.4108  0.2993  0.0574
 8314TIP3    H146357   1.232   4.765   2.556 -0.1569 -1.0470  1.2333
 8314TIP3    H246358   1.212   4.685   2.429  0.0803 -2.3169  1.9941
 8315TIP3   OH246359   6.488   4.633  15.722  0.3715 -0.5321  0.2028
 8315TIP3    H146360   6.412   4.669  15.675  0.3392  1.2008  1.5451
 8315TIP3    H246361   6.506   4.550  15.677 -2.8743 -1.4413  0.4224
 8316TIP3   OH246362   4.778   0.952  13.328  0.1890  0.4836 -0.1844
 8316TIP3    H146363   4.709   0.887  13.313  0.2247  0.5403 -0.6110
 8316TIP3    H246364   4.818   0.964  13.241  0.6582  0.5335  0.0358
 8317TIP3   OH246365   6.143   1.466   3.681 -0.1758  0.1388 -0.5445
 8317TIP3    H146366   6.084   1.391   3.678  1.7014 -1.3802 -0.2618
 8317TIP3    H246367   6.196   1.451   3.759  0.0508  1.9064 -0.3382
 8318TIP3   OH246368   4.119   5.596  13.560  0.5447  0.7774 -0.1553
 8318TIP3    H146369   4.052   5.616  13.626 -2.0959 -1.6516 -2.0250
 8318TIP3    H246370   4.135   5.680  13.517 -0.2960  1.6523  1.1821
 8319TIP3   OH246371   5.400   3.073  16.091 -0.8515  0.0696 -0.0838
 8319TIP3    H146372   5.344   3.131  16.037 -0.8680 -0.0005 -0.1408
 8319TIP3    H246373   5.489   3.104  16.075 -1.0224  1.4197  1.4979
 8320TIP3   OH246374   2.301   3.552  12.173  0.0225 -0.2883  0.5597
 8320TIP3    H146375   2.240   3.479  12.186 -1.2531  1.0752  2.3691
 8320TIP3    H246376   2.245   3.629  12.165  1.3971  0.6018 -0.6956
 8321TIP3   OH246377   1.560   6.292   3.820  0.0828 -0.5064  0.3939
 8321TIP3    H146378   1.494   6.244   3.869  0.1030  0.1602  1.0908
 8321TIP3    H246379   1.511   6.338   3.752  0.0082 -1.1283  0.0199
 8322TIP3   OH246380   6.403   1.576  12.185  0.3317  0.7809 -0.0711
 8322TIP3    H146381   6.475   1.557  12.125 -0.4733 -2.1079 -0.1730
 8322TIP3    H246382   6.329   1.600  12.128  0.6783  1.9841 -0.0345
 8323TIP3   OH246383   3.505   5.463  11.528  0.3048  0.0924  0.1544
 8323TIP3    H146384   3.454   5.429  11.601  0.1562 -1.0105 -0.4460
 8323TIP3    H246385   3.596   5.439  11.549  0.1863 -0.8262 -0.3268
 8324TIP3   OH246386   6.741   0.392   5.074 -0.4160 -0.0296 -0.4936
 8324TIP3    H146387   6.666   0.423   5.022 -0.2645 -1.9735 -1.9375
 8324TIP3    H246388   6.816   0.403   5.016  0.2019  0.4466  0.3874
 8325TIP3   OH246389   1.801   4.731  16.296 -0.2149 -0.4362  0.4317
 8325TIP3    H146390   1.870   4.665  16.286 -0.8382 -1.1691  0.9607
 8325TIP3    H246391   1.839   4.797  16.354 -0.1175 -1.0651  1.0860
 8326TIP3   OH246392   3.146   3.995   6.263  0.4592 -0.4710  0.2096
 8326TIP3    H146393   3.144   4.084   6.229 -0.9959  0.4318  2.5624
 8326TIP3    H246394   3.136   4.005   6.358 -1.3191 -3.2205  0.3526
 8327TIP3   OH246395   3.698   4.911  17.234 -0.2596 -0.2664  0.2936
 8327TIP3    H146396   3.760   4.909  17.306  1.2280  1.7362 -0.8867
 8327TIP3    H246397   3.707   4.826  17.191  0.7930 -0.4306  0.8407
 8328TIP3   OH246398   0.157   2.192   4.604  0.0313  0.8313 -0.2577
 8328TIP3    H146399   0.242   2.155   4.581 -0.0924 -0.2798  1.0223
 8328TIP3    H246400   0.176   2.252   4.676 -0.5830 -1.3023  1.7341
 8329TIP3   OH246401   6.610   5.778  10.998  0.1052 -0.6826  0.0067
 8329TIP3    H146402   6.562   5.709  10.953  0.2521 -2.3528  2.3434
 8329TIP3    H246403   6.543   5.841  11.024 -0.3135 -1.0504 -0.1778
 8330TIP3   OH246404   1.830   3.433  14.987  0.1734 -0.6930 -0.3860
 8330TIP3    H146405   1.805   3.452  15.078 -0.2898 -2.0865 -0.2135
 8330TIP3    H246406   1.749   3.443  14.937  0.2065 -0.9182 -0.4870
 8331TIP3   OH246407   1.445   0.417   2.725  0.0585 -0.2114 -0.0113
 8331TIP3    H146408   1.447   0.343   2.785  0.3658 -1.2215 -1.2616
 8331TIP3    H246409   1.417   0.381   2.642  1.6207  0.7904 -1.0050
 8332TIP3   OH246410   5.209   1.280   3.181  0.4658 -0.0068 -0.1984
 8332TIP3    H146411   5.201   1.333   3.260 -0.9399 -0.8840  0.2541
 8332TIP3    H246412   5.153   1.324   3.117 -2.6745 -2.2416  0.8982
 8333TIP3   OH246413   5.101   3.253   4.375 -0.0821  0.1651  1.1060
 8333TIP3    H146414   5.102   3.211   4.461  2.3249 -1.7937  0.1949
 8333TIP3    H246415   5.193   3.254   4.348 -0.6845  1.6354 -1.0259
 8334TIP3   OH246416   0.163   5.001   0.129 -0.3881 -0.2338 -0.8151
 8334TIP3    H146417   0.137   4.921   0.082 -0.6861 -1.8378  1.9550
 8334TIP3    H246418   0.250   4.981   0.164  0.0250  1.0975 -1.0709
 8335TIP3   OH246419   3.253   6.141  14.202 -0.0761  0.5786 -0.1540
 8335TIP3    H146420   3.207   6.062  14.172 -0.3934  0.2806  1.0705
 8335TIP3    H246421   3.187   6.211  14.197 -0.3783  0.3614  0.6022
 8336TIP3   OH246422   4.716   2.495  17.075 -0.0497  0.0422 -0.5845
 8336TIP3    H146423   4.801   2.455  17.060 -0.3484 -0.5305 -0.7712
 8336TIP3    H246424   4.653   2.429  17.046 -0.5445  0.7500 -1.1433
 8337TIP3   OH246425   5.926   3.812  15.756  0.5473  0.3977 -0.5120
 8337TIP3    H146426   5.922   3.817  15.661 -0.6597  1.0589 -0.4377
 8337TIP3    H246427   5.855   3.752  15.780 -0.1622  1.4401  0.0497
 8338TIP3   OH246428   6.616   2.546   3.531  0.2198  0.0048  0.0209
 8338TIP3    H146429   6.693   2.518   3.483  0.9018  0.7283  0.6856
 8338TIP3    H246430   6.593   2.630   3.493  0.4160  0.3076  0.5752
 8339TIP3   OH246431   1.526   6.576  16.356 -0.1255 -0.6330  0.0542
 8339TIP3    H146432   1.448   6.622  16.326  0.3989  0.1132 -0.1931
 8339TIP3    H246433   1.589   6.646  16.373  0.2991 -1.1962  0.7882
 8340TIP3   OH246434   5.376   2.103  13.277 -0.3873 -0.2388  0.0651
 8340TIP3    H146435   5.293   2.087  13.322 -1.2672 -1.1842 -1.8298
 8340TIP3    H246436   5.352   2.155  13.200  1.0307  1.0277  0.4465
 8341TIP3   OH246437   2.448   5.868  12.616 -0.0461  0.1885 -0.0016
 8341TIP3    H146438   2.413   5.946  12.660 -0.3786  1.1608 -1.9616
 8341TIP3    H246439   2.526   5.899  12.571 -0.4442 -0.5205 -1.1786
 8342TIP3   OH246440   5.831   2.503  12.253 -0.3665 -0.0829 -0.0071
 8342TIP3    H146441   5.747   2.464  12.229 -1.2263  1.9628 -0.4577
 8342TIP3    H246442   5.810   2.562  12.326  0.5452  0.9151 -0.5345
 8343TIP3   OH246443   3.390   5.168   1.769  0.2453  0.0091 -0.1465
 8343TIP3    H146444   3.372   5.080   1.737 -0.1823 -0.1003  0.3744
 8343TIP3    H246445   3.463   5.199   1.716 -0.2068 -0.3007 -0.9700
 8344TIP3   OH246446   2.342   1.301  17.164 -0.2959 -0.0699 -0.6256
 8344TIP3    H146447   2.397   1.270  17.093  0.5418 -0.2076  0.0782
 8344TIP3    H246448   2.402   1.344  17.225 -1.1457  0.9676 -0.5008
 8345TIP3   OH246449   0.324   6.169   2.357 -0.0504 -0.5701  0.6096
 8345TIP3    H146450   0.255   6.218   2.314 -1.4111 -1.5430  1.6528
 8345TIP3    H246451   0.381   6.139   2.285 -1.2251 -0.5620 -0.3298
 8346TIP3   OH246452   1.827   2.212   6.107  0.6406 -0.1961  0.5812
 8346TIP3    H146453   1.858   2.141   6.051 -4.3259 -3.1214  1.2043
 8346TIP3    H246454   1.787   2.275   6.046  1.9799  0.4047  0.3048
 8347TIP3   OH246455   5.201   0.056  11.942  0.6571 -0.4616  0.3446
 8347TIP3    H146456   5.222   0.104  12.022 -0.3315  0.2875  0.1681
 8347TIP3    H246457   5.108   0.073  11.928  0.8919 -0.2969 -1.1521
 8348TIP3   OH246458   2.490   4.119  11.652  0.3874 -0.5964  0.4370
 8348TIP3    H146459   2.515   4.120  11.745 -0.9216 -1.8637  0.8230
 8348TIP3    H246460   2.570   4.092  11.606  1.4688  1.4787  1.0312
 8349TIP3   OH246461   3.063   0.646   4.993  0.4755  0.1887  0.4917
 8349TIP3    H146462   3.002   0.708   4.954 -0.4238  0.2432  1.9305
 8349TIP3    H246463   3.129   0.701   5.035  1.2567  0.1343 -0.6509
 8350TIP3   OH246464   6.569   5.586   1.882 -0.6839 -0.1758 -0.1920
 8350TIP3    H146465   6.490   5.611   1.836 -0.0291  1.4267 -0.4734
 8350TIP3    H246466   6.564   5.491   1.889 -2.2504 -0.1477 -0.8831
 8351TIP3   OH246467   0.734   5.894  14.916 -0.2252  0.7973  0.0179
 8351TIP3    H146468   0.771   5.906  15.004 -1.9838 -1.3016  1.0969
 8351TIP3    H246469   0.679   5.815  14.924 -3.3722  2.6800 -1.9968
 8352TIP3   OH246470   1.068   0.877  15.429 -0.4907 -0.2086 -0.0982
 8352TIP3    H146471   1.043   0.932  15.504 -0.1905  0.5086 -0.5165
 8352TIP3    H246472   1.003   0.896  15.362  1.9565  2.8678 -1.7707
 8353TIP3   OH246473   0.522   0.665   3.769 -0.1110  0.1001 -0.2446
 8353TIP3    H146474   0.447   0.721   3.791  0.4737  0.6113  0.4733
 8353TIP3    H246475   0.499   0.580   3.805 -1.1437 -0.2088 -1.6131
 8354TIP3   OH246476   5.576   5.368   2.421  0.4229 -0.8114 -0.0697
 8354TIP3    H146477   5.629   5.448   2.424  0.7725 -0.9006 -2.7780
 8354TIP3    H246478   5.639   5.299   2.404 -0.3844 -1.1165 -1.8666
 8355TIP3   OH246479   6.374   6.763  15.423 -0.0540 -0.3478  0.7862
 8355TIP3    H146480   6.389   6.750  15.330 -0.2915 -0.2788  0.7400
 8355TIP3    H246481   6.445   6.714  15.465 -1.2821 -2.3633  0.6197
 8356TIP3   OH246482   5.174   4.641  12.244  0.3292  0.1509  0.6837
 8356TIP3    H146483   5.108   4.707  12.224  1.0079  0.8019  0.5930
 8356TIP3    H246484   5.249   4.663  12.189  0.5193 -0.7627  0.5574
 8357TIP3   OH246485   3.380   1.839  14.936  0.6351  0.4807 -0.5317
 8357TIP3    H146486   3.348   1.789  15.012  0.5548  1.2716 -0.0440
 8357TIP3    H246487   3.412   1.772  14.875 -0.1320 -0.2143 -0.1857
 8358TIP3   OH246488   5.264   1.424   1.748 -0.4162  0.3514  0.7113
 8358TIP3    H146489   5.317   1.351   1.780 -0.3057  0.4298  0.7051
 8358TIP3    H246490   5.326   1.480   1.700 -0.7961 -0.4096 -0.7176
 8359TIP3   OH246491   3.852   6.700   5.685  0.2506 -0.1819  0.3415
 8359TIP3    H146492   3.786   6.700   5.616  1.2389  3.3928 -0.7210
 8359TIP3    H246493   3.805   6.724   5.764 -0.0936  0.2814 -0.0024
 8360TIP3   OH246494   5.862   4.791  12.450 -0.8828 -0.2588 -0.1470
 8360TIP3    H146495   5.941   4.841  12.469 -0.0469 -0.7970 -2.1352
 8360TIP3    H246496   5.864   4.718  12.512  0.1638 -0.2734 -0.1944
 8361TIP3   OH246497   6.573   3.633  16.931 -0.1481 -0.0870 -0.6658
 8361TIP3    H146498   6.481   3.645  16.908 -0.7311 -1.7443  0.6638
 8361TIP3    H246499   6.608   3.579  16.859 -0.5781 -0.6148 -0.4905
 8362TIP3   OH246500   4.684   2.939  16.065  0.5001  0.2529 -0.0178
 8362TIP3    H146501   4.737   2.859  16.066 -0.5892 -0.5068 -1.1155
 8362TIP3    H246502   4.594   2.908  16.078  0.1275  1.3715  0.1641
 8363TIP3   OH246503   4.739   1.079   0.457 -0.3035  0.2967  0.0106
 8363TIP3    H146504   4.816   1.029   0.428 -0.0178  0.7053  0.0598
 8363TIP3    H246505   4.692   1.019   0.514  0.6482  0.4750  0.9977
 8364TIP3   OH246506   6.604   2.364   2.685 -0.2281 -0.6782  0.1788
 8364TIP3    H146507   6.599   2.287   2.627 -1.4912  0.7374 -1.6433
 8364TIP3    H246508   6.598   2.439   2.626 -0.4313  0.8250  2.0673
 8365TIP3   OH246509   6.445   4.843   4.390  0.5893 -0.1855  1.0193
 8365TIP3    H146510   6.359   4.805   4.371 -0.0653  0.9971  1.5407
 8365TIP3    H246511   6.506   4.769   4.387 -0.2733 -0.8521 -0.5269
 8366TIP3   OH246512   2.443   4.938  11.271 -0.1152 -0.2529 -0.2659
 8366TIP3    H146513   2.400   4.915  11.189 -0.7513 -1.3817  0.3731
 8366TIP3    H246514   2.372   4.944  11.335  0.4842 -0.4081  0.4239
 8367TIP3   OH246515   2.272   1.589  11.190  0.1362 -0.0842  0.5238
 8367TIP3    H146516   2.267   1.679  11.160 -0.4273 -0.6503 -1.0999
 8367TIP3    H246517   2.318   1.594  11.274 -1.1434  1.8663  1.1377
 8368TIP3   OH246518   5.490   0.796  15.178 -0.2062 -0.1556  0.7126
 8368TIP3    H146519   5.422   0.736  15.147 -0.1403 -0.7511  1.6674
 8368TIP3    H246520   5.500   0.773  15.271 -0.0260  1.1933  1.0406
 8369TIP3   OH246521   1.001   4.428  14.414  0.3552  0.0841  0.4117
 8369TIP3    H146522   0.908   4.437  14.392  0.5017 -0.8815 -0.6543
 8369TIP3    H246523   1.045   4.424  14.330  1.2898 -0.2217  0.9072
 8370TIP3   OH246524   2.932   4.670  12.971 -0.1469 -0.7692  0.1213
 8370TIP3    H146525   2.907   4.594  12.920  2.2842 -1.4042 -0.1478
 8370TIP3    H246526   2.927   4.641  13.062  1.2809 -1.4185 -0.0002
 8371TIP3   OH246527   3.367   5.293   0.144  0.4294 -0.0060 -0.2173
 8371TIP3    H146528   3.318   5.363   0.185 -1.7691 -1.2273 -0.7103
 8371TIP3    H246529   3.398   5.239   0.217 -0.9727 -0.5349  0.0000
 8372TIP3   OH246530   5.914   4.222   6.108 -0.8740  0.1220  0.2112
 8372TIP3    H146531   5.912   4.154   6.176 -0.8626  0.1544  0.2431
 8372TIP3    H246532   5.939   4.176   6.028 -0.7219  0.1166  0.2636
 8373TIP3   OH246533   2.340   0.311   2.367 -0.4306 -0.4434  0.3701
 8373TIP3    H146534   2.316   0.239   2.308 -0.5496 -1.8753  2.1149
 8373TIP3    H246535   2.401   0.271   2.429  0.3108  1.2425  0.7388
 8374TIP3   OH246536   3.610   4.214   1.374  0.1753  0.2953 -0.2199
 8374TIP3    H146537   3.653   4.274   1.436 -0.5853  1.6915 -1.0096
 8374TIP3    H246538   3.682   4.179   1.322  1.1046 -2.7212  2.9277
 8375TIP3   OH246539   5.370   3.541   1.395 -0.0415 -0.3172  0.5707
 8375TIP3    H146540   5.415   3.512   1.474 -1.5704  1.2993  2.0764
 8375TIP3    H246541   5.282   3.505   1.403  0.0626 -0.9282 -0.8803
 8376TIP3   OH246542   4.406   5.621  11.473  0.0920  0.3540  0.1926
 8376TIP3    H146543   4.452   5.695  11.512 -1.5790  2.7639 -2.1911
 8376TIP3    H246544   4.322   5.658  11.443 -2.9615 -3.5961  3.3215
 8377TIP3   OH246545   1.326   1.039  14.854  0.2369  0.2956 -0.4696
 8377TIP3    H146546   1.367   1.053  14.940  0.1420 -0.4554 -0.2956
 8377TIP3    H246547   1.282   1.122  14.835  1.0314  0.7753 -0.2127
 8378TIP3   OH246548   2.711   4.529   1.123  0.0331 -0.4672 -0.1636
 8378TIP3    H146549   2.740   4.528   1.215 -1.2172  1.9898  0.3006
 8378TIP3    H246550   2.682   4.439   1.107  0.5351 -1.0135  1.7816
 8379TIP3   OH246551   4.482   4.312   0.507  0.0584  0.2196 -0.4705
 8379TIP3    H146552   4.503   4.396   0.549  0.4828  0.1663 -0.5842
 8379TIP3    H246553   4.554   4.296   0.447  0.4853 -0.7377  0.2965
 8380TIP3   OH246554   1.135   5.684   0.122 -0.6983 -0.1481  0.1111
 8380TIP3    H146555   1.225   5.657   0.140 -0.8692  0.0748  1.2945
 8380TIP3    H246556   1.139   5.718   0.032 -0.1151 -2.3979 -0.7365
 8381TIP3   OH246557   1.021   4.234   3.904 -0.1432 -0.3350  0.0414
 8381TIP3    H146558   0.934   4.211   3.935  0.1966 -4.0382 -1.4476
 8381TIP3    H246559   1.014   4.232   3.808  0.9226  2.1846 -0.1304
 8382TIP3   OH246560   5.951   6.046   1.369  0.0611 -0.2462  0.1795
 8382TIP3    H146561   6.032   6.092   1.393  0.1119  0.8645 -2.0547
 8382TIP3    H246562   5.981   5.965   1.329  0.1539  0.9663 -2.2918
 8383TIP3   OH246563   0.697   6.121  14.460 -0.9043 -1.1879  0.2985
 8383TIP3    H146564   0.721   6.166  14.380 -0.5059 -0.9633  0.5393
 8383TIP3    H246565   0.769   6.061  14.477 -0.2864 -0.1960  1.2668
 8384TIP3   OH246566   6.618   5.986   0.694 -0.1113 -0.6867 -0.3085
 8384TIP3    H146567   6.641   6.008   0.784 -2.7671 -0.1686  0.2975
 8384TIP3    H246568   6.628   6.068   0.646  0.9477 -0.8765 -0.4252
 8385TIP3   OH246569   3.410   3.829   0.924 -0.7044  0.1770  0.2907
 8385TIP3    H146570   3.433   3.739   0.945 -2.0670  0.1657  1.9182
 8385TIP3    H246571   3.393   3.829   0.830  1.0050 -0.8734 -0.0231
 8386TIP3   OH246572   6.452   6.143   1.689 -0.2023  0.0843  0.2379
 8386TIP3    H146573   6.458   6.049   1.703 -0.8935 -0.0657 -0.4234
 8386TIP3    H246574   6.514   6.161   1.619 -1.9953 -0.3116 -1.4945
 8387TIP3   OH246575   2.451   3.030  15.822  0.2867 -0.4364 -0.6337
 8387TIP3    H146576   2.471   3.000  15.734  1.0231  0.3694 -0.7483
 8387TIP3    H246577   2.510   2.980  15.879  0.9573  0.2147 -0.7523
 8388TIP3   OH246578   0.831   1.506  16.568  0.2314 -0.6473 -0.2532
 8388TIP3    H146579   0.844   1.415  16.542  2.0604 -1.0957  2.0573
 8388TIP3    H246580   0.747   1.506  16.614 -0.1532 -0.9759 -0.9313
 8389TIP3   OH246581   1.209   6.148   4.421  0.8465 -0.2062 -0.8091
 8389TIP3    H146582   1.115   6.145   4.406  0.4046 -0.4131  1.8382
 8389TIP3    H246583   1.244   6.074   4.371 -0.7047 -1.6182  0.1355
 8390TIP3   OH246584   0.991   5.957   5.614  0.0175 -0.4200  0.0658
 8390TIP3    H146585   1.040   6.014   5.674  0.1201 -0.9646  0.5091
 8390TIP3    H246586   1.058   5.899   5.577 -0.0322 -0.0165 -0.6556
 8391TIP3   OH246587   1.952   6.245  13.265  0.4071  0.3720 -0.0845
 8391TIP3    H146588   1.999   6.237  13.182  0.2214 -0.4041 -0.1209
 8391TIP3    H246589   1.949   6.155  13.299  0.2016  0.6373  0.6057
 8392TIP3   OH246590   3.038   6.630  12.473  0.0443  0.3795 -0.0081
 8392TIP3    H146591   3.088   6.555  12.505  1.8829  1.7008  0.3569
 8392TIP3    H246592   2.988   6.661  12.548  1.0107  0.8455  0.4596
 8393TIP3   OH246593   1.554   1.643  16.707 -0.3408  0.2334  0.1620
 8393TIP3    H146594   1.526   1.708  16.773 -0.3068  0.3191  0.0912
 8393TIP3    H246595   1.590   1.696  16.636  3.7927  0.0352  1.9507
 8394TIP3   OH246596   2.774   2.027  16.113  0.5322  0.1445 -0.6139
 8394TIP3    H146597   2.760   2.041  16.020 -0.1114 -0.0831 -0.5543
 8394TIP3    H246598   2.865   2.051  16.128 -0.2849  3.4412 -0.6502
 8395TIP3   OH246599   1.908   3.790   0.564  0.5485 -0.0587  0.3083
 8395TIP3    H146600   1.926   3.720   0.501  0.7539  0.5297 -0.2860
 8395TIP3    H246601   1.916   3.747   0.649 -2.5803 -1.5842 -0.0840
 8396TIP3   OH246602   3.958   4.239   4.477 -0.0330  0.5021 -0.0929
 8396TIP3    H146603   3.948   4.282   4.563  2.0798  1.3116 -0.2187
 8396TIP3    H246604   3.967   4.146   4.498  2.8576  0.9163  0.8113
 8397TIP3   OH246605   2.916   5.513   2.514 -0.2416 -0.5561  0.2426
 8397TIP3    H146606   2.963   5.434   2.486  1.8935  0.7609  0.0243
 8397TIP3    H246607   2.972   5.550   2.582 -1.2786  0.7441  0.3918
 8398TIP3   OH246608   5.683   3.200  13.878  0.2116 -0.4892  0.3042
 8398TIP3    H146609   5.757   3.252  13.845 -0.6285  0.5804  0.0650
 8398TIP3    H246610   5.611   3.222  13.819  0.3484 -3.5227 -1.0739
 8399TIP3   OH246611   6.439   5.202  17.073 -0.5020  0.1561  0.0332
 8399TIP3    H146612   6.531   5.219  17.093 -0.6483 -0.3950  1.2489
 8399TIP3    H246613   6.439   5.175  16.981  0.3780  1.4143 -0.3434
 8400TIP3   OH246614   3.666   4.985  16.438  0.1241  0.1146 -0.0558
 8400TIP3    H146615   3.626   4.899  16.424 -0.6033  0.3907  0.3142
 8400TIP3    H246616   3.665   5.026  16.351  2.0439 -0.9087 -0.5914
 8401TIP3   OH246617   3.572   5.468   5.254 -0.4049 -0.2907  0.8747
 8401TIP3    H146618   3.546   5.459   5.163 -1.2445  1.0460  0.9767
 8401TIP3    H246619   3.634   5.540   5.255 -0.7569  0.0084  1.4330
 8402TIP3   OH246620   0.514   5.620   0.557  0.2217 -0.2923  0.9440
 8402TIP3    H146621   0.501   5.529   0.581  0.7520 -0.1792  1.6853
 8402TIP3    H246622   0.479   5.670   0.631 -0.9264  0.1385  0.1390
 8403TIP3   OH246623   5.466   1.714  12.508  0.0782 -0.3827 -0.2250
 8403TIP3    H146624   5.401   1.781  12.486 -1.6376 -1.9515 -0.0588
 8403TIP3    H246625   5.538   1.763  12.549 -0.3946  1.5432 -1.6118
 8404TIP3   OH246626   2.045   1.588  15.611 -0.3188 -0.5658  0.1478
 8404TIP3    H146627   2.029   1.664  15.556  0.0319 -0.8022 -0.2812
 8404TIP3    H246628   2.140   1.586  15.622 -0.4012 -0.3956  0.9390
 8405TIP3   OH246629   4.289   0.982  17.205 -0.1145  0.1742  0.0208
 8405TIP3    H146630   4.327   0.979  17.293  1.5328 -1.3403 -0.7009
 8405TIP3    H246631   4.210   0.927  17.211  0.2065 -0.2451  0.4720
 8406TIP3   OH246632   5.075   0.696   1.688 -0.0281 -0.8441  0.4122
 8406TIP3    H146633   5.002   0.647   1.727  0.5767 -2.0713  0.0309
 8406TIP3    H246634   5.150   0.676   1.744 -0.2796  1.5992  1.6721
 8407TIP3   OH246635   5.236   1.357   6.553  0.1121  0.3658  0.4707
 8407TIP3    H146636   5.246   1.357   6.649  2.0709  1.2825  0.2741
 8407TIP3    H246637   5.223   1.450   6.531 -0.0002  0.1885 -0.2022
 8408TIP3   OH246638   4.571   6.665   0.213  0.3864  0.1267 -0.6273
 8408TIP3    H146639   4.604   6.580   0.184  0.0924 -0.4645  0.7480
 8408TIP3    H246640   4.578   6.662   0.308  0.0836  1.5290 -0.5570
 8409TIP3   OH246641   1.177   1.078   1.607  0.6041 -0.3360  0.3116
 8409TIP3    H146642   1.150   0.996   1.566 -0.4016 -0.4270  1.1466
 8409TIP3    H246643   1.139   1.146   1.550  1.1940 -0.4480 -0.2180
 8410TIP3   OH246644   2.840   5.100   0.746  0.3406  0.2198 -0.3505
 8410TIP3    H146645   2.772   5.036   0.729  0.4613  0.1959 -0.7340
 8410TIP3    H246646   2.827   5.125   0.838  1.3402 -1.6018  0.3275
 8411TIP3   OH246647   4.885   3.162   2.843  0.8647  0.2544 -0.1906
 8411TIP3    H146648   4.853   3.243   2.803  1.3111  1.2985  1.5260
 8411TIP3    H246649   4.839   3.157   2.927 -0.8350 -2.4454 -1.2139
 8412TIP3   OH246650   4.021   6.096  13.343  0.1513 -0.1742 -0.1313
 8412TIP3    H146651   4.088   6.130  13.403  0.0914 -1.1785  0.5076
 8412TIP3    H246652   3.952   6.162  13.345  0.2043 -0.1486  0.8043
 8413TIP3   OH246653   4.943   0.538  15.448 -0.8645  0.5639  0.2174
 8413TIP3    H146654   4.889   0.616  15.433 -0.3348  0.5627 -1.9366
 8413TIP3    H246655   4.953   0.499  15.361  2.0192  0.1736  0.6823
 8414TIP3   OH246656   2.648   5.337  12.549 -0.3370  0.0238  0.9938
 8414TIP3    H146657   2.701   5.338  12.469  1.3031 -2.8168  1.9947
 8414TIP3    H246658   2.709   5.359  12.619 -1.3327  0.5225  1.7221
 8415TIP3   OH246659   2.476   5.209   2.164 -0.2928 -0.0990  0.3108
 8415TIP3    H146660   2.425   5.280   2.203  0.4377  0.5047  0.1624
 8415TIP3    H246661   2.560   5.211   2.209  0.4060  0.3212 -0.9777
 8416TIP3   OH246662   5.579   2.054  11.239 -0.0820  0.1484  0.8863
 8416TIP3    H146663   5.662   2.101  11.241 -0.2454  0.4912 -0.0354
 8416TIP3    H246664   5.527   2.099  11.173 -0.4351 -0.9988  0.3621
 8417TIP3   OH246665   6.276   4.737  11.709 -0.2374 -0.1653 -0.0261
 8417TIP3    H146666   6.245   4.773  11.792 -2.0839 -2.8013  0.4834
 8417TIP3    H246667   6.198   4.735  11.653  0.3112 -1.2761 -0.7716
 8418TIP3   OH246668   1.707   1.622   0.720  0.3918  0.1236  0.5801
 8418TIP3    H146669   1.789   1.661   0.691  1.3778 -0.9969  1.7298
 8418TIP3    H246670   1.711   1.532   0.687 -0.3961  0.0849  0.5930
 8419TIP3   OH246671   2.048   4.097   0.117  0.0618  0.6373  0.4783
 8419TIP3    H146672   2.077   4.188   0.104  4.4159 -1.0182 -2.6347
 8419TIP3    H246673   2.018   4.069   0.030 -1.2438 -0.9345  1.4088
 8420TIP3   OH246674   2.094   6.690  10.616  0.1189 -0.2737  0.4666
 8420TIP3    H146675   2.037   6.763  10.639 -0.5375  0.3514 -2.8303
 8420TIP3    H246676   2.180   6.730  10.600  0.3622 -0.5657  1.0424
 8421TIP3   OH246677   4.438   6.392   2.465  0.2328 -0.6490  0.1805
 8421TIP3    H146678   4.358   6.420   2.510  0.7703  1.2253 -0.0091
 8421TIP3    H246679   4.410   6.381   2.374 -0.1804 -1.6454  0.4134
 8422TIP3   OH246680   5.108   1.237   6.322  0.7840  0.2923  0.4211
 8422TIP3    H146681   5.150   1.286   6.393 -2.2815 -0.2204  2.6790
 8422TIP3    H246682   5.023   1.279   6.310 -0.0756 -1.6894 -0.6799
 8423TIP3   OH246683   0.907   2.945  12.799  0.1594  0.2445  0.4496
 8423TIP3    H146684   0.963   2.868  12.806 -0.6369 -0.3854 -0.1124
 8423TIP3    H246685   0.821   2.911  12.776 -0.2932  1.2678  0.5911
 8424TIP3   OH246686   5.602   4.734   1.583  1.0290 -0.3943  0.2072
 8424TIP3    H146687   5.617   4.640   1.581  0.9058 -0.4157  0.2733
 8424TIP3    H246688   5.647   4.764   1.662  1.9175 -0.2415 -0.3537
 8425TIP3   OH246689   4.107   0.208  13.250  0.2779  0.3165  0.6362
 8425TIP3    H146690   4.148   0.163  13.176  1.3710 -0.0341  1.4423
 8425TIP3    H246691   4.014   0.183  13.244  0.9771 -2.6941  1.5120
 8426TIP3   OH246692   3.304   4.611  10.994 -0.1455 -0.8297  0.3001
 8426TIP3    H146693   3.312   4.655  10.909  2.1151 -1.4388  0.1567
 8426TIP3    H246694   3.394   4.605  11.026 -1.0328 -0.0280  3.0608
 8427TIP3   OH246695   0.810   5.689   6.042 -0.0826 -0.3269 -0.0267
 8427TIP3    H146696   0.880   5.710   5.980  0.3617  0.9133  0.8755
 8427TIP3    H246697   0.856   5.655   6.119 -0.5833 -1.0667 -0.0513
 8428TIP3   OH246698   0.110   0.936   5.765 -0.3839 -0.3852  0.0267
 8428TIP3    H146699   0.130   0.853   5.721 -1.5371  0.5273 -2.2674
 8428TIP3    H246700   0.027   0.965   5.726 -1.4756  0.4479  2.8475
 8429TIP3   OH246701   2.579   2.320   2.924 -0.7176 -0.0914  0.3688
 8429TIP3    H146702   2.511   2.271   2.878 -0.1497 -1.6059  1.0890
 8429TIP3    H246703   2.564   2.300   3.017 -0.2772  0.8453  0.6495
 8430TIP3   OH246704   2.008   6.263  12.764  0.3025  0.3529  0.5184
 8430TIP3    H146705   2.015   6.173  12.732  0.4916  0.3217  0.6499
 8430TIP3    H246706   1.937   6.301  12.712 -0.5769 -0.2258  1.2644
 8431TIP3   OH246707   0.017   1.934  11.209  0.2893 -0.3490 -0.4584
 8431TIP3    H146708  -0.043   1.890  11.149  0.2971 -1.1409  0.1014
 8431TIP3    H246709  -0.004   1.898  11.295  1.3356 -0.3957 -0.2080
 8432TIP3   OH246710   0.460   6.466  10.507 -0.3061  0.4123 -0.5011
 8432TIP3    H146711   0.396   6.522  10.464 -3.0238 -0.8557  1.7287
 8432TIP3    H246712   0.448   6.380  10.467 -0.1797  0.1204  0.0742
 8433TIP3   OH246713   3.697   5.978   5.261  0.1212 -0.1393 -0.1147
 8433TIP3    H146714   3.763   6.046   5.249 -0.9197  0.8724 -0.2370
 8433TIP3    H246715   3.682   5.944   5.172 -1.0434  1.1069 -0.4180
 8434TIP3   OH246716   5.948   5.777   5.532  0.2008 -0.4239  0.1370
 8434TIP3    H146717   5.991   5.752   5.450 -1.2534 -0.8107 -0.5238
 8434TIP3    H246718   5.903   5.859   5.511  1.9986  0.9012  1.3039
 8435TIP3   OH246719   4.733   3.830  14.034  0.4839 -0.1290 -0.2154
 8435TIP3    H146720   4.661   3.769  14.052  0.5172 -0.2042 -0.3318
 8435TIP3    H246721   4.703   3.881  13.959  1.0418 -0.9791 -1.0309
 8436TIP3   OH246722   3.328   1.606   4.062  0.0016  0.0406 -0.7567
 8436TIP3    H146723   3.283   1.587   4.145  2.0491 -0.2011  0.3326
 8436TIP3    H246724   3.321   1.701   4.052 -1.1785 -0.0481 -0.8735
 8437TIP3   OH246725   2.370   4.388  12.780  0.5910  0.4756  0.2563
 8437TIP3    H146726   2.311   4.441  12.835  0.6967  0.3304  0.5074
 8437TIP3    H246727   2.407   4.451  12.719 -1.3989  0.2435 -1.2571
 8438TIP3   OH246728   6.170   2.562  12.277  1.1538  0.6489  0.2807
 8438TIP3    H146729   6.182   2.648  12.317 -0.6099  0.6946  0.7273
 8438TIP3    H246730   6.118   2.580  12.198  1.4336  0.0830 -0.0304
 8439TIP3   OH246731   0.768   0.346   4.789  0.4470  0.2039 -0.2309
 8439TIP3    H146732   0.826   0.281   4.828  0.1156 -1.8187 -2.9938
 8439TIP3    H246733   0.680   0.318   4.817  0.4164  0.4155 -0.1115
 8440TIP3   OH246734   6.785   4.939   6.251  0.0295  0.8799  0.0844
 8440TIP3    H146735   6.808   5.030   6.232 -0.9283  0.8670 -1.2422
 8440TIP3    H246736   6.869   4.894   6.259  0.5072  1.8361  0.5445
 8441TIP3   OH246737   0.255   6.345   2.045 -0.2838  0.1088  0.3140
 8441TIP3    H146738   0.315   6.405   2.001 -0.1595 -1.3444 -1.5507
 8441TIP3    H246739   0.262   6.263   1.996 -2.1826 -0.7333  1.3789
 8442TIP3   OH246740   6.630   3.249  16.305  0.3788  0.4997  0.0417
 8442TIP3    H146741   6.679   3.297  16.239 -1.6883  1.2353 -0.9887
 8442TIP3    H246742   6.552   3.302  16.320 -0.0593 -0.5904  1.7361
 8443TIP3   OH246743   2.410   2.474  13.210  0.1992  0.0867  0.5437
 8443TIP3    H146744   2.430   2.539  13.278  1.0689 -0.4819  0.8388
 8443TIP3    H246745   2.352   2.411  13.255 -1.6249  1.2824 -0.0786
 8444TIP3   OH246746   3.629   1.182   5.920 -0.4320 -0.0380 -0.0302
 8444TIP3    H146747   3.691   1.187   5.992  0.1555 -1.4494 -0.4269
 8444TIP3    H246748   3.566   1.252   5.938  1.6758  1.9139 -0.0307
 8445TIP3   OH246749   5.982   4.934  15.248  0.0369 -0.3210 -0.1886
 8445TIP3    H146750   6.039   5.008  15.226  0.9470 -0.4067  1.7299
 8445TIP3    H246751   5.921   4.969  15.313 -0.6441 -0.8272 -0.5469
 8446TIP3   OH246752   0.241   6.720  10.970  0.2815  0.7158  0.0139
 8446TIP3    H146753   0.183   6.751  10.900  0.4806  1.3887  0.1351
 8446TIP3    H246754   0.210   6.764  11.049 -0.2103 -0.3801  0.4375
 8447TIP3   OH246755   0.884   5.138  11.528  0.5220  0.3593  0.0504
 8447TIP3    H146756   0.884   5.207  11.594  2.0245  0.4438 -0.0124
 8447TIP3    H246757   0.932   5.176  11.454  0.7012 -0.4740 -0.2733
 8448TIP3   OH246758   2.105   2.842   2.093  0.0113  0.2516  0.3178
 8448TIP3    H146759   2.158   2.815   2.019 -0.8661  0.7215 -0.4871
 8448TIP3    H246760   2.030   2.783   2.093  1.0325 -1.1204  2.1022
 8449TIP3   OH246761   6.509   5.305   5.341  0.1404  0.8376  0.1847
 8449TIP3    H146762   6.529   5.362   5.267 -0.7642  2.5645  1.2286
 8449TIP3    H246763   6.552   5.222   5.320  2.5877  2.3007 -0.7515
 8450TIP3   OH246764   0.636   3.133   5.526  0.1414 -0.3442 -0.1575
 8450TIP3    H146765   0.591   3.062   5.571  1.0729 -1.4005 -0.8413
 8450TIP3    H246766   0.647   3.101   5.436 -1.0770  1.4313 -0.9747
 8451TIP3   OH246767   0.411   3.896  16.891  0.0465 -0.0247  0.0507
 8451TIP3    H146768   0.366   3.964  16.841  1.1471 -0.6685 -1.8607
 8451TIP3    H246769   0.341   3.838  16.922 -0.7560  1.0970  0.3801
 8452TIP3   OH246770   5.782   3.911   4.476  0.2751  0.7898  0.2483
 8452TIP3    H146771   5.700   3.893   4.431 -0.1441 -0.4014  1.4499
 8452TIP3    H246772   5.756   3.926   4.567  1.4870 -0.6940  0.8618
 8453TIP3   OH246773   6.146   3.541   3.015  0.4106  0.0910  0.1035
 8453TIP3    H146774   6.234   3.504   3.024  0.2109  0.2532  2.9486
 8453TIP3    H246775   6.141   3.611   3.080 -2.4823 -1.2426  1.4521
 8454TIP3   OH246776   5.969   5.988  14.284  0.1070  0.4722 -0.3087
 8454TIP3    H146777   5.922   5.913  14.320 -1.1099  1.0322 -0.7079
 8454TIP3    H246778   6.052   5.990  14.333 -0.2744 -0.5200  0.3978
 8455TIP3   OH246779   0.576   1.510   3.104 -0.1463 -0.0420  0.3294
 8455TIP3    H146780   0.552   1.480   3.016  0.3951 -0.6002  0.3700
 8455TIP3    H246781   0.639   1.445   3.135 -1.4051 -0.6467  1.7015
 8456TIP3   OH246782   2.883   3.809  14.375 -0.3576 -0.4494 -0.4861
 8456TIP3    H146783   2.820   3.739  14.392 -0.2120 -0.6516 -0.7812
 8456TIP3    H246784   2.965   3.764  14.355 -0.4183 -0.2100 -1.3147
 8457TIP3   OH246785   4.330   3.994  14.012  0.5266  0.3317  0.0016
 8457TIP3    H146786   4.334   4.087  13.990 -1.6264 -0.1072 -2.5176
 8457TIP3    H246787   4.302   3.951  13.931 -0.4850 -2.2761  1.6486
 8458TIP3   OH246788   6.452   2.598  12.290 -0.1396 -0.2782  0.0155
 8458TIP3    H146789   6.360   2.583  12.265  0.3158 -1.2275 -1.1787
 8458TIP3    H246790   6.494   2.513  12.277  0.8318  0.0649  0.9041
 8459TIP3   OH246791   5.059   3.897   2.095  0.4965  0.4992  0.0285
 8459TIP3    H146792   5.065   3.865   2.185  1.6110 -0.4495 -0.3744
 8459TIP3    H246793   5.116   3.839   2.045 -0.4890  0.7154 -1.3779
 8460TIP3   OH246794   2.459   2.246   1.394  0.1068  0.1618 -0.5822
 8460TIP3    H146795   2.429   2.227   1.306 -1.5498  1.4647 -0.3174
 8460TIP3    H246796   2.549   2.278   1.382 -0.6442  1.8331 -1.9538
 8461TIP3   OH246797   4.074   5.607  16.792  0.1328  0.0433  0.7406
 8461TIP3    H146798   4.116   5.624  16.708 -1.4182 -1.9762 -0.4872
 8461TIP3    H246799   4.006   5.674  16.800  0.3073  0.2591  0.3942
 8462TIP3   OH246800   0.271   5.473  13.083  0.3581 -0.2277 -0.0919
 8462TIP3    H146801   0.238   5.394  13.124 -0.5403  1.2201  2.0491
 8462TIP3    H246802   0.315   5.521  13.154 -0.8706  2.1313 -0.8630
 8463TIP3   OH246803   4.852   1.194  16.600  0.3079 -0.2374  0.1367
 8463TIP3    H146804   4.947   1.207  16.589  0.2351 -0.3119 -0.6346
 8463TIP3    H246805   4.837   1.205  16.693  1.1650 -0.7509  0.3432
 8464TIP3   OH246806   1.647   4.799   4.436  0.0392  0.1721  0.4861
 8464TIP3    H146807   1.627   4.706   4.438  1.5965 -0.1835  0.0992
 8464TIP3    H246808   1.573   4.839   4.391 -1.2115 -0.7219  1.7413
 8465TIP3   OH246809   2.326   2.138  15.527  0.2158 -0.0881 -0.2200
 8465TIP3    H146810   2.315   2.106  15.616 -0.0918 -0.0544 -0.2468
 8465TIP3    H246811   2.237   2.154  15.495  0.2184 -1.9003 -1.2033
 8466TIP3   OH246812   0.664   3.365  12.407 -0.4711  0.0967 -0.9638
 8466TIP3    H146813   0.592   3.321  12.452  0.4598 -0.5408 -0.0949
 8466TIP3    H246814   0.629   3.452  12.386 -1.3034 -0.0058 -0.0436
 8467TIP3   OH246815   1.576   6.775  11.201  0.5123  0.4834 -0.0069
 8467TIP3    H146816   1.591   6.728  11.119  1.8569 -0.3551  0.6943
 8467TIP3    H246817   1.495   6.824  11.187 -0.3124 -1.1754 -1.1588
 8468TIP3   OH246818   4.015   5.276  16.254  0.0383 -0.2272 -0.9815
 8468TIP3    H146819   4.030   5.182  16.251  1.8663 -0.0985  1.9915
 8468TIP3    H246820   4.096   5.315  16.221 -0.0376  0.2877 -0.5874
 8469TIP3   OH246821   1.559   0.924  12.337 -0.0772  0.2338  0.0772
 8469TIP3    H146822   1.479   0.970  12.314 -0.0814 -0.6116 -1.6972
 8469TIP3    H246823   1.611   0.924  12.257  2.2770  1.8848  1.5287
 8470TIP3   OH246824   4.227   4.569   1.758  0.1909  0.1565 -0.2652
 8470TIP3    H146825   4.278   4.514   1.698 -2.6741 -2.1728 -0.6577
 8470TIP3    H246826   4.263   4.657   1.746  0.6638 -0.5083 -4.3376
 8471TIP3   OH246827   3.865   0.085  13.613 -0.8408 -0.2196  0.3210
 8471TIP3    H146828   3.804   0.051  13.679  0.2907 -1.0762  0.9323
 8471TIP3    H246829   3.920   0.147  13.662  0.2924 -1.1905  0.2820
 8472TIP3   OH246830   1.455   0.643   2.141  0.2343 -0.0178  0.0554
 8472TIP3    H146831   1.418   0.588   2.210 -0.2766  0.4871  0.1812
 8472TIP3    H246832   1.469   0.728   2.183  0.2011  0.2031 -0.3833
 8473TIP3   OH246833   1.117   0.228   4.746  0.2440 -0.0370  0.2984
 8473TIP3    H146834   1.114   0.160   4.814  0.6876  0.7155  1.0884
 8473TIP3    H246835   1.193   0.282   4.770 -0.3919  1.0215 -0.0295
 8474TIP3   OH246836   5.193   4.258  14.549  0.3941 -0.1581 -0.4646
 8474TIP3    H146837   5.188   4.317  14.624  0.6325  0.6007 -1.0414
 8474TIP3    H246838   5.117   4.201  14.559 -0.6667  1.1939 -0.6923
 8475TIP3   OH246839   3.479   5.756   4.624  0.3200  0.4656  0.1539
 8475TIP3    H146840   3.408   5.809   4.589  0.6068  0.7653  0.0224
 8475TIP3    H246841   3.552   5.771   4.565  0.8492  1.0712  0.9423
 8476TIP3   OH246842   4.719   6.621  10.950 -0.2156  0.1467  0.1911
 8476TIP3    H146843   4.795   6.566  10.928 -0.6015  0.1522 -1.2263
 8476TIP3    H246844   4.757   6.700  10.990  0.5428  0.2168 -0.6541
 8477TIP3   OH246845   4.667   3.200  11.269  1.0136 -0.2711  0.4301
 8477TIP3    H146846   4.683   3.134  11.201  0.8573  1.4581 -1.3032
 8477TIP3    H246847   4.599   3.160  11.324  0.1748 -1.1294 -1.1975
 8478TIP3   OH246848   2.264   5.461   2.020  0.8664  0.1711 -0.0345
 8478TIP3    H146849   2.253   5.556   2.009  2.3230  0.4781  1.0354
 8478TIP3    H246850   2.322   5.452   2.096  2.8810 -1.5021 -1.7211
 8479TIP3   OH246851   2.995   0.108   3.248  0.1051 -0.5115  0.3095
 8479TIP3    H146852   3.046   0.048   3.302 -1.8280 -0.7405  1.9322
 8479TIP3    H246853   2.922   0.055   3.215 -1.2134  0.7315  1.1619
 8480TIP3   OH246854   1.324   3.037  10.852  0.3843 -0.1275  0.3755
 8480TIP3    H146855   1.350   3.128  10.862  1.4093 -0.4234  0.4347
 8480TIP3    H246856   1.395   2.987  10.893 -0.4471 -0.9258  0.8754
 8481TIP3   OH246857   1.306   2.565   1.852  0.6277  0.3904 -0.7419
 8481TIP3    H146858   1.266   2.495   1.904  0.2972  0.1016 -1.3852
 8481TIP3    H246859   1.245   2.579   1.780  1.8524 -0.2992 -1.9298
 8482TIP3   OH246860   3.130   5.536   4.956 -0.2091 -0.0320  0.0461
 8482TIP3    H146861   3.152   5.616   4.909 -0.3413 -1.3557 -2.3595
 8482TIP3    H246862   3.042   5.550   4.990 -0.2342  0.8165 -0.3859
 8483TIP3   OH246863   6.331   0.870   0.859  0.2640 -0.3608  0.1644
 8483TIP3    H146864   6.355   0.792   0.907  2.3924  0.6827  0.8713
 8483TIP3    H246865   6.283   0.924   0.922  0.4492 -0.2685  0.2241
 8484TIP3   OH246866   1.543   0.505  14.182  0.2769 -0.3340 -0.3679
 8484TIP3    H146867   1.553   0.564  14.108  0.9585 -1.1564 -0.9374
 8484TIP3    H246868   1.596   0.429  14.160  0.4146 -0.6299  0.9263
 8485TIP3   OH246869   3.224   4.995   6.207 -0.1960  0.1379 -0.2370
 8485TIP3    H146870   3.309   4.951   6.218  0.0179  0.8443  0.9837
 8485TIP3    H246871   3.182   4.989   6.293 -0.5918  1.4310 -0.3293
 8486TIP3   OH246872   3.361   4.179   6.355 -0.5001  0.4044 -0.0287
 8486TIP3    H146873   3.355   4.089   6.388  0.3149 -0.2038 -1.4792
 8486TIP3    H246874   3.320   4.232   6.423  1.3726 -0.7657  2.0890
 8487TIP3   OH246875   6.112   6.389   3.068 -0.0894  0.0735  0.0417
 8487TIP3    H146876   6.111   6.434   2.983  0.0301 -1.5936 -0.8653
 8487TIP3    H246877   6.100   6.296   3.046  1.9845 -0.6216  1.6894
 8488TIP3   OH246878   2.892   5.155   1.935  0.5579  0.5859 -0.4685
 8488TIP3    H146879   2.808   5.134   1.975  0.4022  1.7383 -0.1768
 8488TIP3    H246880   2.900   5.250   1.943  1.5317  0.5798 -1.1969
 8489TIP3   OH246881   2.931   5.416   5.156 -0.6796  0.1424  0.0583
 8489TIP3    H146882   2.931   5.329   5.116 -0.1003  0.4016 -0.5220
 8489TIP3    H246883   3.022   5.429   5.185  0.1122  1.9901 -3.0664
 8490TIP3   OH246884   5.719   6.406   2.119  0.1374  0.5263 -0.0227
 8490TIP3    H146885   5.679   6.369   2.040  2.5958 -0.0975 -1.0301
 8490TIP3    H246886   5.670   6.367   2.191 -1.9169  0.8232 -1.2077
 8491TIP3   OH246887   6.763   2.356  12.000  0.6847  0.1254 -0.2710
 8491TIP3    H146888   6.719   2.281  12.039  1.9051 -0.7406 -0.5296
 8491TIP3    H246889   6.745   2.349  11.907  1.5108 -0.3298 -0.3987
 8492TIP3   OH246890   6.738   2.153  14.615  0.0347  0.3152 -0.0905
 8492TIP3    H146891   6.750   2.058  14.617  0.9000  0.4176 -0.2026
 8492TIP3    H246892   6.649   2.166  14.583  0.5544 -0.4151 -1.8649
 8493TIP3   OH246893   3.206   1.677   0.885 -0.3829  0.2655 -0.2945
 8493TIP3    H146894   3.167   1.764   0.890  1.1961  0.9209  1.5112
 8493TIP3    H246895   3.235   1.659   0.975  4.1625  0.1797 -1.6429
 8494TIP3   OH246896   0.133   4.919   1.883 -0.2391  0.4095  0.2036
 8494TIP3    H146897   0.200   4.981   1.852  0.5436  0.4012  1.7872
 8494TIP3    H246898   0.059   4.975   1.908 -0.6470  0.4601 -1.1237
 8495TIP3   OH246899   5.856   1.330  12.540  0.2572  0.0755  0.2851
 8495TIP3    H146900   5.790   1.382  12.586 -0.6644 -1.0275  0.2396
 8495TIP3    H246901   5.938   1.354  12.582  0.2579  3.5125 -1.4386
 8496TIP3   OH246902   1.748   0.839   0.217  0.0243  0.0509 -0.1295
 8496TIP3    H146903   1.797   0.811   0.140 -1.2963  0.5002 -1.1557
 8496TIP3    H246904   1.718   0.757   0.257 -1.2469 -0.1138 -1.3998
 8497TIP3   OH246905   0.372   3.144  14.420 -0.2060 -0.8388  0.6483
 8497TIP3    H146906   0.457   3.150  14.464  0.1843 -1.2372 -0.0441
 8497TIP3    H246907   0.330   3.228  14.437  1.6664  0.6410 -1.7145
 8498TIP3   OH246908   1.060   2.870  16.204 -0.6772  0.5750 -0.2408
 8498TIP3    H146909   0.968   2.887  16.186 -0.0216  2.7375 -1.7389
 8498TIP3    H246910   1.069   2.775  16.195 -2.8415  0.2742  0.4437
 8499TIP3   OH246911   5.403   2.216  12.845 -0.0186 -0.2941 -0.1429
 8499TIP3    H146912   5.487   2.176  12.866 -0.3310 -0.2485  1.2941
 8499TIP3    H246913   5.414   2.308  12.867 -0.0829 -0.0684 -1.0514
 8500TIP3   OH246914   6.298   0.589  13.573 -0.0614 -0.0766  0.4946
 8500TIP3    H146915   6.352   0.539  13.634 -2.1579 -0.9503  1.7036
 8500TIP3    H246916   6.222   0.533  13.557 -0.2030  0.7328 -1.8629
 8501TIP3   OH246917   5.664   3.534   1.077 -0.1371  0.3816  0.2603
 8501TIP3    H146918   5.653   3.619   1.033  1.4400  1.1386  1.2761
 8501TIP3    H246919   5.689   3.474   1.007 -2.7997  0.3675 -0.7415
 8502TIP3   OH246920   1.250   5.214  16.607  0.9889  0.0261 -0.1262
 8502TIP3    H146921   1.343   5.217  16.586  0.9746  1.8322 -0.0505
 8502TIP3    H246922   1.241   5.141  16.668  2.6641  0.9607  1.2836
 8503TIP3   OH246923   3.297   4.291  13.845 -0.3487  0.5909 -0.2345
 8503TIP3    H146924   3.317   4.218  13.787 -0.7744 -0.5376  1.0195
 8503TIP3    H246925   3.363   4.357  13.825 -1.0033  0.5607 -2.5934
 8504TIP3   OH246926   3.640   5.873  16.023  0.5048  0.0203  0.0247
 8504TIP3    H146927   3.653   5.792  16.072  2.0550  0.6728  0.7187
 8504TIP3    H246928   3.678   5.941  16.079  1.4549  0.9057 -1.6579
 8505TIP3   OH246929   3.814   5.676  14.006 -0.2117  0.1768 -0.2158
 8505TIP3    H146930   3.843   5.759  14.043 -1.5203  0.8208 -0.6013
 8505TIP3    H246931   3.739   5.699  13.951 -0.2581 -1.1875 -0.7463
 8506TIP3   OH246932   3.339   4.971  12.326  0.0163  0.0023 -0.0263
 8506TIP3    H146933   3.406   5.000  12.388  0.1623  0.4618 -0.3926
 8506TIP3    H246934   3.386   4.915  12.264  0.3065  1.2152 -0.9385
 8507TIP3   OH246935   0.104   5.000   5.905 -0.5715 -0.2499 -0.6732
 8507TIP3    H146936   0.191   4.964   5.924  0.3067  1.2848 -1.6494
 8507TIP3    H246937   0.104   5.085   5.951 -2.2729 -1.0554  0.8855
 8508TIP3   OH246938   0.013   0.348   0.614 -0.1208  0.2362 -0.7713
 8508TIP3    H146939   0.073   0.342   0.689 -0.4569  0.5515 -0.4721
 8508TIP3    H246940   0.034   0.433   0.574 -3.2887  2.3884  1.8859
 8509TIP3   OH246941   6.167   1.551   3.383 -0.0458 -0.1821  0.0214
 8509TIP3    H146942   6.141   1.466   3.347 -2.8181  0.8952 -0.6528
 8509TIP3    H246943   6.138   1.548   3.474  1.3163 -0.5506  0.4520
 8510TIP3   OH246944   1.431   5.860  14.732 -0.5154 -0.0414  0.9935
 8510TIP3    H146945   1.361   5.918  14.763 -0.2471 -0.0558  1.6341
 8510TIP3    H246946   1.390   5.774  14.724 -1.0565  0.3458 -0.4992
 8511TIP3   OH246947   1.833   6.354  14.279 -0.1171  0.0933 -0.3787
 8511TIP3    H146948   1.747   6.395  14.269  0.9734  3.0073  1.6351
 8511TIP3    H246949   1.854   6.365  14.371  0.6996 -4.2275  0.0552
 8512TIP3   OH246950   0.158   4.120   3.901 -0.0154  0.3030  0.1862
 8512TIP3    H146951   0.246   4.105   3.937 -0.5852 -1.9181  0.7181
 8512TIP3    H246952   0.106   4.149   3.976 -0.0701  0.2912  0.1526
 8513TIP3   OH246953   5.661   1.056   3.827  0.1168 -0.3307  0.5339
 8513TIP3    H146954   5.673   1.092   3.914  0.1817  0.3836  0.2328
 8513TIP3    H246955   5.590   1.108   3.789  1.3834  0.6258 -0.5384
 8514TIP3   OH246956   2.431   1.989   5.756 -0.5000  0.2292 -0.0412
 8514TIP3    H146957   2.495   2.052   5.722 -0.3633 -0.1050 -0.4028
 8514TIP3    H246958   2.442   1.993   5.851 -1.4632  1.7825  0.0286
 8515TIP3   OH246959   4.382   0.180   2.310  0.9816 -0.6486  0.3548
 8515TIP3    H146960   4.390   0.233   2.231 -0.5980 -1.5397 -0.4197
 8515TIP3    H246961   4.457   0.121   2.307  2.1742  0.8272  0.6948
 8516TIP3   OH246962   4.363   1.772   6.210  0.3357 -0.3132 -0.7147
 8516TIP3    H146963   4.314   1.725   6.278  1.2988 -1.0407 -0.5160
 8516TIP3    H246964   4.436   1.714   6.188 -1.1778 -1.1049 -3.9696
 8517TIP3   OH246965   5.605   6.138   3.578  0.3709 -0.7248 -0.3087
 8517TIP3    H146966   5.527   6.083   3.565  1.2837 -1.6535 -2.1231
 8517TIP3    H246967   5.610   6.190   3.498  1.2523 -0.1971  0.0847
 8518TIP3   OH246968   1.049   0.217  15.580  0.2442 -0.5187 -0.2679
 8518TIP3    H146969   1.008   0.235  15.495 -0.0888 -1.8594 -0.4108
 8518TIP3    H246970   1.086   0.129  15.570  2.5731  0.3635  0.0825
 8519TIP3   OH246971   0.195   0.034  16.297 -0.3752 -0.1014  0.0009
 8519TIP3    H146972   0.281   0.025  16.256 -0.9157 -1.5796 -0.8543
 8519TIP3    H246973   0.214   0.033  16.391  0.7043  1.4689 -0.1913
 8520TIP3   OH246974   1.209   3.845  16.138  0.1427  0.1826 -0.0855
 8520TIP3    H146975   1.133   3.788  16.132  0.1411  0.1595  0.1345
 8520TIP3    H246976   1.277   3.802  16.086  0.0440  0.1403 -0.1792
 8521TIP3   OH246977   0.200   6.273   2.697  0.0931  0.0030 -0.0983
 8521TIP3    H146978   0.221   6.184   2.670  1.3621 -0.3048  1.7751
 8521TIP3    H246979   0.134   6.262   2.766 -0.1407  0.5251 -0.2397
 8522TIP3   OH246980   2.945   1.770  12.925 -0.1356 -0.1947 -0.3863
 8522TIP3    H146981   3.029   1.740  12.958  0.8166  3.0252  0.1988
 8522TIP3    H246982   2.886   1.765  13.000 -0.0596 -0.7684 -0.3604
 8523TIP3   OH246983   3.129   0.688   0.678  0.0863  0.5365  0.2910
 8523TIP3    H146984   3.096   0.717   0.763 -0.7091 -0.1146  0.2130
 8523TIP3    H246985   3.051   0.681   0.623  0.6931  1.7294 -0.7332
 8524TIP3   OH246986   5.697   3.641   6.101  0.0136 -0.1052 -0.1350
 8524TIP3    H146987   5.631   3.660   6.034  0.5566 -0.4253 -0.7713
 8524TIP3    H246988   5.647   3.616   6.178 -0.6753  1.9880  0.1292
 8525TIP3   OH246989   2.570   5.219   6.154 -0.5972  0.2549  0.2842
 8525TIP3    H146990   2.630   5.291   6.133  0.1237 -0.6657 -0.9072
 8525TIP3    H246991   2.624   5.155   6.200 -1.3766  0.7133  1.8795
 8526TIP3   OH246992   1.432   1.134  15.095  0.3324  0.5824 -0.1455
 8526TIP3    H146993   1.387   1.218  15.087 -1.7172 -0.3959  0.7858
 8526TIP3    H246994   1.427   1.114  15.189 -0.5088 -1.2801 -0.5835
 8527TIP3   OH246995   5.945   3.596   5.372 -0.3185 -0.0064 -0.0881
 8527TIP3    H146996   5.897   3.603   5.454 -0.6634 -0.7888 -0.2169
 8527TIP3    H246997   5.880   3.565   5.309  0.6856 -2.5220  0.0628
 8528TIP3   OH246998   4.439   1.214  15.172  0.0735  0.3370 -0.6308
 8528TIP3    H146999   4.419   1.255  15.088 -0.8235  2.5836  0.6218
 8528TIP3    H247000   4.355   1.180  15.203  0.5218 -1.0739 -0.9097
 8529TIP3   OH247001   0.038   2.465  13.821 -0.2209  0.2617  0.4296
 8529TIP3    H147002  -0.055   2.442  13.818 -0.4074  0.8919  0.9768
 8529TIP3    H247003   0.046   2.518  13.901  0.8534 -0.8443  1.0731
 8530TIP3   OH247004   0.631   5.870   2.637 -0.4133  0.3196  0.3458
 8530TIP3    H147005   0.638   5.933   2.565 -0.3566  0.9324  0.8738
 8530TIP3    H247006   0.655   5.921   2.715 -1.7713  0.0207  0.9782
 8531TIP3   OH247007   1.696   0.521   5.350  0.0360  0.1117  0.1378
 8531TIP3    H147008   1.641   0.472   5.289 -1.0784  1.8315 -0.2680
 8531TIP3    H247009   1.686   0.613   5.324 -0.4491  0.8860  2.8583
 8532TIP3   OH247010   3.464   0.863  12.604  0.0599  0.2165 -0.6480
 8532TIP3    H147011   3.520   0.923  12.652  0.9882 -1.1195 -0.0239
 8532TIP3    H247012   3.515   0.838  12.527 -0.0479 -0.2980 -0.5547
 8533TIP3   OH247013   1.074   4.822  16.697  0.0329  0.2562 -0.2077
 8533TIP3    H147014   0.994   4.791  16.654  0.0037 -1.9980  1.3494
 8533TIP3    H247015   1.135   4.837  16.626 -0.8852 -0.7313 -1.2268
 8534TIP3   OH247016   6.505   4.501   5.518  0.3915  0.0740  0.1635
 8534TIP3    H147017   6.596   4.477   5.500  0.1008  0.8045 -2.3985
 8534TIP3    H247018   6.453   4.435   5.473 -0.3496  1.1901 -0.6412
 8535TIP3   OH247019   0.380   0.494   3.928 -0.4046  0.3107  0.2048
 8535TIP3    H147020   0.377   0.420   3.868 -0.2934  0.7453 -0.3424
 8535TIP3    H247021   0.418   0.459   4.008  0.3565 -0.0420 -0.3072
 8536TIP3   OH247022   3.723   6.326   4.796 -0.3379  0.3006  0.4322
 8536TIP3    H147023   3.632   6.339   4.821 -0.4759 -1.1498  0.7081
 8536TIP3    H247024   3.770   6.321   4.879  0.1313  1.9368  0.2809
 8537TIP3   OH247025   2.138   5.501   5.291  0.0198 -0.1837 -0.0444
 8537TIP3    H147026   2.195   5.436   5.332 -0.0279  1.3128  2.4551
 8537TIP3    H247027   2.050   5.469   5.307 -0.0497  1.0013  2.1827
 8538TIP3   OH247028   0.377   5.413  10.828  0.0348  0.2654  0.0901
 8538TIP3    H147029   0.338   5.479  10.770  0.3205 -0.1797 -0.6172
 8538TIP3    H247030   0.331   5.425  10.911 -0.7188  0.5968 -0.3640
 8539TIP3   OH247031   6.755   3.029  12.156  0.1303  0.2130 -0.5330
 8539TIP3    H147032   6.815   2.976  12.104 -0.6863 -0.1456 -1.1183
 8539TIP3    H247033   6.683   2.969  12.177  1.8380 -0.6240  3.6091
 8540TIP3   OH247034   1.651   4.903   2.765 -0.1803 -0.0325 -0.2005
 8540TIP3    H147035   1.615   4.954   2.693 -1.3730 -2.0795 -1.0974
 8540TIP3    H247036   1.578   4.892   2.826  0.4149  0.4357  0.5961
 8541TIP3   OH247037   5.000   2.772   4.029  1.2562 -0.2844  0.1204
 8541TIP3    H147038   4.936   2.741   4.092  1.2731 -0.9737 -0.1951
 8541TIP3    H247039   5.078   2.793   4.081  0.8114  0.4590  0.4886
 8542TIP3   OH247040   5.879   5.397   0.499 -0.5108  0.1744  0.2445
 8542TIP3    H147041   5.941   5.328   0.476  0.3760  1.0084  0.0934
 8542TIP3    H247042   5.929   5.478   0.487 -0.9457  0.7549  2.2158
 8543TIP3   OH247043   0.766   5.446  16.816  0.2858  0.8275  0.1454
 8543TIP3    H147044   0.856   5.447  16.849  0.7133  3.2130 -0.9701
 8543TIP3    H247045   0.723   5.516  16.866 -0.8127  0.0674  0.2740
 8544TIP3   OH247046   6.783   5.347  11.477 -0.5716 -0.0328 -0.2524
 8544TIP3    H147047   6.723   5.318  11.545 -1.2544  0.2078 -0.7530
 8544TIP3    H247048   6.870   5.334  11.515 -0.9554  0.4378  0.8066
 8545TIP3   OH247049   0.559   6.387   2.551  0.3300 -0.0502  0.4291
 8545TIP3    H147050   0.530   6.409   2.463 -0.5258 -1.7677  0.2478
 8545TIP3    H247051   0.612   6.308   2.541 -1.0513 -1.1790  1.5794
 8546TIP3   OH247052   3.802   3.078   1.410 -0.0638  0.2138  0.1454
 8546TIP3    H147053   3.793   3.018   1.484  0.4154 -1.0632 -0.8211
 8546TIP3    H247054   3.712   3.095   1.382 -0.2184  0.2795  0.6659
 8547TIP3   OH247055   6.078   1.519  11.968 -0.2251  0.1209  0.0670
 8547TIP3    H147056   6.129   1.439  11.980 -0.8834 -0.2896  0.1245
 8547TIP3    H247057   6.138   1.590  11.993  0.2296 -0.3741  0.3759
 8548TIP3   OH247058   2.195   0.087   2.265  0.5127 -0.0806  0.4737
 8548TIP3    H147059   2.104   0.090   2.234  0.2180 -0.2726  1.2870
 8548TIP3    H247060   2.248   0.082   2.186 -0.1342  1.1303 -0.0500
 8549TIP3   OH247061   5.306   1.223   0.086  0.1491 -0.1849 -0.5310
 8549TIP3    H147062   5.301   1.318   0.076  0.9405 -0.1490 -0.6379
 8549TIP3    H247063   5.257   1.205   0.166  1.7945  0.5561  0.6898
 8550TIP3   OH247064   2.051   4.175   3.185 -0.0423 -0.2819 -0.0158
 8550TIP3    H147065   2.056   4.247   3.248  1.4562 -0.3537 -0.0341
 8550TIP3    H247066   1.988   4.114   3.224 -1.4455  1.1083 -0.0893
 8551TIP3   OH247067   5.457   4.707   0.398  0.3594 -0.9802 -0.8373
 8551TIP3    H147068   5.427   4.697   0.488 -0.2382 -2.4332 -1.1729
 8551TIP3    H247069   5.553   4.714   0.405  0.3128 -1.0506 -0.0918
 8552TIP3   OH247070   0.040   5.121  16.302  0.4429  0.0284 -0.1262
 8552TIP3    H147071   0.003   5.033  16.303  0.3470  0.0608 -0.9089
 8552TIP3    H247072   0.102   5.121  16.375  0.8023 -0.8423 -0.4255
 8553TIP3   OH247073   5.697   5.405  11.973 -0.5675 -0.5313  0.1421
 8553TIP3    H147074   5.724   5.495  11.957  0.2097 -0.5430  1.3798
 8553TIP3    H247075   5.610   5.413  12.013 -0.4073 -0.3339  0.4460
 8554TIP3   OH247076   0.729   6.535  15.719 -1.0131 -0.0480  0.0160
 8554TIP3    H147077   0.681   6.542  15.636  1.2753 -1.3834 -1.4575
 8554TIP3    H247078   0.680   6.470  15.770 -0.1674 -2.2619 -1.9306
 8555TIP3   OH247079   0.065   6.071  11.417 -0.2428  0.4252 -0.1623
 8555TIP3    H147080  -0.004   6.054  11.353  0.1000  2.0982 -1.0137
 8555TIP3    H247081   0.144   6.033  11.378 -0.2940  0.2853 -0.1279
 8556TIP3   OH247082   5.934   4.091   3.820 -0.5892 -0.7482  0.0296
 8556TIP3    H147083   6.018   4.050   3.840 -1.3032 -2.1390  0.2026
 8556TIP3    H247084   5.873   4.018   3.810 -1.5247  0.1858 -1.3117
 8557TIP3   OH247085   0.595   6.698  12.987 -0.4615 -0.5766 -0.1278
 8557TIP3    H147086   0.623   6.773  12.935 -0.2613 -0.6132 -0.0720
 8557TIP3    H247087   0.665   6.685  13.051 -1.5923  0.6581  1.4095
 8558TIP3   OH247088   0.816   0.942   2.736 -0.0980  0.4239 -0.5036
 8558TIP3    H147089   0.910   0.926   2.738 -0.3477 -1.6467 -2.9395
 8558TIP3    H247090   0.783   0.902   2.816  0.6927 -1.8584 -1.2703
 8559TIP3   OH247091   5.607   2.461   3.560  0.2139  0.1730 -0.4546
 8559TIP3    H147092   5.543   2.510   3.509 -1.2181  0.7326  1.8098
 8559TIP3    H247093   5.675   2.525   3.580  0.0298  0.3513 -0.3928
 8560TIP3   OH247094   4.960   1.740  15.652 -0.6455  0.4826 -0.2938
 8560TIP3    H147095   5.050   1.768  15.637 -0.8821  1.0040 -0.7718
 8560TIP3    H247096   4.947   1.666  15.593 -0.7388  0.8409 -0.7280
 8561TIP3   OH247097   3.459   3.009   4.786  0.0309 -0.4297 -0.2616
 8561TIP3    H147098   3.386   2.977   4.733 -0.5472  0.2219  0.1207
 8561TIP3    H247099   3.493   3.084   4.737  1.0652 -1.3173 -0.9145
 8562TIP3   OH247100   3.091   0.133   4.257  0.6225  0.2574  0.1869
 8562TIP3    H147101   3.069   0.042   4.277 -1.3726  0.3422 -1.4446
 8562TIP3    H247102   3.007   0.180   4.263  0.5086  0.9276 -4.5774
 8563TIP3   OH247103   5.435   0.737  15.913  0.1257  0.2018 -0.0533
 8563TIP3    H147104   5.367   0.707  15.852 -1.1486  2.2048  0.3206
 8563TIP3    H247105   5.419   0.831  15.921  2.5038  0.5718  0.6294
 8564TIP3   OH247106   0.098   0.023  15.504  0.3666 -0.0051  0.0081
 8564TIP3    H147107   0.162   0.093  15.499  0.8210 -0.3606  0.8414
 8564TIP3    H247108   0.115  -0.031  15.427  0.1526  0.6621 -0.5233
 8565TIP3   OH247109   3.282   0.364   0.557  1.3896 -0.6160  0.6325
 8565TIP3    H147110   3.227   0.334   0.629 -0.5082 -1.9444 -1.3134
 8565TIP3    H247111   3.224   0.415   0.501  2.7701  0.1769 -0.1105
 8566TIP3   OH247112   3.537   5.691  15.223  0.1937 -0.3455 -0.3751
 8566TIP3    H147113   3.501   5.770  15.264 -0.3704 -0.9970  0.4172
 8566TIP3    H247114   3.601   5.724  15.160 -0.2510  0.7544 -0.2737
 8567TIP3   OH247115   3.519   1.136   0.027 -0.3639  0.4716 -0.0331
 8567TIP3    H147116   3.539   1.097  -0.058 -0.6483  1.6844 -0.6513
 8567TIP3    H247117   3.596   1.116   0.081 -1.0865 -2.1628  0.0806
 8568TIP3   OH247118   3.326   0.456   1.247 -0.1348  0.0007  0.0356
 8568TIP3    H147119   3.324   0.482   1.339 -0.3129  0.9159 -0.2297
 8568TIP3    H247120   3.402   0.397   1.240 -1.1575 -1.4856  1.1370
 8569TIP3   OH247121   6.176   1.427   5.679 -0.5178  0.5634 -0.4141
 8569TIP3    H147122   6.200   1.382   5.760  0.2359 -0.5586 -1.2385
 8569TIP3    H247123   6.259   1.437   5.632 -0.9846  0.9564 -1.1674
 8570TIP3   OH247124   2.334   1.800   2.979  0.2183 -0.4438 -0.0039
 8570TIP3    H147125   2.311   1.868   3.042 -0.1907  0.1930 -0.8278
 8570TIP3    H247126   2.386   1.737   3.029  1.1875  0.8229  0.5887
 8571TIP3   OH247127   4.223   0.005  14.952  0.6572  0.0360 -0.5177
 8571TIP3    H147128   4.194   0.061  15.024  0.0314 -0.9615  0.0204
 8571TIP3    H247129   4.238   0.066  14.879  0.2868  0.9374  0.1461
 8572TIP3   OH247130   4.053   2.524  11.111 -0.1985 -0.2703 -0.7055
 8572TIP3    H147131   4.024   2.608  11.078 -0.5444 -0.8205 -1.8202
 8572TIP3    H247132   4.089   2.478  11.034 -1.4761 -1.7555 -0.4437
 8573TIP3   OH247133   4.071   1.969  11.648  0.1827  0.1277 -0.8235
 8573TIP3    H147134   4.165   1.957  11.643  0.5406  1.1011  2.1589
 8573TIP3    H247135   4.050   2.033  11.580  1.9007  0.9374 -0.6029
 8574TIP3   OH247136   1.519   5.253  16.021 -0.1108 -0.4035  0.4638
 8574TIP3    H147137   1.572   5.173  16.027 -0.8217 -0.7809  2.0991
 8574TIP3    H247138   1.536   5.287  15.933  3.1275 -0.3015  1.0768
 8575TIP3   OH247139   1.882   5.857   0.357 -0.1085 -0.2188 -0.5615
 8575TIP3    H147140   1.905   5.949   0.368 -0.1505 -0.3955  1.1256
 8575TIP3    H247141   1.966   5.811   0.351 -0.0818 -0.1431 -0.7631
 8576TIP3   OH247142   4.294   4.796  13.872  0.6223  0.3591 -0.3750
 8576TIP3    H147143   4.252   4.871  13.830  0.9942  0.4312 -0.6193
 8576TIP3    H247144   4.306   4.732  13.802  2.2008  0.8951 -0.6034
 8577TIP3   OH247145   3.190   3.432  12.820 -0.1999  0.2636  0.2288
 8577TIP3    H147146   3.144   3.380  12.754 -1.1044 -0.7233  1.6246
 8577TIP3    H247147   3.140   3.513  12.826 -0.7072 -0.0629  0.4300
 8578TIP3   OH247148   1.634   5.906   4.617 -0.1321 -0.2728  0.3827
 8578TIP3    H147149   1.581   5.942   4.688 -2.4239 -0.7167 -1.0257
 8578TIP3    H247150   1.574   5.847   4.571  2.3874 -2.8387  0.2749
 8579TIP3   OH247151   6.268   4.477   5.075  0.2001 -0.0625 -0.5491
 8579TIP3    H147152   6.239   4.555   5.029  0.7042  0.4210 -0.0474
 8579TIP3    H247153   6.206   4.467   5.148  0.2227 -0.0478 -0.5282
 8580TIP3   OH247154   2.583   6.406  11.844  0.0672  0.7467 -0.4419
 8580TIP3    H147155   2.620   6.338  11.901 -0.3719  0.7648 -0.1333
 8580TIP3    H247156   2.600   6.374  11.755 -0.7117 -0.0993 -0.3058
 8581TIP3   OH247157   4.876   0.447   3.057 -0.4908  0.2127 -0.0009
 8581TIP3    H147158   4.869   0.353   3.071 -0.2253  0.3306  0.9975
 8581TIP3    H247159   4.876   0.458   2.962  0.1346 -0.8441 -0.1284
 8582TIP3   OH247160   3.240   0.607  13.242 -0.4536  0.1883  0.2993
 8582TIP3    H147161   3.295   0.538  13.278 -1.5989 -0.8168  0.1482
 8582TIP3    H247162   3.151   0.571  13.243 -1.2011  1.9632  1.0012
 8583TIP3   OH247163   1.773   0.594  13.539  0.1978  0.2160  0.6113
 8583TIP3    H147164   1.754   0.502  13.556  0.1605  0.3748  1.4465
 8583TIP3    H247165   1.706   0.642  13.588  0.7048  0.7046  0.8365
 8584TIP3   OH247166   3.462   4.229  17.056  0.0070  0.2906 -0.4091
 8584TIP3    H147167   3.423   4.259  16.974 -0.0419 -0.9010 -0.8428
 8584TIP3    H247168   3.442   4.135  17.059  0.5492  0.1953  0.6633
 8585TIP3   OH247169   3.690   1.278   3.237  0.3110  0.0578  0.0893
 8585TIP3    H147170   3.686   1.189   3.270  1.7715 -0.2789 -0.5960
 8585TIP3    H247171   3.631   1.328   3.295  0.3054 -1.1291  1.1311
 8586TIP3   OH247172   4.931   4.652  12.099 -0.2904 -0.0691 -0.2284
 8586TIP3    H147173   4.869   4.692  12.160  1.2676  1.6196  0.2808
 8586TIP3    H247174   4.914   4.696  12.016  0.2677  0.4260 -0.0776
 8587TIP3   OH247175   4.761   5.056   2.147  0.3865  0.7615  0.3745
 8587TIP3    H147176   4.783   4.973   2.105 -2.5860  0.6293 -1.0251
 8587TIP3    H247177   4.838   5.078   2.199  2.8654 -0.7561 -2.5424
 8588TIP3   OH247178   3.280   2.034  15.996 -0.3740  0.7386  0.5948
 8588TIP3    H147179   3.326   2.005  16.074  0.9946  0.5070 -0.2851
 8588TIP3    H247180   3.220   1.962  15.975 -0.0636  0.3923  0.8877
 8589TIP3   OH247181   2.353   6.318  12.131  0.3867 -0.3931 -0.1765
 8589TIP3    H147182   2.353   6.278  12.044  1.6376 -1.5654  0.3528
 8589TIP3    H247183   2.425   6.381  12.128 -0.8148  0.9699 -0.6163
 8590TIP3   OH247184   3.038   5.613  13.236 -0.1124 -0.0448  0.3004
 8590TIP3    H147185   3.119   5.641  13.192 -1.2483  2.0352 -0.5666
 8590TIP3    H247186   3.003   5.544  13.181 -0.0402  0.5601 -0.5128
 8591TIP3   OH247187   2.744   0.672   4.133  0.1669 -0.0931  0.1514
 8591TIP3    H147188   2.751   0.690   4.226  0.3515  1.0791 -0.0773
 8591TIP3    H247189   2.822   0.621   4.112  1.5109  1.9020  0.1374
 8592TIP3   OH247190   2.800   0.665   4.391  0.5596 -0.0148  0.9581
 8592TIP3    H147191   2.856   0.700   4.459  1.4414  0.6693 -0.1063
 8592TIP3    H247192   2.715   0.651   4.434  0.9026  1.0873  2.0020
 8593TIP3   OH247193   4.020   2.490  13.096 -0.1672 -0.1729 -0.2019
 8593TIP3    H147194   3.933   2.493  13.136 -0.8780  1.0822 -1.7982
 8593TIP3    H247195   4.070   2.556  13.143 -1.0511  1.4209 -1.4298
 8594TIP3   OH247196   0.620   3.151  11.871 -0.7945 -0.0949 -0.5857
 8594TIP3    H147197   0.565   3.229  11.870 -1.3117 -0.4570 -0.9328
 8594TIP3    H247198   0.589   3.101  11.947  0.0491  0.3940  0.0873
 8595TIP3   OH247199   5.682   4.952   4.560  0.0334  0.2314  0.1690
 8595TIP3    H147200   5.765   4.962   4.513  0.8957 -1.2223  1.3101
 8595TIP3    H247201   5.659   5.041   4.588  0.6044  0.8015 -1.1470
 8596TIP3   OH247202   3.028   1.110   5.533 -0.1211  0.8987  0.2932
 8596TIP3    H147203   3.105   1.166   5.525  0.9760 -0.4717  1.0680
 8596TIP3    H247204   3.040   1.042   5.468 -0.9730  0.9872  0.0312
 8597TIP3   OH247205   6.316   1.587   4.230  0.3100 -0.5828  0.2756
 8597TIP3    H147206   6.342   1.637   4.152 -0.2219  1.4506  1.3702
 8597TIP3    H247207   6.333   1.647   4.303 -0.1304 -2.1047  1.6344
 8598TIP3   OH247208   2.929   4.314   4.542  0.7016  0.5807 -0.0372
 8598TIP3    H147209   3.018   4.328   4.573  1.5115 -0.1833 -1.9459
 8598TIP3    H247210   2.880   4.289   4.620  2.1067  1.1832  1.0586
 8599TIP3   OH247211   0.590   2.398  12.655 -0.4807  0.7068  0.1712
 8599TIP3    H147212   0.569   2.473  12.599  2.2199  0.9706 -0.5959
 8599TIP3    H247213   0.672   2.424  12.699  0.5792 -1.8304 -0.2227
 8600TIP3   OH247214   0.633   5.570  10.823  0.0044  0.5517  0.1241
 8600TIP3    H147215   0.687   5.549  10.746 -1.4593  1.7622 -1.2775
 8600TIP3    H247216   0.546   5.534  10.801 -0.6395  1.6657  0.8360
 8601TIP3   OH247217   3.148   1.393   4.900  0.3010 -0.3487  0.6772
 8601TIP3    H147218   3.149   1.488   4.910  1.4995 -0.2177 -0.5245
 8601TIP3    H247219   3.123   1.360   4.986 -3.6313  1.1555  0.1938
 8602TIP3   OH247220   4.215   4.570  17.097 -0.0261 -0.7415  0.4291
 8602TIP3    H147221   4.230   4.642  17.036 -1.3657 -0.2982  0.6222
 8602TIP3    H247222   4.268   4.498  17.062  0.9204  0.1705 -0.0423
 8603TIP3   OH247223   1.318   5.461  11.906  0.2570 -0.0597 -0.2744
 8603TIP3    H147224   1.252   5.395  11.927 -0.7008  0.3797 -1.8101
 8603TIP3    H247225   1.380   5.458  11.980 -2.4982  0.8943  2.1560
 8604TIP3   OH247226   5.751   4.378   0.796  0.0370 -0.0943  0.5994
 8604TIP3    H147227   5.797   4.342   0.720 -3.2378 -3.0249 -0.1125
 8604TIP3    H247228   5.767   4.315   0.866 -1.9666 -0.5739  0.6431
 8605TIP3   OH247229   1.594   5.045  16.359 -0.0810 -0.1091  0.2328
 8605TIP3    H147230   1.580   4.960  16.399  2.2744 -0.7429 -0.1912
 8605TIP3    H247231   1.570   5.108  16.427 -3.4464 -1.0506 -0.0170
 8606TIP3   OH247232   6.733   5.421   1.036 -0.2377 -0.1753  0.1029
 8606TIP3    H147233   6.642   5.451   1.030 -0.8759 -2.1715 -0.6742
 8606TIP3    H247234   6.746   5.369   0.958  1.2283 -0.8552  0.7870
 8607TIP3   OH247235   2.735   3.086   3.032 -0.1681 -0.1139 -0.0210
 8607TIP3    H147236   2.715   3.103   2.940 -0.2899 -0.1723 -0.0069
 8607TIP3    H247237   2.673   3.141   3.080  0.7182  0.8371  0.0316
 8608TIP3   OH247238   1.969   2.679   4.692  0.3789 -0.3702 -0.4844
 8608TIP3    H147239   1.904   2.713   4.754  2.0969 -0.0019  1.1667
 8608TIP3    H247240   1.980   2.587   4.718  0.5201 -0.4268 -0.7459
 8609TIP3   OH247241   3.591   3.867  16.012 -0.0300  0.1322 -0.3046
 8609TIP3    H147242   3.560   3.908  16.093 -0.1707 -0.6438  0.0358
 8609TIP3    H247243   3.546   3.783  16.009 -0.4359  0.3810 -1.4697
 8610TIP3   OH247244   0.450   1.891  13.396  0.4351  0.3182  0.0466
 8610TIP3    H147245   0.477   1.855  13.480 -0.2735 -2.1654 -0.7459
 8610TIP3    H247246   0.532   1.905  13.348  0.7038 -0.5768  0.2405
 8611TIP3   OH247247   1.727   2.527   2.016 -0.2118 -0.4068 -0.2779
 8611TIP3    H147248   1.719   2.443   2.063  0.9637  0.3592  1.3429
 8611TIP3    H247249   1.663   2.584   2.058  0.4894  0.1319  0.0769
 8612TIP3   OH247250   5.602   0.573   5.638  0.1587 -0.4475 -0.3184
 8612TIP3    H147251   5.539   0.576   5.566  0.4497  1.4208 -0.5023
 8612TIP3    H247252   5.548   0.569   5.717 -0.1764 -0.1531 -0.5345
 8613TIP3   OH247253   2.606   1.416  16.334 -0.1655 -0.2524  0.2676
 8613TIP3    H147254   2.576   1.429  16.424  2.2826  2.8898  0.7341
 8613TIP3    H247255   2.679   1.355  16.341 -1.2007 -1.5227  0.1430
 8614TIP3   OH247256   3.158   1.121   3.058 -0.3371  0.1949  0.5015
 8614TIP3    H147257   3.189   1.065   2.986  1.1285  0.5380  0.8527
 8614TIP3    H247258   3.159   1.064   3.135  0.8629  0.5881  0.7979
 8615TIP3   OH247259   1.550   6.036   1.722  0.0455  0.2822 -0.1824
 8615TIP3    H147260   1.580   5.957   1.677  1.0768  0.1501  0.7241
 8615TIP3    H247261   1.592   6.033   1.808 -1.6970  0.6651  0.7152
 8616TIP3   OH247262   0.793   3.211  13.401 -0.4621  0.2921  0.3079
 8616TIP3    H147263   0.726   3.152  13.438 -0.2238  1.2012  2.2169
 8616TIP3    H247264   0.854   3.152  13.356 -0.9873 -0.8023  0.9968
 8617TIP3   OH247265   4.317   2.317  13.777  0.2041 -0.6846  0.0624
 8617TIP3    H147266   4.222   2.323  13.789  0.5203  0.6590  1.9544
 8617TIP3    H247267   4.341   2.235  13.820  0.4468  1.0023  3.2481
 8618TIP3   OH247268   3.611   4.045  11.295  0.2203  0.3531  0.6254
 8618TIP3    H147269   3.637   4.067  11.385  1.6860  0.1533  0.2592
 8618TIP3    H247270   3.576   4.127  11.260  1.6301  0.9871  0.6804
 8619TIP3   OH247271   4.614   6.383  16.677 -0.4382  0.7743  0.6173
 8619TIP3    H147272   4.660   6.416  16.600 -1.0367  0.2683  0.0391
 8619TIP3    H247273   4.526   6.421  16.671 -0.5494  0.5751  0.9425
 8620TIP3   OH247274   6.394   0.066  16.865 -0.5347  0.7191  0.2488
 8620TIP3    H147275   6.475   0.044  16.911  0.1053 -0.2111 -1.2990
 8620TIP3    H247276   6.423   0.107  16.784 -1.6035 -0.2241 -0.6202
 8621TIP3   OH247277   4.413   3.325   5.103 -0.5811 -0.8893  0.4435
 8621TIP3    H147278   4.396   3.395   5.040  1.0736 -0.2565  0.6720
 8621TIP3    H247279   4.480   3.361   5.161  0.8806 -2.9145  0.0773
 8622TIP3   OH247280   2.689   0.520  11.155  0.1461  0.3791  0.3640
 8622TIP3    H147281   2.637   0.472  11.219 -0.2613  0.8505  0.3869
 8622TIP3    H247282   2.643   0.506  11.072  1.3721 -1.2946 -0.0596
 8623TIP3   OH247283   6.688   6.368  13.790 -0.3177  0.1626  0.3039
 8623TIP3    H147284   6.750   6.424  13.743 -0.7055  0.5430  0.2478
 8623TIP3    H247285   6.715   6.279  13.767 -1.2643  0.3486 -1.6384
 8624TIP3   OH247286   6.603   5.936   5.459 -0.2102  0.9252 -0.2432
 8624TIP3    H147287   6.635   5.846   5.466 -0.2064  0.9967  0.7127
 8624TIP3    H247288   6.541   5.933   5.386 -0.4835  0.0634  0.0149
 8625TIP3   OH247289   1.765   5.824  14.861 -0.5123  0.0329  0.6707
 8625TIP3    H147290   1.727   5.740  14.889 -0.4552 -0.7035 -1.3635
 8625TIP3    H247291   1.707   5.854  14.790  1.9933 -0.5444 -1.7115
 8626TIP3   OH247292   2.730   4.045  16.544 -0.5826 -0.0421  0.4005
 8626TIP3    H147293   2.692   4.097  16.473 -1.5664  0.2945  1.1669
 8626TIP3    H247294   2.786   4.107  16.592  0.4033 -0.3693 -0.3157
 8627TIP3   OH247295   6.371   4.377   5.993  0.0869  0.3302 -0.0053
 8627TIP3    H147296   6.278   4.376   6.016 -0.2665  0.8896 -1.3311
 8627TIP3    H247297   6.409   4.447   6.047 -0.4038  0.5582  0.0437
 8628TIP3   OH247298   0.408   3.298  14.797 -0.2545  0.1812 -0.0344
 8628TIP3    H147299   0.329   3.244  14.799 -0.0413 -0.1399 -0.2001
 8628TIP3    H247300   0.480   3.235  14.806  0.0988  0.2047 -2.3830
 8629TIP3   OH247301   2.594   6.523  14.833 -0.0836  0.4777 -0.0345
 8629TIP3    H147302   2.532   6.455  14.857 -0.4684  0.8322 -0.0133
 8629TIP3    H247303   2.655   6.528  14.906  1.6578 -1.8269 -1.2822
 8630TIP3   OH247304   4.161   0.079   0.420 -0.3743 -0.2137 -0.6947
 8630TIP3    H147305   4.156  -0.010   0.384 -0.4164 -1.2554  1.7494
 8630TIP3    H247306   4.254   0.099   0.423 -0.2690 -0.7792  0.0918
 8631TIP3   OH247307   1.670   4.381  11.553 -0.4424  0.2191 -0.5277
 8631TIP3    H147308   1.714   4.341  11.478  1.3182  0.5123  0.3222
 8631TIP3    H247309   1.717   4.463  11.567 -0.8423  0.2245  0.8335
 8632TIP3   OH247310   3.165   3.000  15.366 -0.0056 -0.3258 -0.1794
 8632TIP3    H147311   3.247   3.031  15.405  0.0194 -0.1792 -0.3485
 8632TIP3    H247312   3.178   2.906  15.354 -0.0933 -0.4069  0.3616
 8633TIP3   OH247313   3.860   1.250  14.785  0.5428 -0.9198  0.4592
 8633TIP3    H147314   3.811   1.269  14.705  1.2096  0.2390  0.3068
 8633TIP3    H247315   3.951   1.272  14.763  0.5559  0.5753  1.9125
 8634TIP3   OH247316   5.798   0.811  14.016 -0.4714 -0.8425 -0.4304
 8634TIP3    H147317   5.718   0.817  13.963 -0.7959 -0.9190  0.0507
 8634TIP3    H247318   5.767   0.804  14.106  0.0831 -0.6064 -0.2183
 8635TIP3   OH247319   0.588   1.505   0.858  0.3265 -0.6929 -0.2346
 8635TIP3    H147320   0.671   1.493   0.813  0.5783 -0.6224  0.2086
 8635TIP3    H247321   0.594   1.448   0.935 -0.3153 -1.2275 -0.5733
 8636TIP3   OH247322   2.465   4.183   3.923  0.2474 -0.1136 -0.2876
 8636TIP3    H147323   2.539   4.242   3.934  1.3098 -0.9963 -2.4241
 8636TIP3    H247324   2.397   4.236   3.881  1.1362 -0.3144 -2.0384
 8637TIP3   OH247325   4.417   5.049   4.594 -0.1257  0.2376  0.5274
 8637TIP3    H147326   4.508   5.044   4.621  0.6778 -0.5480 -2.1123
 8637TIP3    H247327   4.414   5.124   4.535 -1.6839  1.5801  2.2669
 8638TIP3   OH247328   6.249   1.406  12.387 -0.1154 -0.0328 -0.1134
 8638TIP3    H147329   6.172   1.419  12.331  0.3300  1.3177 -0.4220
 8638TIP3    H247330   6.319   1.455  12.343  0.8243 -0.9036  0.3861
 8639TIP3   OH247331   2.866   5.528  14.432  0.0211  0.0069 -0.2465
 8639TIP3    H147332   2.808   5.603  14.418 -1.0834 -1.0976 -1.6048
 8639TIP3    H247333   2.914   5.519  14.350 -0.4736 -1.3271 -0.3925
 8640TIP3   OH247334   0.435   1.753   3.891  0.0300 -0.4221  0.2485
 8640TIP3    H147335   0.431   1.820   3.959 -3.3533 -1.7255  1.4016
 8640TIP3    H247336   0.528   1.750   3.866  0.3486  4.2477  0.5291
 8641TIP3   OH247337   2.348   1.053  16.978  0.3296 -0.2426 -0.5213
 8641TIP3    H147338   2.383   0.973  17.016  0.2163  0.9877  2.2850
 8641TIP3    H247339   2.261   1.062  17.015 -0.0596  0.6772 -1.6018
 8642TIP3   OH247340   6.216   4.096   6.299  0.2604 -0.3152  0.2156
 8642TIP3    H147341   6.144   4.155   6.318  1.2334  0.4841  1.5310
 8642TIP3    H247342   6.215   4.033   6.371  0.5994 -0.5730  0.0010
 8643TIP3   OH247343   1.876   2.072   0.914  0.3899  0.0745  0.0572
 8643TIP3    H147344   1.930   2.147   0.942  1.6032 -1.3087  1.5491
 8643TIP3    H247345   1.813   2.109   0.853  0.2638  2.5258  1.6048
 8644TIP3   OH247346   5.164   3.477  11.281  0.2881  0.4158 -0.7697
 8644TIP3    H147347   5.227   3.425  11.230 -1.4045  0.3821 -2.8750
 8644TIP3    H247348   5.142   3.421  11.355  3.7158  0.9517  0.7593
 8645TIP3   OH247349   4.112   4.466   3.181 -0.2188 -0.3330 -0.4164
 8645TIP3    H147350   4.142   4.550   3.215 -0.5595 -1.0230  1.6263
 8645TIP3    H247351   4.193   4.421   3.155 -0.0443  0.6408 -1.6141
 8646TIP3   OH247352   5.224   3.911  10.767 -0.0160  0.4365  0.3167
 8646TIP3    H147353   5.301   3.967  10.756 -1.6371  2.1855 -2.4647
 8646TIP3    H247354   5.259   3.822  10.762  1.9542  1.2005  0.1051
 8647TIP3   OH247355   6.436   3.149   0.926  0.4091  0.5121 -0.0266
 8647TIP3    H147356   6.510   3.208   0.942 -0.2564  0.9634  1.4358
 8647TIP3    H247357   6.476   3.064   0.906  1.3331  0.8965  0.1896
 8648TIP3   OH247358   2.589   5.825  14.676  0.2838  0.3185 -0.0603
 8648TIP3    H147359   2.557   5.915  14.668 -2.3790 -0.3759  2.0669
 8648TIP3    H247360   2.582   5.805  14.770  1.2566 -1.9790 -0.4275
 8649TIP3   OH247361   5.057   3.608  14.341  0.4055  0.2711 -0.1838
 8649TIP3    H147362   4.976   3.588  14.389  1.6257 -3.0509  0.6298
 8649TIP3    H247363   5.045   3.568  14.255  1.7232 -1.6134  0.4621
 8650TIP3   OH247364   1.938   3.182   3.906 -0.2453 -0.3944  0.6342
 8650TIP3    H147365   1.851   3.216   3.926  0.0435  0.0891  1.0703
 8650TIP3    H247366   1.962   3.224   3.823  1.0356  2.2039  2.2775
 8651TIP3   OH247367   3.126   2.135   2.084  0.4035 -0.1268 -0.2623
 8651TIP3    H147368   3.056   2.125   2.148  1.2580  0.8989  0.8424
 8651TIP3    H247369   3.194   2.186   2.129  1.1388  0.3604 -1.8665
 8652TIP3   OH247370   1.167   6.568  16.791 -0.4435 -0.3071 -0.5487
 8652TIP3    H147371   1.141   6.522  16.712 -1.0147 -2.0900  0.6428
 8652TIP3    H247372   1.144   6.509  16.863 -1.5071  1.9687  1.0772
 8653TIP3   OH247373   1.161   0.820  12.716  0.5906  0.2948  0.4170
 8653TIP3    H147374   1.134   0.730  12.698  0.6224  0.3088  0.3012
 8653TIP3    H247375   1.095   0.853  12.776 -0.0384  0.5542 -0.4106
 8654TIP3   OH247376   3.887   0.066  16.723 -0.4052  0.5873  0.0042
 8654TIP3    H147377   3.925   0.052  16.636 -0.8147 -2.7837  0.3266
 8654TIP3    H247378   3.960   0.053  16.784 -0.8115 -0.2589  0.3177
 8655TIP3   OH247379   6.445   0.134  12.895 -0.8693  0.0353 -0.0593
 8655TIP3    H147380   6.481   0.047  12.878  1.6209  0.9947  0.1070
 8655TIP3    H247381   6.444   0.176  12.809 -1.0646  0.2276  0.0364
 8656TIP3   OH247382   2.160   5.588  16.468  0.1711  0.0760  0.6513
 8656TIP3    H147383   2.200   5.550  16.389 -0.7197  1.2544 -0.3932
 8656TIP3    H247384   2.228   5.645  16.504 -0.4830  2.0901 -1.1347
 8657TIP3   OH247385   2.783   4.298  15.284  0.0820 -0.0186 -0.0060
 8657TIP3    H147386   2.744   4.376  15.324 -0.5315 -1.0135  1.3640
 8657TIP3    H247387   2.857   4.276  15.341 -0.2269 -0.9016  0.0650
 8658TIP3   OH247388   1.700   5.798   4.245 -0.3928  0.4419  0.6975
 8658TIP3    H147389   1.782   5.749   4.238 -0.1773  0.3360  3.3415
 8658TIP3    H247390   1.726   5.890   4.246 -0.2648  0.3957  1.9097
 8659TIP3   OH247391   2.509   5.571  14.259 -0.0519 -0.0472  0.2823
 8659TIP3    H147392   2.602   5.570  14.239 -0.3538  5.0678 -2.3689
 8659TIP3    H247393   2.500   5.636  14.329 -1.7464  1.2850 -1.0969
 8660TIP3   OH247394   5.746   6.470   4.099 -0.5653 -0.2093  0.1293
 8660TIP3    H147395   5.746   6.437   4.189 -0.4733 -0.2321  0.1211
 8660TIP3    H247396   5.675   6.534   4.097 -1.0294 -0.7160  0.0326
 8661TIP3   OH247397   1.835   3.127  15.446  0.2184 -0.6675 -0.6182
 8661TIP3    H147398   1.827   3.032  15.439 -2.1459 -0.4100 -2.1548
 8661TIP3    H247399   1.746   3.159  15.432  0.5192  1.6683  2.5086
 8662TIP3   OH247400   1.531   1.577   2.154  0.2510  0.2621 -0.3765
 8662TIP3    H147401   1.612   1.558   2.202 -0.6401 -1.0111  0.6642
 8662TIP3    H247402   1.469   1.605   2.221 -0.7148 -0.5697 -0.8949
 8663TIP3   OH247403   2.097   0.227  12.394 -0.0651  0.5954 -0.1483
 8663TIP3    H147404   2.018   0.209  12.443  1.3962  0.0791  2.0970
 8663TIP3    H247405   2.103   0.323  12.392 -0.1548  0.6177  0.6648
 8664TIP3   OH247406   2.414   0.202   1.362  1.0700  0.4670 -0.0188
 8664TIP3    H147407   2.408   0.295   1.382  4.4662  0.8558 -0.4929
 8664TIP3    H247408   2.401   0.158   1.446 -1.4763  1.2478  0.0605
 8665TIP3   OH247409   2.958   4.607  16.372 -0.3451 -0.2234 -0.4065
 8665TIP3    H147410   2.994   4.650  16.449  2.1917 -0.8389 -1.2087
 8665TIP3    H247411   2.864   4.625  16.376  0.0273  1.3759  1.7761
 8666TIP3   OH247412   6.548   2.092   1.034 -0.6513 -0.1034  0.0124
 8666TIP3    H147413   6.489   2.017   1.032  0.3890 -0.9492  0.5395
 8666TIP3    H247414   6.526   2.138   1.115 -1.3642  0.2272 -0.3653
 8667TIP3   OH247415   2.071   1.118   1.543 -0.6454 -0.1655 -0.2622
 8667TIP3    H147416   2.087   1.195   1.488  0.0776  0.2801  0.5578
 8667TIP3    H247417   1.983   1.130   1.577  0.1905  1.3499  1.4941
 8668TIP3   OH247418   2.776   5.426  15.282  0.3380 -0.6376 -0.4833
 8668TIP3    H147419   2.837   5.443  15.354 -0.2309 -1.9195  0.3085
 8668TIP3    H247420   2.823   5.458  15.204  1.7282 -0.9268  0.2100
 8669TIP3   OH247421   3.434   4.012  15.485 -0.4336  0.2805 -0.3320
 8669TIP3    H147422   3.518   3.994  15.442 -0.6095 -0.2882 -0.4375
 8669TIP3    H247423   3.458   4.048  15.571 -0.0818  1.0791 -0.7574
 8670TIP3   OH247424   2.353   5.897   1.312 -0.7880 -0.2929 -0.2760
 8670TIP3    H147425   2.382   5.938   1.394 -2.0027 -0.6380  0.3439
 8670TIP3    H247426   2.401   5.815   1.307 -2.5104 -1.4318  1.3530
 8671TIP3   OH247427   2.894   2.549   2.846 -0.1345 -0.1347  0.7953
 8671TIP3    H147428   2.836   2.554   2.769 -0.1711  0.3014  0.8495
 8671TIP3    H247429   2.892   2.457   2.871  0.4999 -0.4240 -0.2050
 8672TIP3   OH247430   6.400   6.353  14.348 -0.3707  0.0042  0.2495
 8672TIP3    H147431   6.410   6.448  14.336 -1.1049  0.0075 -0.4311
 8672TIP3    H247432   6.305   6.339  14.338 -0.1345 -0.9397 -0.6972
 8673TIP3   OH247433   1.365   3.212  16.996  0.1168  0.5738  0.5038
 8673TIP3    H147434   1.454   3.247  16.994  0.1088  0.6922  1.8202
 8673TIP3    H247435   1.309   3.288  17.013 -0.2218  0.4737 -0.1517
 8674TIP3   OH247436   4.295   0.725  15.533 -0.2183  0.1737  0.0802
 8674TIP3    H147437   4.283   0.639  15.493  1.7685 -0.7373  1.3926
 8674TIP3    H247438   4.206   0.761  15.538 -0.8136 -0.7594 -2.6845
 8675TIP3   OH247439   5.224   2.042   4.971  0.0867  0.2694 -0.8004
 8675TIP3    H147440   5.249   1.950   4.980 -0.9681  0.0649  0.2957
 8675TIP3    H247441   5.180   2.062   5.054 -2.1846  0.9383 -2.1088
 8676TIP3   OH247442   6.783   4.903   2.290 -0.2788 -0.5200 -0.2853
 8676TIP3    H147443   6.761   4.956   2.367  0.3598 -0.6142 -0.0369
 8676TIP3    H247444   6.774   4.813   2.319  1.0840 -0.5727  0.0248
 8677TIP3   OH247445   0.547   0.148  11.541 -0.3389  0.6424  0.1653
 8677TIP3    H147446   0.476   0.193  11.586 -1.0181  0.6228 -0.8690
 8677TIP3    H247447   0.616   0.214  11.533 -0.7888  1.0835 -0.0920
 8678TIP3   OH247448   1.568   5.754  15.574 -0.3946 -0.3392  0.2918
 8678TIP3    H147449   1.540   5.815  15.506 -1.5662 -1.1021  0.0733
 8678TIP3    H247450   1.500   5.759  15.641  0.7194  0.3610  1.3948
 8679TIP3   OH247451   5.476   5.953  16.784 -0.0463  0.7705 -0.0057
 8679TIP3    H147452   5.466   5.870  16.831  1.3402 -0.1051 -1.2482
 8679TIP3    H247453   5.553   5.994  16.824 -1.3390  1.9839  1.3293
 8680TIP3   OH247454   6.751   0.102  12.628 -0.0512 -0.3642  0.5851
 8680TIP3    H147455   6.822   0.122  12.566 -0.6961 -0.4025 -0.1750
 8680TIP3    H247456   6.702   0.031  12.585  0.4068 -1.4624  1.8461
 8681TIP3   OH247457   2.834   4.016   4.917 -0.1083 -0.3002  0.2339
 8681TIP3    H147458   2.919   3.984   4.887 -0.3018 -0.6177  0.0172
 8681TIP3    H247459   2.850   4.047   5.006 -0.0705 -1.6955  0.7324
 8682TIP3   OH247460   2.870   4.645   2.130 -0.0225  0.4660  0.2466
 8682TIP3    H147461   2.936   4.585   2.094 -0.9173 -0.3446 -0.0784
 8682TIP3    H247462   2.815   4.590   2.185 -0.7972  1.0055  0.0269
 8683TIP3   OH247463   0.244   5.785  11.638  0.1253  0.2247 -0.1808
 8683TIP3    H147464   0.246   5.812  11.730  0.6901 -0.4780  0.0199
 8683TIP3    H247465   0.336   5.781  11.612  0.1058 -2.0860 -0.0107
 8684TIP3   OH247466   1.605   6.116  14.299  0.5546 -0.2906  0.2864
 8684TIP3    H147467   1.678   6.061  14.271  1.9020  0.7634  1.6327
 8684TIP3    H247468   1.547   6.120  14.222  1.9745 -1.0299 -0.8485
 8685TIP3   OH247469   6.039   3.915  12.667 -0.5834 -0.4687  0.1777
 8685TIP3    H147470   6.078   3.875  12.589 -0.4332  1.2903 -0.6601
 8685TIP3    H247471   6.044   3.846  12.734  0.7259 -1.4571 -0.9075
 8686TIP3   OH247472   4.125   5.121   0.226 -0.1728  0.0783  0.0203
 8686TIP3    H147473   4.142   5.042   0.277 -0.4358  0.2158  0.3190
 8686TIP3    H247474   4.113   5.089   0.137  0.9801 -0.0949 -0.0888
 8687TIP3   OH247475   5.759   2.351   3.334  0.0202 -0.1628 -0.4144
 8687TIP3    H147476   5.758   2.266   3.291  1.3998 -1.1848  1.5361
 8687TIP3    H247477   5.677   2.355   3.382 -0.8346  0.3615 -1.8620
 8688TIP3   OH247478   0.005   0.970  16.173 -0.1954 -0.0381 -0.2336
 8688TIP3    H147479   0.048   0.885  16.185 -0.6315 -0.1854  0.3040
 8688TIP3    H247480   0.013   0.987  16.080  0.5858 -0.3026 -0.2218
 8689TIP3   OH247481   5.612   6.270   1.906  0.1201 -0.0894  0.0525
 8689TIP3    H147482   5.637   6.181   1.932  1.1343  0.3430  0.6129
 8689TIP3    H247483   5.680   6.297   1.844  1.3575  1.2852  1.9545
 8690TIP3   OH247484   3.549   0.808  11.864  0.0977 -0.1149 -0.7943
 8690TIP3    H147485   3.535   0.753  11.940  1.5976  0.6428  0.0495
 8690TIP3    H247486   3.629   0.775  11.824  1.1903  1.6498 -0.0895
 8691TIP3   OH247487   1.393   1.743   5.821 -0.2285 -0.3754  0.0652
 8691TIP3    H147488   1.378   1.775   5.910 -0.6643  2.5506 -0.9979
 8691TIP3    H247489   1.436   1.659   5.833 -0.1876  0.0028  3.0494
 8692TIP3   OH247490   1.073   0.354  11.281  0.0086 -0.8711 -0.1405
 8692TIP3    H147491   1.083   0.260  11.263  0.5823 -1.0663  1.1223
 8692TIP3    H247492   0.979   0.369  11.281 -0.1297 -1.7378  1.0939
 8693TIP3   OH247493   6.170   1.543   1.531  0.1067 -0.3377 -0.2249
 8693TIP3    H147494   6.248   1.522   1.480  1.2205  3.1348 -0.0416
 8693TIP3    H247495   6.188   1.507   1.618 -0.1431 -2.8193 -1.1534
 8694TIP3   OH247496   1.691   3.124  16.372 -0.1044 -0.0507  0.3072
 8694TIP3    H147497   1.708   3.032  16.391 -1.7279 -0.1725  1.2221
 8694TIP3    H247498   1.731   3.138  16.286 -0.3653 -1.7651 -0.1129
 8695TIP3   OH247499   6.390   0.589   1.783  0.0107 -0.3512 -0.4199
 8695TIP3    H147500   6.332   0.515   1.801  1.8489 -1.2553  2.1223
 8695TIP3    H247501   6.339   0.666   1.807 -0.6570 -1.0448  0.4275
 8696TIP3   OH247502   4.970   3.832  14.793  0.0303  0.3341 -0.1160
 8696TIP3    H147503   5.062   3.807  14.789  0.3626  1.3091  1.1966
 8696TIP3    H247504   4.968   3.920  14.755 -0.3183  0.4173  0.0959
 8697TIP3   OH247505   5.322   0.773   2.600  0.0917 -0.2345  0.2056
 8697TIP3    H147506   5.288   0.766   2.689 -0.3236 -1.4960 -0.0384
 8697TIP3    H247507   5.250   0.812   2.550  0.3646  0.5766  0.4435
 8698TIP3   OH247508   4.332   0.056   5.222 -0.0186 -0.8852  0.2106
 8698TIP3    H147509   4.257   0.045   5.281  0.0568 -0.2340  0.4245
 8698TIP3    H247510   4.293   0.052   5.134 -0.1797 -1.4709  0.3067
 8699TIP3   OH247511   1.094   6.216   0.704  0.0504 -0.3755  0.7117
 8699TIP3    H147512   1.072   6.138   0.654  1.2161 -0.5899  0.5197
 8699TIP3    H247513   1.171   6.191   0.755 -0.1856  0.3264  1.4192
 8700TIP3   OH247514   6.675   1.296   0.255 -0.0076 -0.3709  0.0424
 8700TIP3    H147515   6.656   1.362   0.322  0.4912 -0.9489  0.7575
 8700TIP3    H247516   6.769   1.304   0.240  0.1350 -1.2136  0.4491
 8701TIP3   OH247517   5.423   5.450  11.404  0.0536 -0.3611  0.0344
 8701TIP3    H147518   5.387   5.521  11.352  3.9754 -0.1576 -2.5624
 8701TIP3    H247519   5.441   5.490  11.490  1.7721  1.6852 -1.2398
 8702TIP3   OH247520   6.169   0.520   3.584  0.3600 -0.2863  0.0671
 8702TIP3    H147521   6.249   0.490   3.542  1.4170  1.0242  1.0809
 8702TIP3    H247522   6.170   0.615   3.573 -1.8249 -0.3642 -1.2146
 8703TIP3   OH247523   6.433   0.572   6.587  0.8665  0.1028  0.6164
 8703TIP3    H147524   6.426   0.568   6.492  2.5786 -1.0588  0.5076
 8703TIP3    H247525   6.355   0.527   6.619  0.9605 -0.6952 -0.2721
 8704TIP3   OH247526   0.081   5.835  12.038  0.5423  0.1054 -0.2751
 8704TIP3    H147527   0.050   5.750  12.008  0.2245 -0.0428  0.4555
 8704TIP3    H247528   0.021   5.859  12.109  0.8638  0.7588 -0.2141
 8705TIP3   OH247529   0.844   0.993   3.844 -0.4904  0.1712  0.2002
 8705TIP3    H147530   0.930   1.019   3.812  0.0002 -0.0752  1.2816
 8705TIP3    H247531   0.861   0.951   3.929 -1.6392 -0.1643  0.2834
 8706TIP3   OH247532   0.226   4.220   4.635  0.6527 -0.2433  0.8445
 8706TIP3    H147533   0.225   4.251   4.545  1.3321  1.5392  1.4105
 8706TIP3    H247534   0.206   4.127   4.630 -0.5691  0.1060 -1.0252
 8707TIP3   OH247535   0.191   1.602  15.104 -0.6140 -0.0949  0.4994
 8707TIP3    H147536   0.189   1.530  15.168 -0.9925 -0.4854  0.0514
 8707TIP3    H247537   0.237   1.672  15.149  0.6359 -0.9498  0.5960
 8708TIP3   OH247538   4.687   4.713   5.174  0.0006  0.3147  0.0547
 8708TIP3    H147539   4.735   4.704   5.091  1.1376  0.9127  0.6526
 8708TIP3    H247540   4.747   4.758   5.233  0.0369 -2.0756  1.9252
 8709TIP3   OH247541   3.782   1.088   6.147 -0.5724 -0.3147  0.2917
 8709TIP3    H147542   3.865   1.061   6.108 -0.3154 -1.1704  1.4223
 8709TIP3    H247543   3.807   1.151   6.214 -0.9360  0.2975 -0.1363
 8710TIP3   OH247544   2.933   4.476  14.246  0.7668  0.0679 -0.8869
 8710TIP3    H147545   2.844   4.492  14.215  0.2587  1.9703  1.3876
 8710TIP3    H247546   2.983   4.552  14.215  0.8637  0.5891  0.4832
 8711TIP3   OH247547   6.167   4.871   0.803 -0.1499  0.1027  0.9762
 8711TIP3    H147548   6.157   4.858   0.897  2.2321 -1.2503  1.0898
 8711TIP3    H247549   6.256   4.841   0.784 -0.4499  0.7306 -1.6451
 8712TIP3   OH247550   2.764   3.384   2.808 -0.3913  0.5318  0.5025
 8712TIP3    H147551   2.698   3.316   2.797  1.8051 -1.4993 -0.6678
 8712TIP3    H247552   2.738   3.454   2.748 -1.9765  0.1814  0.7748
 8713TIP3   OH247553   1.223   2.735   2.086  0.5053 -0.1888 -0.0842
 8713TIP3    H147554   1.242   2.680   2.010  3.4034  1.5396 -0.7089
 8713TIP3    H247555   1.189   2.816   2.049  1.6208  0.5390  0.4603
 8714TIP3   OH247556   1.128   4.871   5.504  0.4966  0.0838 -0.0445
 8714TIP3    H147557   1.201   4.911   5.456  1.6226  0.7440  2.1262
 8714TIP3    H247558   1.158   4.782   5.523 -0.3196 -0.4728 -1.3279
 8715TIP3   OH247559   6.738   1.876  14.588  0.3695  0.1856 -0.1595
 8715TIP3    H147560   6.789   1.834  14.657  0.0207 -1.8467 -1.1172
 8715TIP3    H247561   6.646   1.863  14.613  0.2416 -0.4439 -0.9270
 8716TIP3   OH247562   5.385   0.487  13.513 -0.1408  0.3882  0.0455
 8716TIP3    H147563   5.457   0.509  13.454  0.8392 -0.7044  0.7951
 8716TIP3    H247564   5.391   0.551  13.584 -0.0973  0.4848 -0.0450
 8717TIP3   OH247565   3.389   5.130   2.948  0.3019  0.0698  0.6941
 8717TIP3    H147566   3.380   5.044   2.907  0.1764 -0.2807  1.4386
 8717TIP3    H247567   3.362   5.192   2.881 -1.0427 -0.5630  0.6405
 8718TIP3   OH247568   0.738   2.851   1.240 -0.0812 -0.2608  0.0252
 8718TIP3    H147569   0.749   2.770   1.289 -0.7409 -1.6599 -2.0595
 8718TIP3    H247570   0.678   2.903   1.294  1.4701 -0.5153  2.0733
 8719TIP3   OH247571   6.705   4.027   3.128 -0.2733  0.5677 -0.8209
 8719TIP3    H147572   6.682   3.983   3.046  1.4171 -0.0100 -1.0176
 8719TIP3    H247573   6.651   4.106   3.129 -0.9042  0.1704 -2.0945
 8720TIP3   OH247574   2.469   5.860   0.523  0.5074 -0.3442  0.4813
 8720TIP3    H147575   2.399   5.848   0.459  0.4695 -1.0173  0.6538
 8720TIP3    H247576   2.425   5.891   0.602  0.4975 -0.0113  0.3476
 8721TIP3   OH247577   6.197   5.741  14.899 -0.0018 -0.1586  0.2063
 8721TIP3    H147578   6.110   5.713  14.929  0.8488 -2.6195  0.5032
 8721TIP3    H247579   6.256   5.671  14.929  2.3568  2.2748  1.4749
 8722TIP3   OH247580   4.009   5.648   4.465  0.2089  0.0437 -0.3771
 8722TIP3    H147581   3.987   5.629   4.373 -3.7553  3.7591 -0.3576
 8722TIP3    H247582   4.092   5.695   4.460  0.9504 -1.3723 -1.8964
 8723TIP3   OH247583   2.327   6.053  16.047 -0.1246 -0.3868 -0.2957
 8723TIP3    H147584   2.310   6.070  15.955  1.6739  0.2055 -0.5488
 8723TIP3    H247585   2.307   6.136  16.091 -3.1391 -1.3244  0.1810
 8724TIP3   OH247586   5.609   3.777  11.604 -0.9846 -0.2625  0.0675
 8724TIP3    H147587   5.590   3.755  11.695 -1.0559 -1.2397 -0.1752
 8724TIP3    H247588   5.705   3.772  11.598 -0.8275  1.7616  0.5700
 8725TIP3   OH247589   1.748   4.762   3.026  0.9902 -0.0877 -0.3701
 8725TIP3    H147590   1.818   4.740   2.965 -0.5839 -1.4556 -1.7579
 8725TIP3    H247591   1.707   4.840   2.988  1.2003  0.1811 -0.0446
 8726TIP3   OH247592   3.268   1.273   5.552  1.0247 -0.4728  0.3694
 8726TIP3    H147593   3.294   1.288   5.461 -0.1681 -1.4422 -0.1355
 8726TIP3    H247594   3.333   1.323   5.603 -0.0122  2.5051 -1.0837
 8727TIP3   OH247595   3.588   4.397  12.674  0.5270  0.2254 -0.1558
 8727TIP3    H147596   3.634   4.444  12.605  0.7983 -2.1286 -1.6336
 8727TIP3    H247597   3.496   4.421  12.663  0.5957  0.0186 -1.2223
 8728TIP3   OH247598   2.203   0.973  10.879 -0.2012 -0.1931  0.7599
 8728TIP3    H147599   2.279   0.915  10.881 -0.2439 -0.2547  0.6348
 8728TIP3    H247600   2.240   1.061  10.887 -0.0829 -0.1980  0.2991
 8729TIP3   OH247601   6.236   2.799   6.001  0.6621  0.1977 -0.3349
 8729TIP3    H147602   6.160   2.795   6.059  0.6102 -1.0935 -0.4858
 8729TIP3    H247603   6.299   2.854   6.049 -0.3042  1.1796 -0.1643
 8730TIP3   OH247604   5.030   6.123  14.616 -0.4814  0.1451 -0.1308
 8730TIP3    H147605   4.967   6.185  14.579  0.4806 -0.4277 -2.8006
 8730TIP3    H247606   4.985   6.039  14.612  0.1273 -0.1289 -1.2597
 8731TIP3   OH247607   4.037   1.324  16.304 -0.4990 -0.7739 -0.4027
 8731TIP3    H147608   4.060   1.402  16.254  0.2676 -2.1885 -2.3112
 8731TIP3    H247609   3.950   1.300  16.274 -1.1562 -0.0775  0.9260
 8732TIP3   OH247610   2.107   3.024  12.051 -0.2596 -0.4663  0.2689
 8732TIP3    H147611   2.129   2.977  11.971 -1.0708 -2.6431  1.2685
 8732TIP3    H247612   2.083   3.112  12.022  0.8194 -0.8073 -1.7156
 8733TIP3   OH247613   0.790   2.904  16.252  0.0129  0.3065 -0.3652
 8733TIP3    H147614   0.808   2.948  16.335 -1.5573 -2.9289  1.7922
 8733TIP3    H247615   0.694   2.902  16.246  0.0993  0.2173 -2.0986
 8734TIP3   OH247616   1.815   4.036   3.287 -0.0492 -0.1529 -0.2900
 8734TIP3    H147617   1.787   4.071   3.202  1.5994  1.2157 -0.2922
 8734TIP3    H247618   1.800   4.108   3.348  1.3043 -0.1960  0.1005
 8735TIP3   OH247619   2.168   3.771   5.502  0.2564  0.1535  0.0196
 8735TIP3    H147620   2.197   3.862   5.506  0.8756 -0.0504  0.1678
 8735TIP3    H247621   2.106   3.763   5.574  0.6645  0.2972  0.3926
 8736TIP3   OH247622   6.027   0.949  14.197  0.3615  0.0389 -0.6014
 8736TIP3    H147623   5.970   1.021  14.172  0.4611  0.9214  1.6127
 8736TIP3    H247624   6.086   0.938  14.123 -0.1038  1.7725 -1.2432
 8737TIP3   OH247625   3.848   2.804   3.913 -0.7859  0.3322 -0.5866
 8737TIP3    H147626   3.875   2.712   3.907 -2.4367 -0.1034 -1.6845
 8737TIP3    H247627   3.878   2.832   3.999 -0.7092 -1.3827 -0.0360
 8738TIP3   OH247628   4.761   3.308  12.866  0.2797 -0.0030  0.3370
 8738TIP3    H147629   4.672   3.325  12.834  0.7371  0.4410 -0.7359
 8738TIP3    H247630   4.809   3.279  12.788  1.4567  1.2452  0.5806
 8739TIP3   OH247631   0.668   6.738   5.275 -0.1581 -0.0025  0.2349
 8739TIP3    H147632   0.693   6.824   5.308  0.0915  0.4045 -0.9926
 8739TIP3    H247633   0.642   6.689   5.353  2.0452  0.3765  1.2283
 8740TIP3   OH247634   2.154   0.509  12.148  0.3437  0.2404  0.6527
 8740TIP3    H147635   2.213   0.557  12.206 -0.5449  0.7390  1.1631
 8740TIP3    H247636   2.069   0.511  12.193 -0.5585  1.3297 -1.0265
 8741TIP3   OH247637   6.518   0.943   1.760  0.2116  0.4382 -0.2889
 8741TIP3    H147638   6.476   0.928   1.676 -0.1385 -1.1287  0.1517
 8741TIP3    H247639   6.594   0.884   1.760  1.1978  1.6916 -0.2083
 8742TIP3   OH247640   5.868   1.843   0.594  0.1041 -0.3477 -0.6998
 8742TIP3    H147641   5.931   1.773   0.611  0.3033 -1.0968 -4.1160
 8742TIP3    H247642   5.916   1.907   0.542 -0.9375  0.8420 -0.2327
 8743TIP3   OH247643   3.805   2.941  16.519 -0.0761 -0.4490  0.1346
 8743TIP3    H147644   3.765   2.947  16.432 -2.1157 -2.0916  0.9447
 8743TIP3    H247645   3.813   3.032  16.547 -3.4091 -0.0556  0.0087
 8744TIP3   OH247646   2.911   5.178  11.481 -0.4450  0.0631  0.2371
 8744TIP3    H147647   2.981   5.118  11.454  1.3202  2.1418  0.0689
 8744TIP3    H247648   2.859   5.192  11.402  1.3351  1.6230 -0.6983
 8745TIP3   OH247649   0.202   2.029   0.158  0.2148  0.1770 -0.0910
 8745TIP3    H147650   0.236   2.047   0.246 -0.7684  0.6816  0.1895
 8745TIP3    H247651   0.130   1.968   0.172 -0.1818  0.5488 -0.5052
 8746TIP3   OH247652   4.533   2.139   4.490  0.3324 -0.0182  0.4186
 8746TIP3    H147653   4.582   2.058   4.504 -0.6629 -0.7357 -0.2063
 8746TIP3    H247654   4.598   2.208   4.501  1.4825 -0.9539 -0.3038
 8747TIP3   OH247655   4.246   2.348  16.206  0.2125 -0.1530 -0.1636
 8747TIP3    H147656   4.267   2.385  16.292  2.5922  1.7671 -1.5092
 8747TIP3    H247657   4.152   2.360  16.196  0.2594  1.5156  1.3033
 8748TIP3   OH247658   4.568   3.507   2.555 -0.1406 -0.0534 -0.3507
 8748TIP3    H147659   4.630   3.580   2.565 -1.9533  1.0944  3.4098
 8748TIP3    H247660   4.501   3.541   2.496 -0.6026  1.1064  0.8151
 8749TIP3   OH247661   0.837   6.558  14.371  0.3702 -0.1392  0.0188
 8749TIP3    H147662   0.890   6.548  14.450  1.8619 -1.5215 -1.1125
 8749TIP3    H247663   0.747   6.550  14.402  0.9714 -1.7183  1.4624
 8750TIP3   OH247664   0.307   0.297  16.066  1.0183 -0.0520 -0.2841
 8750TIP3    H147665   0.351   0.237  16.126  0.6108  1.0785  1.1712
 8750TIP3    H247666   0.366   0.306  15.992  1.3573 -1.7691 -0.2387
 8751TIP3   OH247667   3.006   6.142  16.855  0.5328 -0.3997  0.1503
 8751TIP3    H147668   2.970   6.206  16.794 -0.1924 -0.7687  0.1947
 8751TIP3    H247669   3.055   6.081  16.799 -0.5321 -1.0166 -0.1200
 8752TIP3   OH247670   4.449   4.428  14.067  0.6562 -0.8046 -0.1009
 8752TIP3    H147671   4.416   4.399  14.152  1.0630  1.0704  0.7261
 8752TIP3    H247672   4.371   4.450  14.017  0.4865  0.2723  0.6144
 8753TIP3   OH247673   0.681   3.362  10.857 -0.5555  0.3617  0.4597
 8753TIP3    H147674   0.721   3.275  10.855 -2.2748 -0.4419 -1.6177
 8753TIP3    H247675   0.612   3.354  10.923 -0.5394  0.1943  0.4584
 8754TIP3   OH247676   5.843   3.791   4.943  0.0345 -0.1298  0.2951
 8754TIP3    H147677   5.827   3.770   4.851 -0.9380  0.3851  0.3436
 8754TIP3    H247678   5.938   3.795   4.950  0.1235 -0.3826 -0.6375
 8755TIP3   OH247679   2.270   0.004  12.437  0.1290 -0.6665 -0.3154
 8755TIP3    H147680   2.329   0.037  12.369  0.9436  0.3543  0.8870
 8755TIP3    H247681   2.213   0.079  12.457  0.6459 -0.6206  0.9601
 8756TIP3   OH247682   4.448   2.369  12.289 -0.1922  1.0951  0.1857
 8756TIP3    H147683   4.402   2.453  12.295 -2.2924  0.0886 -1.0190
 8756TIP3    H247684   4.521   2.377  12.350 -0.3855  3.7687  0.1440
 8757TIP3   OH247685   3.980   3.847   2.753 -0.1926  0.0338 -0.3037
 8757TIP3    H147686   4.039   3.808   2.818 -0.2600  1.4654  0.6288
 8757TIP3    H247687   3.987   3.942   2.768 -1.0668  0.3170 -1.6349
 8758TIP3   OH247688   3.916   6.039   1.353 -0.4084 -0.1359  0.4240
 8758TIP3    H147689   3.906   6.098   1.278  0.3674 -0.0047  0.4210
 8758TIP3    H247690   3.927   5.952   1.314  0.0153 -0.0649  0.3767
 8759TIP3   OH247691   4.697   0.660   2.395 -0.5672 -0.7863  0.2639
 8759TIP3    H147692   4.688   0.707   2.313  0.2772 -1.9219 -0.4954
 8759TIP3    H247693   4.617   0.680   2.443 -1.1895 -0.3357 -0.9428
 8760TIP3   OH247694   5.007   1.290  17.140 -0.4568  0.5200 -0.1973
 8760TIP3    H147695   4.963   1.253  17.217 -0.9286 -0.9416 -1.1553
 8760TIP3    H247696   5.028   1.214  17.086  0.7741  1.4632 -1.0424
 8761TIP3   OH247697   6.101   0.588   3.042 -0.2731  0.4895 -0.8580
 8761TIP3    H147698   6.058   0.571   3.126  0.5780 -1.3980 -0.7811
 8761TIP3    H247699   6.057   0.529   2.980  3.8214 -3.4533 -0.2756
 8762TIP3   OH247700   3.605   3.597  14.460 -0.7367 -0.5220 -0.3348
 8762TIP3    H147701   3.574   3.545  14.534  0.1742  0.2074  0.5668
 8762TIP3    H247702   3.680   3.646  14.494 -0.7953  0.4191 -1.5226
 8763TIP3   OH247703   4.830   6.184  11.850 -0.3743 -0.2681  0.4685
 8763TIP3    H147704   4.890   6.219  11.916 -0.4835 -2.4029  1.7262
 8763TIP3    H247705   4.841   6.243  11.775  1.1020  1.1093  1.7174
 8764TIP3   OH247706   2.642   3.324  11.575 -0.0329 -0.1798 -0.0977
 8764TIP3    H147707   2.554   3.356  11.553  0.0158  0.1243  0.1545
 8764TIP3    H247708   2.662   3.261  11.506 -0.5489 -0.4253 -0.0259
 8765TIP3   OH247709   4.406   0.781   6.251 -0.5216 -0.0561  0.3846
 8765TIP3    H147710   4.365   0.726   6.318 -0.7559  0.0289  0.3133
 8765TIP3    H247711   4.339   0.848   6.232  0.1129  0.8130  1.1499
 8766TIP3   OH247712   1.860   0.002  15.940 -0.0251  0.5989  0.4533
 8766TIP3    H147713   1.907   0.050  16.008  0.1391 -1.7159  2.0533
 8766TIP3    H247714   1.917   0.007  15.863  1.8773 -0.3528  1.7592
 8767TIP3   OH247715   2.707   4.069  16.970 -0.3474 -0.2947  0.3908
 8767TIP3    H147716   2.754   4.067  16.886  0.0476  0.5053  0.5969
 8767TIP3    H247717   2.632   4.126  16.954 -0.3733 -0.2892  0.5318
 8768TIP3   OH247718   6.055   5.168   1.150  0.0072 -0.1143  0.5043
 8768TIP3    H147719   5.990   5.137   1.087 -1.5231  1.7649  1.1152
 8768TIP3    H247720   6.030   5.128   1.233 -0.6472  0.9720  0.8335
 8769TIP3   OH247721   2.425   6.032   2.733 -0.2229  0.2925 -0.4592
 8769TIP3    H147722   2.456   6.064   2.649  0.1986 -0.2790 -0.5256
 8769TIP3    H247723   2.379   5.951   2.713  0.6546 -0.3249 -0.0515
 8770TIP3   OH247724   3.789   1.655   1.086  0.3018  0.0442 -0.1949
 8770TIP3    H147725   3.802   1.561   1.072 -0.2623 -0.1176  0.3710
 8770TIP3    H247726   3.870   1.684   1.129  0.6059 -0.1215 -0.6576
 8771TIP3   OH247727   4.909   3.037   3.781 -0.0947 -0.1598  0.0537
 8771TIP3    H147728   4.965   3.046   3.704 -0.6110 -1.3195 -0.4775
 8771TIP3    H247729   4.894   2.943   3.789 -1.3181  0.0727  0.6487
 8772TIP3   OH247730   4.648   4.643  16.002 -0.1631 -0.2042 -0.4697
 8772TIP3    H147731   4.682   4.721  16.045 -2.4313  1.4273 -1.5359
 8772TIP3    H247732   4.705   4.629  15.926 -0.2982  0.9392 -0.7782
 8773TIP3   OH247733   5.439   3.959  12.702 -0.4505 -0.4476  0.7934
 8773TIP3    H147734   5.465   4.048  12.679  1.2385 -0.3537  2.9158
 8773TIP3    H247735   5.445   3.910  12.621  2.7953  0.4273  0.4466
 8774TIP3   OH247736   1.952   0.893  13.696 -0.6566  0.3815  0.0724
 8774TIP3    H147737   1.975   0.812  13.741  0.1552 -0.0820 -1.1330
 8774TIP3    H247738   1.983   0.963  13.754 -0.2476 -0.1905  0.5401
 8775TIP3   OH247739   6.214   6.186   5.343  0.6373 -0.4439 -0.0383
 8775TIP3    H147740   6.223   6.102   5.298 -0.3179 -0.7549  0.3388
 8775TIP3    H247741   6.177   6.244   5.277 -1.2980 -1.0460  0.4683
 8776TIP3   OH247742   3.044   4.661  11.592  0.0906  0.1105  0.0821
 8776TIP3    H147743   3.004   4.643  11.677  0.3538  1.2663  0.4584
 8776TIP3    H247744   2.975   4.705  11.542  0.5967  1.2712  0.4091
 8777TIP3   OH247745   2.358   1.713  15.474  0.6642 -0.2015  0.4707
 8777TIP3    H147746   2.410   1.744  15.400  0.7522 -0.3887  0.4537
 8777TIP3    H247747   2.341   1.791  15.526  1.0602 -0.1631  0.5400
 8778TIP3   OH247748   1.157   2.978  13.229 -0.5958 -0.1422  0.6029
 8778TIP3    H147749   1.140   3.037  13.156  0.7011 -0.1448  0.2880
 8778TIP3    H247750   1.251   2.964  13.226 -0.8991 -2.2297  0.6935
 8779TIP3   OH247751   0.055   3.642  16.100  0.2404  0.1614 -0.3425
 8779TIP3    H147752   0.056   3.676  16.011 -0.1624  1.6877  0.2291
 8779TIP3    H247753   0.145   3.648  16.130 -0.1841  2.7052  0.4889
 8780TIP3   OH247754   0.482   5.664   2.093  0.0447 -0.1351  0.5599
 8780TIP3    H147755   0.471   5.662   1.998  0.4817  1.4483  0.4712
 8780TIP3    H247756   0.393   5.670   2.127 -0.1033 -0.5680  0.2600
 8781TIP3   OH247757   1.799   1.467  15.592 -0.4211  0.2877 -0.2505
 8781TIP3    H147758   1.876   1.523  15.603  1.5565 -2.3578  0.1769
 8781TIP3    H247759   1.740   1.517  15.536  1.4817  2.5252 -0.3369
 8782TIP3   OH247760   0.589   3.818  13.664 -0.4997 -0.3009 -0.4184
 8782TIP3    H147761   0.564   3.910  13.660 -0.9968 -0.4997 -2.5730
 8782TIP3    H247762   0.534   3.781  13.734 -1.7235  0.6145 -0.8774
 8783TIP3   OH247763   1.073   1.229   0.959  0.4203 -0.1205  0.4521
 8783TIP3    H147764   1.144   1.236   1.023  0.5343 -2.2016  0.5864
 8783TIP3    H247765   1.017   1.158   0.992 -1.4697  1.1602  0.0947
 8784TIP3   OH247766   3.082   1.560  11.963  0.1844 -0.5210 -0.4756
 8784TIP3    H147767   3.036   1.643  11.974  1.1349 -0.0599  0.0724
 8784TIP3    H247768   3.151   1.579  11.899  2.6064  0.0460  2.1856
 8785TIP3   OH247769   6.546   5.982  15.970 -0.1529  0.0910  0.0955
 8785TIP3    H147770   6.500   6.037  16.033 -0.4951  0.3571 -0.3830
 8785TIP3    H247771   6.597   6.043  15.917 -0.6092 -0.0408 -0.4996
 8786TIP3   OH247772   2.816   6.488  16.897 -0.6894  0.6114 -0.4790
 8786TIP3    H147773   2.869   6.524  16.969  1.0740 -0.7043 -1.0739
 8786TIP3    H247774   2.763   6.561  16.867  0.5152  1.8755  0.4059
 8787TIP3   OH247775   4.725   5.307  13.086  0.1059 -0.2503 -0.2181
 8787TIP3    H147776   4.680   5.390  13.067 -0.4560 -0.8830 -1.6892
 8787TIP3    H247777   4.687   5.278  13.169 -0.3609  0.5037 -0.1628
 8788TIP3   OH247778   4.589   3.844   0.806 -0.0073  0.7302 -0.2310
 8788TIP3    H147779   4.560   3.921   0.758 -0.9407  0.6021  0.1202
 8788TIP3    H247780   4.536   3.772   0.771 -1.9810  0.9376  2.2249
 8789TIP3   OH247781   5.000   3.166   5.853 -0.1485  0.1429 -0.3557
 8789TIP3    H147782   5.083   3.209   5.873  0.4395 -0.9044 -0.4922
 8789TIP3    H247783   4.933   3.229   5.881  0.6862  1.2606 -0.8295
 8790TIP3   OH247784   4.755   3.296   6.794  0.2403 -0.4749 -0.0173
 8790TIP3    H147785   4.674   3.328   6.754 -1.2991 -1.9467  1.8063
 8790TIP3    H247786   4.794   3.239   6.728 -1.4013 -1.5463 -0.0857
 8791TIP3   OH247787   1.927   1.957  12.914  0.0007 -0.6350 -0.1471
 8791TIP3    H147788   1.987   1.911  12.855  0.3510 -0.6231  0.2015
 8791TIP3    H247789   1.975   1.967  12.996  0.1405  0.8466 -0.3930
 8792TIP3   OH247790   5.570   4.612  16.102 -0.0127 -0.6344  0.1522
 8792TIP3    H147791   5.641   4.570  16.150  0.1752 -1.0849 -0.5083
 8792TIP3    H247792   5.533   4.675  16.164  0.4410 -0.9669  0.7674
 8793TIP3   OH247793   6.235   4.055   6.015 -1.0172  0.7684 -0.0391
 8793TIP3    H147794   6.199   3.968   6.031 -0.2549  0.5065  0.3025
 8793TIP3    H247795   6.252   4.091   6.102  0.3140  0.5483 -0.1912
 8794TIP3   OH247796   0.099   5.147   0.599  0.0962  0.1225  0.1188
 8794TIP3    H147797   0.035   5.215   0.621 -1.2463 -1.0749 -0.0208
 8794TIP3    H247798   0.103   5.091   0.677  0.2856 -0.3446 -0.2244
 8795TIP3   OH247799   1.771   4.555   2.255  0.0374  0.6143 -0.0761
 8795TIP3    H147800   1.704   4.512   2.201 -0.2438  1.5610 -0.4965
 8795TIP3    H247801   1.802   4.486   2.314 -1.1781  0.1181  0.0050
 8796TIP3   OH247802   6.579   4.572   1.232  0.2252 -0.8396  0.2323
 8796TIP3    H147803   6.572   4.667   1.221 -1.6936 -0.9128  0.7349
 8796TIP3    H247804   6.659   4.549   1.185  1.4818  1.2057  1.3004
 8797TIP3   OH247805   2.346   5.399   2.324  0.1626  0.2429  0.3160
 8797TIP3    H147806   2.265   5.360   2.356 -0.6991 -0.1714 -2.2842
 8797TIP3    H247807   2.349   5.485   2.365 -0.8989 -0.2538  1.4848
 8798TIP3   OH247808   4.848   4.571  17.206  0.4309  0.6348 -1.0509
 8798TIP3    H147809   4.820   4.481  17.222 -0.5418  1.0054 -0.6480
 8798TIP3    H247810   4.821   4.619  17.284  1.7786  1.1076 -0.8479
 8799TIP3   OH247811   6.058   5.705   5.278 -0.4873 -0.4484  0.3752
 8799TIP3    H147812   6.042   5.743   5.192  0.2117 -1.4072 -0.1990
 8799TIP3    H247813   6.029   5.614   5.269  1.6586 -1.1740  0.4554
 8800TIP3   OH247814   2.357   6.285   1.620  0.4340 -0.4874  0.2153
 8800TIP3    H147815   2.273   6.249   1.592  0.5148 -0.7743  0.3384
 8800TIP3    H247816   2.354   6.377   1.593 -0.3277 -0.2383  1.1180
 8801TIP3   OH247817   4.699   0.556   4.670 -0.4334  0.1292  0.1071
 8801TIP3    H147818   4.730   0.595   4.588  1.4970  0.4813  0.9804
 8801TIP3    H247819   4.777   0.519   4.710 -1.3600 -0.0443  1.7942
 8802TIP3   OH247820   4.407   0.541   4.073  0.1707 -0.1871  0.3179
 8802TIP3    H147821   4.371   0.629   4.059 -2.1038 -1.1373  0.0268
 8802TIP3    H247822   4.438   0.514   3.986  0.6166  0.2041  0.3524
 8803TIP3   OH247823   6.643   1.299   2.106 -0.0801 -0.2717 -0.3107
 8803TIP3    H147824   6.564   1.273   2.060  1.2392 -2.1915 -1.5577
 8803TIP3    H247825   6.705   1.228   2.090  1.3584  0.3835  2.0410
 8804TIP3   OH247826   2.660   0.361   5.044  0.4168  0.4341  0.0969
 8804TIP3    H147827   2.623   0.376   5.131 -0.0546  0.7681 -0.1566
 8804TIP3    H247828   2.737   0.418   5.040  1.1987 -0.5490  0.7702
 8805TIP3   OH247829   6.251   3.552   1.174 -0.1003  0.2945  0.1796
 8805TIP3    H147830   6.336   3.595   1.180 -0.2503  0.3708  2.0110
 8805TIP3    H247831   6.272   3.458   1.175  0.2338  0.2304 -3.9311
 8806TIP3   OH247832   3.541   1.570   2.683  0.2593  0.5843 -0.4118
 8806TIP3    H147833   3.505   1.494   2.638  0.0246  0.7132 -0.4434
 8806TIP3    H247834   3.583   1.621   2.613 -0.9817  1.2940 -0.6576
 8807TIP3   OH247835   3.340   3.190  15.218  0.3711  0.0685  0.2491
 8807TIP3    H147836   3.368   3.134  15.290 -1.4699  0.2338  1.1196
 8807TIP3    H247837   3.274   3.139  15.171 -0.5424  1.0721  0.4170
 8808TIP3   OH247838   3.313   1.497  14.946 -0.3781  0.3750 -0.2675
 8808TIP3    H147839   3.384   1.450  14.902  0.6893  0.6382  1.1269
 8808TIP3    H247840   3.256   1.527  14.875  0.0654 -1.1864 -1.3019
 8809TIP3   OH247841   3.151   5.303   4.771  0.0333  0.7112 -0.1012
 8809TIP3    H147842   3.166   5.386   4.816  1.5483  1.0663 -1.2399
 8809TIP3    H247843   3.201   5.310   4.690  1.7672 -2.0546  0.6722
 8810TIP3   OH247844   4.717   3.165   3.068  0.5265  0.2227  0.3127
 8810TIP3    H147845   4.636   3.156   3.019  0.8955  0.3021 -0.3168
 8810TIP3    H247846   4.702   3.238   3.128  0.1230  0.2125  0.2206
 8811TIP3   OH247847   0.208   3.177  16.226  0.2853  0.9214  0.2239
 8811TIP3    H147848   0.146   3.116  16.265  0.3041  1.3403  0.9140
 8811TIP3    H247849   0.288   3.166  16.278  0.6775  0.6561 -0.4227
 8812TIP3   OH247850   0.201   0.318   4.110  0.0807  0.5267 -0.7263
 8812TIP3    H147851   0.159   0.282   4.031 -0.1561 -0.7799 -0.0234
 8812TIP3    H247852   0.164   0.406   4.119  0.2815  0.7694 -2.2009
 8813TIP3   OH247853   0.261   3.435   1.708 -0.1275  0.3153 -0.2161
 8813TIP3    H147854   0.342   3.483   1.690  0.0611 -0.3936 -1.3395
 8813TIP3    H247855   0.202   3.500   1.747 -0.2397  1.7422 -2.6796
 8814TIP3   OH247856   1.313   0.783   5.665 -0.4040 -0.5881  0.4649
 8814TIP3    H147857   1.228   0.827   5.662 -0.4876 -0.8309 -0.7725
 8814TIP3    H247858   1.356   0.809   5.584  1.2123  0.5538  1.6630
 8815TIP3   OH247859   6.010   4.711   6.515 -0.3977 -0.1603  0.5265
 8815TIP3    H147860   6.001   4.726   6.421  0.0194 -1.5170  0.2543
 8815TIP3    H247861   5.926   4.674   6.542 -0.3166 -0.3140  0.5716
 8816TIP3   OH247862   6.536   6.758  11.404  0.0959 -0.1344  0.4750
 8816TIP3    H147863   6.501   6.678  11.367 -0.3152 -0.3176  1.2579
 8816TIP3    H247864   6.467   6.791  11.462  0.0013  1.1288 -0.3405
 8817TIP3   OH247865   1.279   6.151  17.095  0.0329  0.4275 -0.2931
 8817TIP3    H147866   1.329   6.199  17.161 -1.3957  0.5870  0.7218
 8817TIP3    H247867   1.309   6.061  17.103  0.0673  0.4986  0.4067
 8818TIP3   OH247868   0.226   0.068   3.920  0.0842 -0.0507  0.7976
 8818TIP3    H147869   0.165   0.109   3.981  0.2350  1.7993 -0.2604
 8818TIP3    H247870   0.311   0.108   3.939  0.5801 -1.1324  0.8992
 8819TIP3   OH247871   5.121   1.242  11.643 -0.1585  0.4391  0.2188
 8819TIP3    H147872   5.091   1.240  11.734  2.2691  1.6983  1.0669
 8819TIP3    H247873   5.070   1.312  11.603 -2.2754 -1.0478  0.1783
 8820TIP3   OH247874   1.578   3.130  11.937 -0.0417 -0.6588 -0.2606
 8820TIP3    H147875   1.568   3.178  12.020  0.1509  0.8530 -1.0904
 8820TIP3    H247876   1.552   3.040  11.958  2.5456 -0.9100  2.0721
 8821TIP3   OH247877   2.363   3.505  15.671  0.0511  0.2302  0.0338
 8821TIP3    H147878   2.456   3.483  15.671 -0.1969 -0.8668 -0.1735
 8821TIP3    H247879   2.341   3.512  15.578 -0.0314  0.6701  0.0870
 8822TIP3   OH247880   3.174   1.473   2.538  0.1905  0.1996  0.3242
 8822TIP3    H147881   3.204   1.416   2.609  1.6023  1.8560  1.1092
 8822TIP3    H247882   3.213   1.435   2.459 -0.8026 -1.2476  0.5208
 8823TIP3   OH247883   3.270   6.608   2.548  0.0604 -0.1333  0.0788
 8823TIP3    H147884   3.295   6.698   2.568 -2.3569  0.8636 -1.1080
 8823TIP3    H247885   3.312   6.589   2.465 -2.5368  1.3507 -1.6582
 8824TIP3   OH247886   0.414   4.859  16.158 -0.6211  0.2613  0.0172
 8824TIP3    H147887   0.441   4.894  16.243 -0.5818  1.7536 -0.5916
 8824TIP3    H247888   0.470   4.784  16.144 -0.4719  0.1424  1.2128
 8825TIP3   OH247889   5.588   3.997  16.031  0.3650  0.1740  0.1574
 8825TIP3    H147890   5.551   4.085  16.023 -0.0352  0.1419  1.5807
 8825TIP3    H247891   5.567   3.955  15.948 -3.6074 -0.1404  1.2270
 8826TIP3   OH247892   1.324   5.169   3.001  0.3873  0.3751 -0.7477
 8826TIP3    H147893   1.319   5.186   3.095  0.5286 -1.8086 -0.3165
 8826TIP3    H247894   1.236   5.186   2.968  0.6237  2.3270 -0.4701
 8827TIP3   OH247895   3.160   3.560   5.436  0.4791 -0.2389  0.0484
 8827TIP3    H147896   3.096   3.489   5.432 -0.5084  0.5159  1.8755
 8827TIP3    H247897   3.233   3.523   5.486  1.0014 -0.7235 -1.0507
 8828TIP3   OH247898   1.303   3.908  11.928  0.3517  0.6431  0.0348
 8828TIP3    H147899   1.210   3.885  11.924  1.4052 -4.5544  2.2077
 8828TIP3    H247900   1.331   3.910  11.836 -1.1458 -1.2098 -0.4794
 8829TIP3   OH247901   6.730   4.597   3.978  0.0782  0.2498  0.3933
 8829TIP3    H147902   6.677   4.602   3.899 -1.1024 -2.0180  0.9904
 8829TIP3    H247903   6.720   4.682   4.019 -0.9640  0.7512 -0.8646
 8830TIP3   OH247904   6.361   0.524   2.903  0.1966 -0.2197  0.4561
 8830TIP3    H147905   6.348   0.436   2.868 -0.8581  0.6416 -1.3841
 8830TIP3    H247906   6.276   0.548   2.940  0.1659  0.4715 -0.0639
 8831TIP3   OH247907   4.468   4.657  13.633  0.1186 -0.0275  0.4462
 8831TIP3    H147908   4.377   4.656  13.602  0.3012 -1.4609 -0.0813
 8831TIP3    H247909   4.494   4.564  13.634  1.7730  0.4105  0.0002
 8832TIP3   OH247910   3.805   0.736   0.322 -0.3058 -0.6890 -0.9829
 8832TIP3    H147911   3.860   0.720   0.245 -0.7031 -1.1799 -1.1670
 8832TIP3    H247912   3.867   0.739   0.395  0.1461  0.4833 -1.4021
 8833TIP3   OH247913   4.331   4.366  16.982  0.1837  0.0575 -0.4279
 8833TIP3    H147914   4.403   4.382  16.921  2.0882 -0.5535  1.5658
 8833TIP3    H247915   4.307   4.275  16.968  2.9992 -1.1707  2.0328
 8834TIP3   OH247916   2.987   3.440   4.777 -0.6051 -0.3337  0.1691
 8834TIP3    H147917   3.057   3.393   4.822 -0.6222 -1.2869 -0.7867
 8834TIP3    H247918   2.944   3.491   4.846  1.2417  0.5462  0.7015
 8835TIP3   OH247919   1.442   0.621   3.155 -0.0075 -0.4389 -0.2777
 8835TIP3    H147920   1.410   0.584   3.237  0.5873 -0.2089  0.0579
 8835TIP3    H247921   1.483   0.704   3.180  1.3735 -0.9993 -0.6257
 8836TIP3   OH247922   1.144   0.032  11.525 -0.3761  0.2931 -0.1909
 8836TIP3    H147923   1.186   0.068  11.447 -1.1470  0.9934 -0.2986
 8836TIP3    H247924   1.186   0.077  11.598  0.4454 -0.4672 -0.1899
 8837TIP3   OH247925   1.700   3.732   2.045 -0.3633  0.3658  0.4019
 8837TIP3    H147926   1.626   3.678   2.016  0.7526 -1.6684  1.2736
 8837TIP3    H247927   1.665   3.821   2.045 -2.0383 -0.2362 -1.7395
 8838TIP3   OH247928   5.911   6.311   5.940 -0.0350  0.2086 -0.4656
 8838TIP3    H147929   5.853   6.269   6.004 -0.5646  0.4178 -0.8047
 8838TIP3    H247930   5.999   6.296   5.974 -0.3129  0.3321  0.3224
 8839TIP3   OH247931   1.007   3.804  13.611  0.0847  0.0140 -0.0643
 8839TIP3    H147932   0.934   3.744  13.594 -0.0611  0.0579  0.4052
 8839TIP3    H247933   1.083   3.759  13.574 -0.3908  0.6057 -1.8173
 8840TIP3   OH247934   5.368   0.394   1.441  0.1097 -1.0700 -0.0102
 8840TIP3    H147935   5.410   0.381   1.356  0.3501  0.6170 -0.1735
 8840TIP3    H247936   5.275   0.383   1.424  0.0960 -0.0625 -0.6554
 8841TIP3   OH247937   0.832   6.143  11.805 -0.0685  0.1804  0.1068
 8841TIP3    H147938   0.848   6.231  11.839  0.6476  0.3893 -0.7474
 8841TIP3    H247939   0.800   6.094  11.881 -0.1776  1.0922  0.6609
 8842TIP3   OH247940   5.600   4.598   5.610 -0.0130  0.2683  0.0093
 8842TIP3    H147941   5.614   4.560   5.697  1.0375 -1.7305 -1.0019
 8842TIP3    H247942   5.633   4.532   5.550 -1.4708  1.2964 -1.9593
 8843TIP3   OH247943   2.623   3.955  13.929  0.5080  0.0770  0.0529
 8843TIP3    H147944   2.561   3.885  13.908  0.7631 -0.6165  1.5309
 8843TIP3    H247945   2.709   3.917  13.911  0.5513  0.8862 -1.5638
 8844TIP3   OH247946   5.831   2.865   2.285 -0.4263 -0.6319  0.4810
 8844TIP3    H147947   5.745   2.856   2.242 -0.0401  1.2313 -0.7559
 8844TIP3    H247948   5.846   2.780   2.327 -1.8449 -1.7656 -1.2163
 8845TIP3   OH247949   3.245   0.281  12.930 -0.2290 -0.4461  0.8051
 8845TIP3    H147950   3.198   0.198  12.923  2.1384 -1.7145 -0.7626
 8845TIP3    H247951   3.270   0.302  12.840  3.0319 -0.3550  1.6527
 8846TIP3   OH247952   5.326   3.931   1.098 -0.1358  0.2407 -0.0757
 8846TIP3    H147953   5.281   4.009   1.128  1.4030  1.6900 -1.4216
 8846TIP3    H247954   5.259   3.880   1.052 -0.9445  1.1815  0.0464
 8847TIP3   OH247955   5.647   0.883  13.183 -0.2199 -0.0013  0.5018
 8847TIP3    H147956   5.621   0.803  13.137  1.3755  1.0673 -2.3815
 8847TIP3    H247957   5.703   0.852  13.254  2.0688 -1.3537 -1.8206
 8848TIP3   OH247958   3.003   2.688  16.061 -0.3911 -0.0871  0.2939
 8848TIP3    H147959   3.059   2.679  16.138  1.6693 -0.2579 -1.1670
 8848TIP3    H247960   2.995   2.782  16.047 -0.2979 -0.0625  0.4082
 8849TIP3   OH247961   3.997   0.168  13.834  0.1821 -0.0808  0.4579
 8849TIP3    H147962   3.918   0.220  13.850 -0.4579 -0.6987 -0.6440
 8849TIP3    H247963   4.008   0.116  13.913  0.7970  1.6686  1.5545
 8850TIP3   OH247964   3.964   4.207   5.051  0.4072 -0.3003 -0.0599
 8850TIP3    H147965   3.946   4.171   5.138  1.0100 -0.2436  0.0896
 8850TIP3    H247966   3.989   4.132   4.998 -1.2969 -0.5351 -0.5514
 8851TIP3   OH247967   3.863   1.475   3.120 -0.2569  0.4024  0.1867
 8851TIP3    H147968   3.850   1.549   3.179  0.3520 -0.3236  1.2346
 8851TIP3    H247969   3.783   1.423   3.128 -0.5951  0.8225 -0.3901
 8852TIP3   OH247970   5.704   2.840   5.609  0.1330 -0.8495 -0.5058
 8852TIP3    H147971   5.662   2.862   5.525 -1.1147 -1.0106  0.0571
 8852TIP3    H247972   5.776   2.902   5.616 -1.4455  1.0357 -0.4094
 8853TIP3   OH247973   1.114   6.393  12.024 -0.2247 -0.6518  0.3722
 8853TIP3    H147974   1.148   6.335  11.956  2.4398  0.2554  0.8728
 8853TIP3    H247975   1.137   6.481  11.995 -0.3480 -0.1482  1.7559
 8854TIP3   OH247976   3.936   4.476   2.745  0.8514 -0.1018  0.1202
 8854TIP3    H147977   3.993   4.473   2.669  0.6873  1.7485 -0.0780
 8854TIP3    H247978   3.976   4.539   2.804 -1.4821  2.0319 -0.4716
 8855TIP3   OH247979   3.360   6.543   1.100  0.1677  0.8252  0.0081
 8855TIP3    H147980   3.444   6.587   1.088 -0.2271  1.0338 -2.1254
 8855TIP3    H247981   3.295   6.605   1.067 -0.7137  0.1536  0.4515
 8856TIP3   OH247982   6.077   3.287  12.447  0.3252  0.0114  0.2839
 8856TIP3    H147983   6.015   3.308  12.516 -0.1729  1.1802 -0.5004
 8856TIP3    H247984   6.155   3.256  12.493 -0.3723 -0.2236  1.3240
 8857TIP3   OH247985   3.604   0.749   5.195 -0.0999 -0.6220  0.4085
 8857TIP3    H147986   3.584   0.814   5.128  0.0794  0.2934  1.2461
 8857TIP3    H247987   3.699   0.755   5.208 -0.1666 -0.6333  0.9140
 8858TIP3   OH247988   4.482   2.512  11.358  0.1907 -0.2503 -0.0888
 8858TIP3    H147989   4.536   2.548  11.427  2.8703  0.2550 -2.3571
 8858TIP3    H247990   4.400   2.560  11.364  0.8997  0.7820  1.7857
 8859TIP3   OH247991   6.532   5.785  16.145 -0.2339  0.3079  0.0378
 8859TIP3    H147992   6.548   5.858  16.086  0.6675 -1.1663 -1.5824
 8859TIP3    H247993   6.438   5.769  16.139 -0.4623  1.4188  0.5307
 8860TIP3   OH247994   4.369   1.944   4.343  0.2974  0.1884  0.2375
 8860TIP3    H147995   4.413   2.013   4.392  1.0059  0.0570 -0.2019
 8860TIP3    H247996   4.412   1.863   4.370 -0.0418 -0.0049  0.2094
 8861TIP3   OH247997   3.178   4.849   3.709  0.1139 -0.3159 -0.5860
 8861TIP3    H147998   3.195   4.756   3.701  1.7957 -0.0343 -0.4292
 8861TIP3    H247999   3.121   4.857   3.785  0.2914 -1.1807 -0.3628
 8862TIP3   OH248000   4.095   4.133   0.724 -0.1894  0.4780  0.0561
 8862TIP3    H148001   4.108   4.069   0.654  1.0688  0.3358  0.3988
 8862TIP3    H248002   4.033   4.196   0.689 -0.9688 -0.5991 -0.5169
 8863TIP3   OH248003   4.722   6.049   5.622  0.1468  0.6874  0.3054
 8863TIP3    H148004   4.702   5.999   5.543 -0.2976 -0.4501  1.1110
 8863TIP3    H248005   4.693   6.138   5.602 -0.6565  0.2502 -0.5487
 8864TIP3   OH248006   3.441   3.653   2.727  0.1951  0.3935  0.0187
 8864TIP3    H148007   3.392   3.728   2.694 -0.3254  0.3380  0.6438
 8864TIP3    H248008   3.381   3.578   2.715  0.6917  0.0838 -0.5614
 8865TIP3   OH248009   5.031   1.050   3.213 -0.0653  0.2383  0.5011
 8865TIP3    H148010   5.009   1.070   3.123 -1.1707  0.9517  0.9242
 8865TIP3    H248011   5.095   1.117   3.238  1.3354 -0.8083 -0.1815
 8866TIP3   OH248012   1.469   5.207  15.432 -0.0175 -0.2370  0.5541
 8866TIP3    H148013   1.508   5.276  15.486 -0.1629  0.7675 -0.6185
 8866TIP3    H248014   1.534   5.190  15.364 -1.1805  0.7196 -0.8103
 8867TIP3   OH248015   0.515   1.961  13.809  0.2624 -0.2635 -0.0577
 8867TIP3    H148016   0.598   1.966  13.760 -0.5527 -2.3484 -1.6980
 8867TIP3    H248017   0.451   1.929  13.745 -1.6470  0.4971  1.4208
 8868TIP3   OH248018   6.647   3.489  15.137  0.4654 -0.2235  0.1075
 8868TIP3    H148019   6.598   3.571  15.140 -0.8673 -1.0047  0.2415
 8868TIP3    H248020   6.685   3.481  15.225 -1.0874 -0.7448  0.7472
 8869TIP3   OH248021   1.370   6.158  16.370 -0.3389 -0.2446  0.5035
 8869TIP3    H148022   1.387   6.251  16.383 -1.5197  0.0302  0.1515
 8869TIP3    H248023   1.373   6.146  16.275 -2.1692 -0.1497  0.4073
 8870TIP3   OH248024   6.268   5.031  16.341  0.1177 -0.0617  0.0781
 8870TIP3    H148025   6.191   4.977  16.325 -1.8788  2.9108 -0.5457
 8870TIP3    H248026   6.241   5.094  16.408  1.8053  1.4154 -0.5723
 8871TIP3   OH248027   3.914   5.324  16.507 -0.4300  0.4425 -0.1848
 8871TIP3    H148028   3.890   5.233  16.525  0.2334  0.6673  1.9369
 8871TIP3    H248029   3.967   5.319  16.427  1.6847 -1.3532  1.2817
 8872TIP3   OH248030   4.799   3.033  11.795 -0.4301  0.1617  0.8359
 8872TIP3    H148031   4.863   3.104  11.788 -0.9839  0.6614  0.8318
 8872TIP3    H248032   4.714   3.075  11.783 -0.7982 -0.4242  1.3222
 8873TIP3   OH248033   1.210   2.207  14.973  0.1556  0.0649  0.3540
 8873TIP3    H148034   1.188   2.200  15.066 -1.6499  0.8260  0.0049
 8873TIP3    H248035   1.244   2.120  14.950 -3.0669 -1.4051  0.8171
 8874TIP3   OH248036   4.720   6.007   3.408  0.1175  0.0334 -0.0181
 8874TIP3    H148037   4.773   5.997   3.329 -1.9275  1.3565 -1.6282
 8874TIP3    H248038   4.630   5.991   3.378 -0.7476  1.0623  1.9527
 8875TIP3   OH248039   0.636   2.508   3.544  0.4697  0.0728  0.2350
 8875TIP3    H148040   0.675   2.421   3.557  0.7397  0.4941  2.3471
 8875TIP3    H248041   0.686   2.565   3.602  0.0021  1.5717 -0.8242
 8876TIP3   OH248042   5.545   0.689   4.939  0.2452 -0.5757 -0.7341
 8876TIP3    H148043   5.613   0.665   4.877  2.1420 -0.5199  1.2469
 8876TIP3    H248044   5.556   0.628   5.012 -1.1552  0.0991  0.0727
 8877TIP3   OH248045   4.070   1.706  13.898  0.2572 -0.1084  0.5913
 8877TIP3    H148046   4.116   1.624  13.882  0.5058  0.4349 -1.6418
 8877TIP3    H248047   4.058   1.744  13.811 -0.7170  1.7548  1.5117
 8878TIP3   OH248048   3.291   3.533   0.207 -0.4713  0.6051 -0.1726
 8878TIP3    H148049   3.202   3.518   0.240  0.3650 -2.1213  0.9941
 8878TIP3    H248050   3.342   3.548   0.286  0.3635  0.7598 -0.7441
 8879TIP3   OH248051   2.481   0.517  12.938  0.2404  0.0502  0.2321
 8879TIP3    H148052   2.464   0.611  12.938 -0.6254 -0.0569  2.6378
 8879TIP3    H248053   2.396   0.477  12.956  0.6700 -1.1813 -0.3902
 8880TIP3   OH248054   4.049   2.162   3.395  0.2000 -0.0216  0.1507
 8880TIP3    H148055   4.048   2.256   3.376 -2.2701  0.2302  1.4091
 8880TIP3    H248056   4.140   2.144   3.419  0.6993  2.0475 -0.0609
 8881TIP3   OH248057   0.874   3.688  12.284 -0.1773  0.3268  0.0298
 8881TIP3    H148058   0.840   3.604  12.254  0.0221  0.5160 -0.7497
 8881TIP3    H248059   0.965   3.671  12.306 -0.5144  0.0253  1.2451
 8882TIP3   OH248060   2.308   1.570   3.583  0.5339 -0.0877  0.4361
 8882TIP3    H148061   2.272   1.484   3.602  1.0353 -0.4504 -0.2577
 8882TIP3    H248062   2.288   1.585   3.490  0.8233  0.3595  0.4407
 8883TIP3   OH248063   4.708   1.174   5.267  0.2716  0.2562 -0.3092
 8883TIP3    H148064   4.669   1.097   5.309 -0.5737  1.4103  1.0541
 8883TIP3    H248065   4.703   1.242   5.333  2.4599  1.0794 -0.9554
 8884TIP3   OH248066   2.748   3.114  10.964  0.1294  0.5460  0.2812
 8884TIP3    H148067   2.788   3.165  10.893 -2.6298  0.2060 -1.6223
 8884TIP3    H248068   2.670   3.164  10.988 -0.2434 -0.5752  1.4255
 8885TIP3   OH248069   6.067   6.629   5.344  0.1530 -0.1945  0.3888
 8885TIP3    H148070   6.156   6.599   5.362  0.6380 -0.5548 -2.4280
 8885TIP3    H248071   6.020   6.550   5.316 -1.4027 -0.2358  2.9740
 8886TIP3   OH248072   6.275   0.512   4.828 -0.2412 -0.2184  0.0140
 8886TIP3    H148073   6.237   0.596   4.803  2.9733  1.3096 -0.0025
 8886TIP3    H248074   6.258   0.454   4.754  1.1024  1.6143 -1.7621
 8887TIP3   OH248075   4.099   4.643   6.540  0.1923  0.0144 -0.2860
 8887TIP3    H148076   4.049   4.715   6.502  1.7599  0.9543 -0.5852
 8887TIP3    H248077   4.190   4.665   6.523  0.8286 -0.5177  2.3150
 8888TIP3   OH248078   3.985   1.729   0.745 -0.9480  0.3192 -0.3957
 8888TIP3    H148079   4.007   1.759   0.833  0.2286 -1.3099 -0.1145
 8888TIP3    H248080   3.930   1.651   0.759 -0.5611 -0.0851 -1.0864
 8889TIP3   OH248081   4.933   4.486  13.701 -0.0771  0.2198  0.1420
 8889TIP3    H148082   4.847   4.528  13.697  0.5372  1.6169  1.0476
 8889TIP3    H248083   4.944   4.465  13.794 -0.2918 -1.7854 -0.2799
 8890TIP3   OH248084   4.838   3.409  11.368  0.5021 -0.4366 -0.2424
 8890TIP3    H148085   4.883   3.399  11.285 -0.5037  0.3709 -0.9008
 8890TIP3    H248086   4.747   3.384  11.349 -0.2212  1.8584  0.0639
 8891TIP3   OH248087   1.003   4.131  16.495 -0.3229  0.0749 -1.1235
 8891TIP3    H148088   1.094   4.111  16.473  0.8647  1.6797  2.0617
 8891TIP3    H248089   0.969   4.050  16.533  0.6223  0.2434  0.1198
 8892TIP3   OH248090   5.300   5.324   6.080  0.2341 -0.3639  0.0293
 8892TIP3    H148091   5.362   5.299   6.011  0.4110 -1.3921  0.5423
 8892TIP3    H248092   5.214   5.301   6.044 -0.0300  2.5713 -1.3410
 8893TIP3   OH248093   2.100   3.298   3.670 -0.4891 -0.1200 -0.6267
 8893TIP3    H148094   2.114   3.393   3.666 -1.4008  0.0402 -0.0458
 8893TIP3    H248095   2.058   3.277   3.587 -0.9985  0.1037 -0.4253
 8894TIP3   OH248096   4.769   3.044   2.003 -0.3147  0.1546 -0.3229
 8894TIP3    H148097   4.744   3.128   1.965  1.1268 -0.6266 -3.0720
 8894TIP3    H248098   4.687   3.007   2.035 -1.0618  2.2693  0.3304
 8895TIP3   OH248099   2.382   0.363   1.099  0.3528 -0.1526  0.4822
 8895TIP3    H148100   2.381   0.376   1.194  0.4222  0.7331  0.3614
 8895TIP3    H248101   2.291   0.345   1.076 -0.0197  1.7603  0.4245
 8896TIP3   OH248102   5.873   5.977  13.171  0.2700  0.6469 -0.0610
 8896TIP3    H148103   5.808   6.039  13.205  1.5766  2.1750 -0.2911
 8896TIP3    H248104   5.936   5.967  13.242 -0.6440 -1.5347  0.5006
 8897TIP3   OH248105   2.296   1.251  11.871  0.3608 -0.2198 -0.0340
 8897TIP3    H148106   2.287   1.216  11.782 -1.8766  0.7136 -0.2201
 8897TIP3    H248107   2.279   1.176  11.928 -0.3253 -0.3626 -0.4163
 8898TIP3   OH248108   4.202   1.403  16.526  0.1346 -0.0692 -0.5331
 8898TIP3    H148109   4.172   1.415  16.616  0.5044  0.4205 -0.4723
 8898TIP3    H248110   4.122   1.401  16.474 -0.2278 -2.8555  0.0823
 8899TIP3   OH248111   2.591   4.031  11.929  0.1672  0.5170 -0.1971
 8899TIP3    H148112   2.654   3.966  11.898  0.2389 -0.1087  1.2026
 8899TIP3    H248113   2.596   4.025  12.025 -1.0748  1.3799 -0.0683
 8900TIP3   OH248114   3.697   0.473  16.449 -0.3530  0.4187 -0.1596
 8900TIP3    H148115   3.722   0.384  16.423 -0.1021  0.6157 -0.5954
 8900TIP3    H248116   3.779   0.523  16.447 -0.5617  0.7609 -0.3430
 8901TIP3   OH248117   3.685   1.456   4.470  0.1968 -0.0206  0.0504
 8901TIP3    H148118   3.646   1.480   4.386 -0.5614  0.4769  0.5406
 8901TIP3    H248119   3.692   1.360   4.466 -0.5992 -0.0705 -0.2466
 8902TIP3   OH248120   3.779   4.765   2.890 -0.6205 -0.4111  0.3531
 8902TIP3    H148121   3.825   4.706   2.950  0.0448 -0.4004 -0.1450
 8902TIP3    H248122   3.794   4.728   2.803 -0.3862  0.3572  0.0614
 8903TIP3   OH248123   4.021   0.731   0.508  0.1502  0.2625 -0.0373
 8903TIP3    H148124   4.070   0.673   0.567  1.0391 -0.6634 -1.6454
 8903TIP3    H248125   3.958   0.775   0.565  1.2151 -0.3486  1.6606
 8904TIP3   OH248126   2.317   4.601  11.328 -0.0148  0.6805 -0.1819
 8904TIP3    H148127   2.379   4.640  11.266  0.8537 -1.7186 -0.8683
 8904TIP3    H248128   2.315   4.508  11.305 -0.9458  0.0484  2.3278
 8905TIP3   OH248129   5.070   1.019  10.632 -0.4404 -0.0897  0.0040
 8905TIP3    H148130   5.030   1.067  10.704  0.4545 -0.6584  0.9020
 8905TIP3    H248131   5.014   0.942  10.621 -0.6977  0.1048 -0.0463
 8906TIP3   OH248132   5.293   1.268   4.461  0.2821  0.1475  0.2333
 8906TIP3    H148133   5.350   1.196   4.435 -0.5117 -0.9533  1.4482
 8906TIP3    H248134   5.246   1.291   4.382 -0.8911 -2.0218  0.2569
 8907TIP3   OH248135   1.217   5.381  11.519  0.3399  0.1001  0.1350
 8907TIP3    H148136   1.157   5.416  11.453 -1.8039 -2.0049  0.9153
 8907TIP3    H248137   1.304   5.386  11.478 -0.6789  0.8154 -1.9927
 8908TIP3   OH248138   4.360   6.196  13.835  0.5851 -0.7015 -0.5622
 8908TIP3    H148139   4.338   6.267  13.775 -2.5271 -1.4312 -0.3564
 8908TIP3    H248140   4.350   6.116  13.783 -1.0423 -1.2780  0.6030
 8909TIP3   OH248141   6.699   1.732  13.056  0.2601  0.7531 -0.1775
 8909TIP3    H148142   6.638   1.698  12.991  0.3910 -0.6238  0.3976
 8909TIP3    H248143   6.652   1.803  13.098 -1.9877 -1.9408  2.0473
 8910TIP3   OH248144   4.009   4.964   4.132 -0.3005 -0.3057  0.0623
 8910TIP3    H148145   4.091   4.990   4.089 -0.8177  1.4255  0.0651
 8910TIP3    H248146   3.989   4.878   4.096 -0.2026  0.6654 -2.4681
 8911TIP3   OH248147   2.702   4.125   6.855 -0.2904 -0.3388  0.1518
 8911TIP3    H148148   2.721   4.057   6.790 -0.4659 -1.8576  1.6663
 8911TIP3    H248149   2.705   4.207   6.805  3.4347 -1.1064 -1.0283
 8912TIP3   OH248150   3.893   4.060  16.272  0.6030  0.8758 -0.6417
 8912TIP3    H148151   3.826   4.112  16.229  0.1228  0.6519 -0.1578
 8912TIP3    H248152   3.849   4.019  16.346  1.0003 -0.1319 -0.9449
 8913TIP3   OH248153   6.284   6.292  14.817 -0.7241 -0.1677 -0.6661
 8913TIP3    H148154   6.345   6.325  14.751 -1.4658 -0.6314 -1.6086
 8913TIP3    H248155   6.264   6.203  14.788 -0.8835 -0.4568  0.3192
 8914TIP3   OH248156   0.165   4.937  11.669  0.2462  0.4478 -0.0730
 8914TIP3    H148157   0.226   5.008  11.689 -0.0687 -0.0674  3.0277
 8914TIP3    H248158   0.079   4.976  11.684  0.0461 -0.3065  0.8117
 8915TIP3   OH248159   5.236   4.449   1.216  0.0340  0.4021  0.4799
 8915TIP3    H148160   5.203   4.539   1.213  2.1587  1.1503 -1.8299
 8915TIP3    H248161   5.326   4.455   1.185 -0.1374 -2.6877 -0.7897
 8916TIP3   OH248162   3.997   4.621   2.981 -0.1596 -0.3571  0.9308
 8916TIP3    H148163   4.054   4.698   2.985  0.5448 -0.7515 -1.0344
 8916TIP3    H248164   4.014   4.574   3.063 -0.4253  1.4341  2.0334
 8917TIP3   OH248165   4.962   5.154  13.158  0.5858 -0.2162  0.1341
 8917TIP3    H148166   4.880   5.187  13.121  1.1852  0.2895 -0.7367
 8917TIP3    H248167   4.966   5.194  13.245  0.1362  0.1233 -0.0014
 8918TIP3   OH248168   1.760   5.162  16.937  0.5554  0.7721 -0.1286
 8918TIP3    H148169   1.754   5.070  16.913 -0.4012  1.0887 -1.1203
 8918TIP3    H248170   1.809   5.202  16.865  1.5523  0.9380  0.6163
 8919TIP3   OH248171   5.829   1.762  16.891  0.3906 -0.3580  0.0100
 8919TIP3    H148172   5.812   1.759  16.796 -2.7707  1.3708  0.4452
 8919TIP3    H248173   5.896   1.829  16.901  0.7806 -0.5845 -0.9966
 8920TIP3   OH248174   6.702   3.436  17.114  0.2817 -0.0834  0.1146
 8920TIP3    H148175   6.680   3.373  17.046 -0.2735  0.1237  0.0924
 8920TIP3    H248176   6.667   3.519  17.082 -0.6506 -0.1230  0.9830
 8921TIP3   OH248177   6.721   2.293  11.738 -0.6321  0.0939 -0.0519
 8921TIP3    H148178   6.667   2.370  11.720 -0.2946  0.3441 -0.0053
 8921TIP3    H248179   6.724   2.246  11.655 -0.0763  0.6177 -0.3396
 8922TIP3   OH248180   0.068   4.594   3.540 -0.0572 -0.3890  0.1300
 8922TIP3    H148181   0.055   4.534   3.614 -0.4675 -0.1280  0.2709
 8922TIP3    H248182   0.011   4.559   3.471  0.5406 -0.7965 -0.1619
 8923TIP3   OH248183   2.807   6.428  11.178 -0.4324  0.4228  0.0047
 8923TIP3    H148184   2.821   6.405  11.086  1.8639 -0.8792  0.6548
 8923TIP3    H248185   2.829   6.348  11.227  1.3591  2.0068  1.8841
 8924TIP3   OH248186   4.560   1.121   4.351  0.5566 -0.6531 -0.5241
 8924TIP3    H148187   4.622   1.096   4.420  0.2932  0.2033  0.0200
 8924TIP3    H248188   4.477   1.133   4.396 -0.2001 -2.5759 -1.3773
 8925TIP3   OH248189   0.525   0.552   5.596  0.1940 -0.2276 -0.0467
 8925TIP3    H148190   0.508   0.493   5.669  0.4236  1.8398  1.7343
 8925TIP3    H248191   0.610   0.525   5.561  0.4541 -0.7200  0.9686
 8926TIP3   OH248192   6.190   0.982   1.085  0.5363  0.2928 -0.0412
 8926TIP3    H148193   6.104   0.977   1.043  0.5679 -0.4234 -0.0390
 8926TIP3    H248194   6.189   1.065   1.132 -0.8298 -0.5245  1.4109
 8927TIP3   OH248195   5.420   3.390   5.116  0.4427 -0.0883  0.3031
 8927TIP3    H148196   5.326   3.404   5.107  0.3198 -1.5679 -1.0061
 8927TIP3    H248197   5.427   3.310   5.168  0.9033 -1.6324 -2.0564
 8928TIP3   OH248198   4.035   1.975   1.783  0.4817  0.1451  0.6049
 8928TIP3    H148199   3.995   1.962   1.697  0.3994 -0.3427  0.7143
 8928TIP3    H248200   4.000   2.059   1.813  1.5492  0.9806 -0.4039
 8929TIP3   OH248201   5.274   5.450   5.023  0.2113 -0.2028 -0.5124
 8929TIP3    H148202   5.261   5.431   5.116  1.6624  2.6040  0.3071
 8929TIP3    H248203   5.356   5.498   5.019  0.4364 -0.7302 -3.3375
 8930TIP3   OH248204   2.544   5.060  10.842  0.4096 -0.5518 -0.5082
 8930TIP3    H148205   2.598   5.029  10.770  1.5559 -0.0215  0.1036
 8930TIP3    H248206   2.463   5.090  10.801  1.7905  1.5279 -1.8257
 8931TIP3   OH248207   5.387   4.589  11.696  0.0074  0.4352 -0.0733
 8931TIP3    H148208   5.356   4.626  11.613 -1.2062 -0.8994 -0.2456
 8931TIP3    H248209   5.346   4.643  11.763 -0.9071  0.0684 -0.3299
 8932TIP3   OH248210   3.636   3.720  12.653  0.0571 -0.0866  0.3119
 8932TIP3    H148211   3.580   3.788  12.616 -0.1609 -1.9422 -3.0025
 8932TIP3    H248212   3.577   3.666  12.705 -0.5466 -0.0133 -0.2899
 8933TIP3   OH248213   6.124   3.903   2.263  0.1103  0.2185 -0.1565
 8933TIP3    H148214   6.106   3.852   2.342 -0.1339  1.1842  0.4271
 8933TIP3    H248215   6.047   3.892   2.208 -0.6517  1.2741  0.6849
 8934TIP3   OH248216   1.465   5.812   3.120 -0.7509 -0.2730 -0.3516
 8934TIP3    H148217   1.460   5.897   3.164 -0.2328 -0.8033  0.7412
 8934TIP3    H248218   1.519   5.758   3.177 -3.9827 -2.4447  0.7839
 8935TIP3   OH248219   3.909   5.684  13.725 -0.0478  0.0732  0.0208
 8935TIP3    H148220   3.829   5.652  13.768  0.9821  1.3045  2.9226
 8935TIP3    H248221   3.886   5.772  13.695  0.7950  1.1813  2.5721
 8936TIP3   OH248222   0.602   5.083  15.937 -0.2622  0.0653 -0.6505
 8936TIP3    H148223   0.609   5.168  15.894 -0.3370 -0.0463 -0.8831
 8936TIP3    H248224   0.549   5.100  16.015 -1.4739 -0.0339 -1.4332
 8937TIP3   OH248225   4.138   0.329  16.858  0.1015 -0.2307 -0.2604
 8937TIP3    H148226   4.068   0.335  16.793 -0.7441  0.8584  0.7557
 8937TIP3    H248227   4.215   0.363  16.813 -0.5926  0.9811 -0.5397
 8938TIP3   OH248228   0.181   4.483  17.114  0.1092  0.3955  0.6500
 8938TIP3    H148229   0.120   4.436  17.058  1.2275  0.5821 -0.7326
 8938TIP3    H248230   0.230   4.414  17.159 -1.9206  0.2289  2.7005
 8939TIP3   OH248231   3.924   5.241  12.194 -0.1645  0.5661 -0.2181
 8939TIP3    H148232   3.858   5.283  12.139 -0.5977  1.4143  0.9148
 8939TIP3    H248233   3.961   5.312  12.247 -0.6681 -0.3886  1.4857
 8940TIP3   OH248234   4.064   2.099  12.289 -0.0858  0.2657 -0.0332
 8940TIP3    H148235   4.130   2.118  12.356 -0.4806  0.9458  0.1687
 8940TIP3    H248236   3.983   2.137  12.325 -0.7591 -1.2911  0.1056
 8941TIP3   OH248237   6.619   0.540   1.480 -0.1327  0.3082  0.4680
 8941TIP3    H148238   6.685   0.494   1.534  0.4090  0.5543  0.0172
 8941TIP3    H248239   6.641   0.632   1.489 -1.5602  0.5313  1.8127
 8942TIP3   OH248240   0.978   0.559  13.795 -0.0039  0.2803  0.2659
 8942TIP3    H148241   1.067   0.533  13.816  0.6418  0.8768 -1.5925
 8942TIP3    H248242   0.928   0.477  13.794  0.6887 -0.1479  0.5120
 8943TIP3   OH248243   3.908   5.304  12.969  0.0871 -0.5201 -0.2621
 8943TIP3    H148244   3.824   5.258  12.962  0.9644 -2.1601 -0.0709
 8943TIP3    H248245   3.973   5.242  12.937  1.4881  0.0307  1.4493
 8944TIP3   OH248246   1.682   4.889  16.977  0.2208  0.3115  0.1231
 8944TIP3    H148247   1.593   4.856  16.989 -0.0769  1.4997  1.2145
 8944TIP3    H248248   1.738   4.823  17.019 -0.0535 -0.9764 -1.5053
 8945TIP3   OH248249   3.176   5.478   5.653 -0.2885 -0.5350 -0.4910
 8945TIP3    H148250   3.195   5.464   5.746 -1.1124  1.1494 -0.0604
 8945TIP3    H248251   3.251   5.528   5.620  0.7254 -2.3802 -1.1162
 8946TIP3   OH248252   2.509   3.321   2.982  0.1084  0.6200 -0.0362
 8946TIP3    H148253   2.469   3.235   2.966  1.7889  0.1421 -1.8591
 8946TIP3    H248254   2.533   3.320   3.075  0.8139 -1.1985 -0.2251
 8947TIP3   OH248255   0.984   4.473   4.564 -0.1462  0.2564 -0.5997
 8947TIP3    H148256   1.056   4.529   4.593 -0.2222  0.2518 -0.4039
 8947TIP3    H248257   0.929   4.531   4.511 -1.3937  0.9444  1.3998
 8948TIP3   OH248258   1.929   3.983  16.264 -0.8087 -0.2313  0.6544
 8948TIP3    H148259   1.869   3.912  16.287 -1.3882 -0.1915 -0.7167
 8948TIP3    H248260   1.931   3.983  16.169  1.0166  0.0667  0.6708
 8949TIP3   OH248261   6.495   2.730   5.548  0.1051  0.7560 -0.7416
 8949TIP3    H148262   6.529   2.817   5.529  0.9675  0.4864 -0.4647
 8949TIP3    H248263   6.401   2.743   5.561  0.1372  1.5520 -1.2551
 8950TIP3   OH248264   0.755   4.319  11.143  0.1257 -0.2830 -0.3406
 8950TIP3    H148265   0.764   4.273  11.226  2.5671 -2.6811 -1.8481
 8950TIP3    H248266   0.830   4.379  11.140  0.1481 -0.3330 -0.8795
 8951TIP3   OH248267   2.150   0.670   0.104 -0.5094  0.1348 -0.1572
 8951TIP3    H148268   2.152   0.764   0.092  0.1406  0.4521  2.1933
 8951TIP3    H248269   2.242   0.644   0.110 -0.6305 -0.8503 -2.0481
 8952TIP3   OH248270   2.840   5.219  11.214 -0.2250 -0.3356  0.3549
 8952TIP3    H148271   2.890   5.178  11.142  0.0183 -0.9884  0.8860
 8952TIP3    H248272   2.750   5.187  11.201 -0.1527 -0.5714  0.4244
 8953TIP3   OH248273   5.859   4.263  12.889  0.0415 -0.3987  0.1616
 8953TIP3    H148274   5.768   4.289  12.874  0.1153 -0.2526 -0.0415
 8953TIP3    H248275   5.902   4.344  12.917  0.2365 -0.3396 -0.3084
 8954TIP3   OH248276   3.056   6.019  12.127  0.2153 -0.1040  0.0913
 8954TIP3    H148277   3.066   6.110  12.156 -1.3255 -0.0851  0.6129
 8954TIP3    H248278   3.122   5.971  12.177 -0.1264  0.4752  1.1260
 8955TIP3   OH248279   3.141   5.010   4.506 -0.0962  0.1036 -0.3620
 8955TIP3    H148280   3.060   4.986   4.551  0.6342  2.1208  2.1843
 8955TIP3    H248281   3.116   5.082   4.447  0.2088  2.4292  2.2378
 8956TIP3   OH248282   3.062   2.912   4.760 -0.0525  0.1905  0.4670
 8956TIP3    H148283   2.978   2.934   4.799 -0.9091 -1.2189 -0.5231
 8956TIP3    H248284   3.067   2.817   4.764  1.1195  0.2043 -0.2534
 8957TIP3   OH248285   1.911   0.160  12.824  0.0308  0.1987 -0.0032
 8957TIP3    H148286   1.963   0.119  12.893 -1.9739 -1.7226  0.4078
 8957TIP3    H248287   1.934   0.253  12.829  1.7252 -0.2867  1.6356
 8958TIP3   OH248288   3.537   4.531  15.923 -0.4557 -0.1016  1.1474
 8958TIP3    H148289   3.497   4.532  15.836  0.8431 -0.8159  0.5269
 8958TIP3    H248290   3.545   4.623  15.947  0.5468  0.1617 -0.1390
 8959TIP3   OH248291   0.502   5.091  16.932 -0.1192 -0.4387 -0.9100
 8959TIP3    H148292   0.582   5.047  16.962 -0.0610 -0.7268 -1.4737
 8959TIP3    H248293   0.493   5.167  16.990  1.0654  0.0990 -1.4283
 8960TIP3   OH248294   4.227   0.991  13.494 -0.1371  0.3076  0.1951
 8960TIP3    H148295   4.230   0.954  13.406  1.5056 -0.7379  0.6724
 8960TIP3    H248296   4.285   0.936  13.546  0.0886  1.8109  1.5937
 8961TIP3   OH248297   3.119   5.901   1.642  0.0322  0.1903  0.3451
 8961TIP3    H148298   3.055   5.830   1.641  0.8076 -0.5541  1.8515
 8961TIP3    H248299   3.072   5.976   1.677 -0.1638 -0.2063  0.9288
 8962TIP3   OH248300   2.857   5.254   5.882 -0.2600 -0.0670 -0.6182
 8962TIP3    H148301   2.807   5.324   5.923 -0.0949  0.5678 -1.4753
 8962TIP3    H248302   2.899   5.207   5.955  0.0350  1.0431 -0.0690
 8963TIP3   OH248303   1.740   3.852  15.642 -0.3229  0.2055 -0.2222
 8963TIP3    H148304   1.764   3.812  15.725 -1.3459  1.3489  0.6346
 8963TIP3    H248305   1.749   3.946  15.656 -0.2946  0.4066 -1.4789
 8964TIP3   OH248306   1.156   3.482   5.453  0.2767 -0.2058  0.0589
 8964TIP3    H148307   1.154   3.563   5.402  2.5376  0.0086  0.2493
 8964TIP3    H248308   1.145   3.413   5.388 -1.1249  0.2187 -0.1688
 8965TIP3   OH248309   3.237   2.784  13.522 -0.0414 -0.4234  0.6765
 8965TIP3    H148310   3.310   2.843  13.504  0.6995 -0.8892  2.1068
 8965TIP3    H248311   3.194   2.822  13.598 -0.6855 -0.7152  0.4629
 8966TIP3   OH248312   1.854   4.815   2.272  0.1960 -0.0581  0.1948
 8966TIP3    H148313   1.948   4.801   2.278 -0.0258 -2.2177 -1.1106
 8966TIP3    H248314   1.818   4.730   2.248 -2.3031  0.2181  2.6558
 8967TIP3   OH248315   6.066   6.740   4.410  0.5472 -0.1753 -0.4059
 8967TIP3    H148316   6.161   6.744   4.419  0.3819  1.1200  1.0693
 8967TIP3    H248317   6.048   6.648   4.391  2.2494 -0.0102 -2.9919
 8968TIP3   OH248318   5.381   5.540   0.758  0.0471  0.6454  0.2914
 8968TIP3    H148319   5.374   5.579   0.845 -1.6380  1.9633 -0.4054
 8968TIP3    H248320   5.369   5.446   0.773 -0.0764  0.8448  1.5014
 8969TIP3   OH248321   5.560   0.305  14.237  0.1345 -0.1716  0.7793
 8969TIP3    H148322   5.470   0.335  14.229 -0.0294 -0.5923  1.0335
 8969TIP3    H248323   5.606   0.378  14.279  1.1995  2.4623 -4.5788
 8970TIP3   OH248324   5.266   3.986   6.061 -0.3503  0.9511  0.6348
 8970TIP3    H148325   5.271   3.961   6.153 -0.3903 -0.4771  0.2522
 8970TIP3    H248326   5.215   3.916   6.020 -1.3696  2.1842 -0.2564
 8971TIP3   OH248327   4.827   5.147   3.609 -0.0186 -0.3471  0.4465
 8971TIP3    H148328   4.806   5.169   3.518 -1.6600 -0.4223  0.7879
 8971TIP3    H248329   4.878   5.066   3.603  1.5532  0.6958 -0.5041
 8972TIP3   OH248330   1.339   0.111  11.195  0.4390 -0.1805  0.4659
 8972TIP3    H148331   1.249   0.079  11.205  0.2898 -0.6174 -1.9314
 8972TIP3    H248332   1.337   0.167  11.117  2.4767 -1.1384 -0.3264
 8973TIP3   OH248333   2.650   1.783  11.300  0.6087  0.0024 -0.3520
 8973TIP3    H148334   2.613   1.722  11.364  1.1812 -0.4897 -0.4894
 8973TIP3    H248335   2.716   1.732  11.253  2.6653  1.3175  1.0006
 8974TIP3   OH248336   0.868   2.539   2.588  0.1343  0.1092 -0.5120
 8974TIP3    H148337   0.843   2.591   2.513 -0.0076  1.4675  0.4647
 8974TIP3    H248338   0.830   2.584   2.663  0.7249 -0.9232  0.4353
 8975TIP3   OH248339   0.406   5.769  14.494  0.1082 -0.1178 -0.6139
 8975TIP3    H148340   0.361   5.811  14.567  1.6409 -1.9116  1.4234
 8975TIP3    H248341   0.440   5.841  14.441 -0.2361  1.2041  0.9487
 8976TIP3   OH248342   4.830   5.482   3.481 -0.4900 -0.5809 -0.4510
 8976TIP3    H148343   4.843   5.429   3.560  0.1042  2.2787  1.4615
 8976TIP3    H248344   4.742   5.459   3.451 -1.2221 -0.8410  1.7933
 8977TIP3   OH248345   2.690   1.447   3.697  0.0544 -0.2067  0.4079
 8977TIP3    H148346   2.680   1.486   3.611  0.0202  0.0155  0.5125
 8977TIP3    H248347   2.619   1.484   3.749 -0.5270 -1.0948  0.2604
 8978TIP3   OH248348   6.704   4.642  17.114 -0.0180  0.2178  0.5870
 8978TIP3    H148349   6.630   4.584  17.134 -0.5783  0.0093 -1.9724
 8978TIP3    H248350   6.781   4.591  17.138 -0.5245 -1.4673 -1.3281
 8979TIP3   OH248351   1.412   1.687  14.216  0.6766  0.0545  0.2216
 8979TIP3    H148352   1.500   1.667  14.186  0.8489  0.6511  0.3237
 8979TIP3    H248353   1.413   1.782  14.232  0.4783 -0.1877  1.7421
 8980TIP3   OH248354   3.715   0.246  12.853  0.0530  0.2574  0.0288
 8980TIP3    H148355   3.758   0.164  12.830 -1.6974 -0.9625  0.9845
 8980TIP3    H248356   3.635   0.220  12.897 -0.1792  2.5020  1.0214
 8981TIP3   OH248357   4.231   0.223  17.210  0.2688 -0.1981 -0.3313
 8981TIP3    H148358   4.252   0.289  17.276  0.1942 -1.4645  0.9900
 8981TIP3    H248359   4.277   0.144  17.240  0.3678 -0.7405 -1.8895
 8982TIP3   OH248360   1.526   4.925  15.499 -0.2603  0.2268 -0.4022
 8982TIP3    H148361   1.490   4.926  15.410  1.1102  0.6255 -0.9565
 8982TIP3    H248362   1.507   5.013  15.532  1.5207  0.9443 -1.2392
 8983TIP3   OH248363   5.145   5.206  10.223 -0.5137 -0.1595 -0.1365
 8983TIP3    H148364   5.152   5.287  10.172 -1.1970  0.1347  0.2215
 8983TIP3    H248365   5.129   5.235  10.313 -2.0266 -0.6838 -0.2089
 8984TIP3   OH248366   2.366   3.197   3.714 -0.5919 -0.1591 -0.7039
 8984TIP3    H148367   2.281   3.240   3.704 -0.1389  0.3399 -2.7731
 8984TIP3    H248368   2.430   3.264   3.687  0.5419 -0.2497  1.6014
 8985TIP3   OH248369   1.052   0.086  14.697  0.3528  0.5296  0.4102
 8985TIP3    H148370   1.050   0.098  14.602  0.4107  2.8374  0.6697
 8985TIP3    H248371   0.968   0.046  14.718  1.2448 -2.1247 -0.8369
 8986TIP3   OH248372   4.264   1.131   5.850 -0.1913  0.1673 -0.2467
 8986TIP3    H148373   4.260   1.225   5.869 -0.1852  0.3272 -1.0210
 8986TIP3    H248374   4.347   1.102   5.889  0.4206  0.7368 -1.1016
 8987TIP3   OH248375   4.059   2.837  10.611  0.2266  0.8558 -0.2054
 8987TIP3    H148376   4.011   2.918  10.592  1.3310  1.5881  0.0182
 8987TIP3    H248377   4.133   2.866  10.665 -0.0071 -0.4660  0.8554
 8988TIP3   OH248378   4.282   5.742  14.886  0.4804  0.9205 -0.2552
 8988TIP3    H148379   4.242   5.809  14.943 -0.2277  0.1488  0.1710
 8988TIP3    H248380   4.220   5.669  14.888  1.6661 -0.1003 -0.0048
 8989TIP3   OH248381   2.041   0.698   6.111  0.1870 -0.0348 -0.4745
 8989TIP3    H148382   2.095   0.694   6.033 -1.3679  0.0860 -1.5762
 8989TIP3    H248383   1.959   0.739   6.082 -0.4620 -0.1121  1.1733
 8990TIP3   OH248384   3.200   0.020  16.144  0.2520 -0.7680 -0.0086
 8990TIP3    H148385   3.115   0.009  16.186  0.9035  0.8915  1.7930
 8990TIP3    H248386   3.238  -0.068  16.143 -0.9346 -1.2946  0.3446
 8991TIP3   OH248387   1.604   3.589  10.718  0.1026 -0.1758  0.3828
 8991TIP3    H148388   1.615   3.661  10.655 -0.6039  1.0799  1.6543
 8991TIP3    H248389   1.522   3.547  10.692  0.7179 -0.7761 -0.6042
 8992TIP3   OH248390   5.730   1.950   6.459  0.9605  0.2571  0.2214
 8992TIP3    H148391   5.731   1.893   6.536 -0.3888 -2.2667 -1.5656
 8992TIP3    H248392   5.819   1.944   6.424  1.0625 -0.0625  0.5234
 8993TIP3   OH248393   6.340   5.679   0.045  1.0491 -0.1843 -0.6049
 8993TIP3    H148394   6.318   5.591   0.012  1.6338 -0.7780  0.5413
 8993TIP3    H248395   6.432   5.690   0.023  0.6234  0.7195 -1.9732
 8994TIP3   OH248396   5.107   1.958   3.999  0.7860 -0.7369 -0.2519
 8994TIP3    H148397   5.175   2.022   4.020  2.6088 -2.4633 -0.6554
 8994TIP3    H248398   5.117   1.890   4.065 -0.2643 -1.2251 -0.5837
 8995TIP3   OH248399   2.538   1.825   3.387 -0.0439  0.3480 -0.2240
 8995TIP3    H148400   2.548   1.780   3.471 -0.9011 -0.5152 -0.5682
 8995TIP3    H248401   2.628   1.840   3.357  0.2886 -2.1412 -0.6077
 8996TIP3   OH248402   1.466   0.810  12.003 -0.3566  0.3676  0.2064
 8996TIP3    H148403   1.399   0.830  12.069 -1.7670  0.4620 -1.2032
 8996TIP3    H248404   1.548   0.809  12.051 -1.1542  2.0913  1.6733
 8997TIP3   OH248405   1.589   6.337  12.353  0.6374 -0.1818 -0.1858
 8997TIP3    H148406   1.613   6.402  12.419  0.8790 -1.0050  0.5436
 8997TIP3    H248407   1.512   6.374  12.310  1.5359  1.2007 -0.6813
 8998TIP3   OH248408   4.545   3.377   6.648 -0.4775  0.3468 -0.5447
 8998TIP3    H148409   4.465   3.418   6.613  0.4848  0.3630 -2.8626
 8998TIP3    H248410   4.598   3.450   6.678 -0.8757  0.4272 -0.0464
 8999TIP3   OH248411   4.205   5.845  11.898  0.2261 -0.1747  0.0245
 8999TIP3    H148412   4.201   5.844  11.802  0.8097  0.8614 -0.0281
 8999TIP3    H248413   4.225   5.937  11.919  1.6087 -0.6897  1.0535
 9000TIP3   OH248414   4.033   3.492  16.740  0.1566  0.1042  0.1618
 9000TIP3    H148415   4.119   3.475  16.703  0.2604  0.0685  0.4144
 9000TIP3    H248416   4.048   3.494  16.835 -0.0156  0.6841  0.1809
 9001TIP3   OH248417   2.739   2.801  15.720  0.6433 -0.7751 -0.4257
 9001TIP3    H148418   2.712   2.711  15.742  1.0500 -0.4827  1.3422
 9001TIP3    H248419   2.824   2.790  15.677  0.1257 -1.3143 -1.3344
 9002TIP3   OH248420   4.974   6.283   4.259 -0.3820  0.1267  0.3098
 9002TIP3    H148421   5.007   6.319   4.342 -0.6612  0.5264  0.2490
 9002TIP3    H248422   4.910   6.347   4.229  0.0766  0.2254 -0.4740
 9003TIP3   OH248423   5.143   0.943  13.315  0.2055  0.4819  0.1751
 9003TIP3    H148424   5.088   0.981  13.246  0.0735  1.2363  0.6889
 9003TIP3    H248425   5.115   0.852  13.321  0.5600  0.2876 -1.1075
 9004TIP3   OH248426   6.083   1.546  15.587 -0.2562  0.2941  0.1163
 9004TIP3    H148427   6.089   1.607  15.513 -0.1481  1.4044  1.0259
 9004TIP3    H248428   6.174   1.520  15.603 -0.3274 -0.3093 -0.4296
 9005TIP3   OH248429   3.978   0.931  12.802 -0.7314  0.5861 -0.7002
 9005TIP3    H148430   3.990   0.910  12.709  0.9644  1.3042 -0.6654
 9005TIP3    H248431   4.009   0.854  12.849 -1.1242  0.4154 -0.7212
 9006TIP3   OH248432   4.709   6.445   0.134  0.5351  0.4470 -0.3479
 9006TIP3    H148433   4.740   6.415   0.049  0.9235 -0.0970 -0.0237
 9006TIP3    H248434   4.752   6.386   0.197 -0.2194  0.4531  0.1852
 9007TIP3   OH248435   5.688   1.703  15.445 -0.1975 -0.0209  0.1002
 9007TIP3    H148436   5.699   1.640  15.374  0.6808 -0.4686  0.6224
 9007TIP3    H248437   5.657   1.783  15.402  1.7034  0.1626 -0.9866
 9008TIP3   OH248438   1.189   1.159  17.006  0.0646 -0.1044 -0.2461
 9008TIP3    H148439   1.122   1.141  17.072 -0.9818 -0.8810 -1.4885
 9008TIP3    H248440   1.140   1.164  16.924  1.3191  1.0622 -0.9399
 9009TIP3   OH248441   5.029   6.443  13.463 -0.2918 -0.3138  0.4260
 9009TIP3    H148442   4.972   6.494  13.405 -0.6302 -1.3709 -0.1933
 9009TIP3    H248443   5.114   6.442  13.419 -0.1663  0.0652  0.6521
 9010TIP3   OH248444   6.499   4.612   6.086 -0.9386  0.2115 -0.0293
 9010TIP3    H148445   6.566   4.580   6.147 -3.1411  0.8324  2.8040
 9010TIP3    H248446   6.544   4.678   6.034  0.9528 -0.1966  1.0352
 9011TIP3   OH248447   3.022   4.387   2.976 -0.2643 -0.0482  0.1579
 9011TIP3    H148448   2.944   4.357   2.929  0.3444 -0.9283 -0.2994
 9011TIP3    H248449   3.081   4.312   2.975  0.4909  0.5305  0.7314
 9012TIP3   OH248450   1.412   4.907  14.209 -0.5306  0.0792 -0.7838
 9012TIP3    H148451   1.426   4.994  14.172 -0.1227  0.4475  0.2273
 9012TIP3    H248452   1.459   4.908  14.293  1.2083 -1.7808 -1.6826
 9013TIP3   OH248453   2.724   6.328  12.498 -0.0324  0.5214 -0.2423
 9013TIP3    H148454   2.721   6.276  12.578 -0.7974  0.3660 -0.3726
 9013TIP3    H248455   2.815   6.321  12.468 -0.1776 -0.9177 -0.3819
 9014TIP3   OH248456   4.157   6.642  15.261  0.6134  0.0027  0.5141
 9014TIP3    H148457   4.187   6.732  15.267 -0.1752  0.4844 -1.9631
 9014TIP3    H248458   4.230   6.594  15.222  0.0966  0.1252 -0.6325
 9015TIP3   OH248459   2.619   2.496   2.709 -0.2873 -1.0820 -0.1844
 9015TIP3    H148460   2.633   2.417   2.657  2.3854 -0.4599 -0.4947
 9015TIP3    H248461   2.583   2.464   2.792 -0.2035 -2.5286 -0.6899
 9016TIP3   OH248462   2.224   4.489   3.297 -0.2088 -0.0293 -0.7406
 9016TIP3    H148463   2.281   4.422   3.260 -1.8162 -1.9212  0.1580
 9016TIP3    H248464   2.245   4.490   3.391  0.1091  1.0465 -0.8105
 9017TIP3   OH248465   4.130   2.563  16.654  0.2706  0.5626  0.4612
 9017TIP3    H148466   4.184   2.555  16.575 -0.9924  1.0823 -0.4700
 9017TIP3    H248467   4.192   2.590  16.722  1.3819  0.0832 -0.3441
 9018TIP3   OH248468   4.176   1.627  13.273  0.0407 -0.0515 -0.9701
 9018TIP3    H148469   4.104   1.649  13.213 -0.6903  0.2461  0.0150
 9018TIP3    H248470   4.133   1.589  13.349  0.8380  1.3257  0.1846
 9019TIP3   OH248471   0.202   1.372  15.274  0.0885 -0.6452 -0.1368
 9019TIP3    H148472   0.252   1.368  15.355  3.8344 -2.0383 -2.3593
 9019TIP3    H248473   0.223   1.289  15.229 -1.8602  0.0836 -2.5218
 9020TIP3   OH248474   2.195   3.666  11.546  0.2046 -0.1453 -0.1407
 9020TIP3    H148475   2.145   3.733  11.594  1.0855 -0.4883  1.2839
 9020TIP3    H248476   2.286   3.695  11.551  0.4453 -0.8025 -0.6092
 9021TIP3   OH248477   5.865   2.010  13.365  0.4532  0.1972  0.5958
 9021TIP3    H148478   5.820   1.996  13.281 -0.7544 -0.1694  1.2966
 9021TIP3    H248479   5.886   2.103  13.366  0.8285  0.1309 -0.2864
 9022TIP3   OH248480   5.052   0.825   5.483  0.0227 -0.1294  0.5826
 9022TIP3    H148481   4.956   0.832   5.476 -0.2013 -2.3101  1.2659
 9022TIP3    H248482   5.083   0.914   5.466 -2.0351  0.3214 -1.0916
 9023TIP3   OH248483   1.162   0.908  12.452  0.1545  0.2171 -0.1065
 9023TIP3    H148484   1.176   0.820  12.419 -2.0940  0.2231 -1.1539
 9023TIP3    H248485   1.156   0.898  12.547  1.1261 -0.5551 -0.1192
 9024TIP3   OH248486   4.153   5.216  13.340 -0.4171  0.1134  0.0859
 9024TIP3    H148487   4.205   5.294  13.320 -0.3818 -0.4381 -2.0960
 9024TIP3    H248488   4.062   5.247  13.340 -0.3971  0.2028 -0.6800
 9025TIP3   OH248489   3.062   3.036   3.063 -0.2390 -0.2531 -0.2568
 9025TIP3    H148490   3.074   3.102   3.132  0.5278 -1.3906  0.7040
 9025TIP3    H248491   2.976   3.056   3.027  0.5086  2.0714 -0.8335
 9026TIP3   OH248492   1.936   1.798  15.475 -0.0838  0.3428 -0.1432
 9026TIP3    H148493   1.859   1.830  15.521 -1.5854 -1.7230 -1.1493
 9026TIP3    H248494   1.965   1.872  15.421 -0.5981  1.5202  1.1759
 9027TIP3   OH248495   2.833   3.569  11.947 -0.3145  0.5860  0.3384
 9027TIP3    H148496   2.809   3.607  12.032 -1.6521 -1.2022  0.7852
 9027TIP3    H248497   2.830   3.474  11.961  2.7692  0.2590 -0.8115
 9028TIP3   OH248498   0.184   4.273  12.647 -0.0691  0.2821 -0.1779
 9028TIP3    H148499   0.166   4.178  12.645 -1.1623  0.4925 -0.9999
 9028TIP3    H248500   0.248   4.287  12.578  0.5848  0.0481  0.3765
 9029TIP3   OH248501   4.490   0.649   5.384  0.1150 -0.3321 -0.4396
 9029TIP3    H148502   4.451   0.630   5.470  0.3872  0.8504 -0.0458
 9029TIP3    H248503   4.415   0.663   5.326 -0.0656 -0.6147 -0.2747
 9030TIP3   OH248504   3.945   5.412   0.366 -0.0769  0.9841  0.2294
 9030TIP3    H148505   3.910   5.399   0.278 -1.4212 -0.1804  0.9172
 9030TIP3    H248506   4.016   5.348   0.373  1.1248  2.2157 -0.5851
 9031TIP3   OH248507   1.427   1.882   2.239 -0.3592 -0.2718  0.3147
 9031TIP3    H148508   1.519   1.901   2.220  0.1651 -0.5435  2.4863
 9031TIP3    H248509   1.428   1.802   2.290 -1.7786 -0.0634  0.7098
 9032TIP3   OH248510   5.593   6.572  16.643  0.1389  0.1041 -0.7775
 9032TIP3    H148511   5.505   6.543  16.663  0.6016 -0.4866  0.4503
 9032TIP3    H248512   5.585   6.666  16.628 -0.3912  0.4131  1.2810
 9033TIP3   OH248513   5.767   2.018   1.706 -0.0620  0.3288 -0.3450
 9033TIP3    H148514   5.678   2.045   1.728  0.3107  1.2742  0.0465
 9033TIP3    H248515   5.763   1.922   1.703 -0.3126  0.1842  3.0524
 9034TIP3   OH248516   1.983   0.854   2.666 -0.3975  0.2279 -0.2439
 9034TIP3    H148517   1.978   0.778   2.608 -1.5254 -0.1346  0.3119
 9034TIP3    H248518   2.016   0.925   2.610 -1.3593 -0.1433 -1.3071
 9035TIP3   OH248519   2.125   2.045  16.251  0.1610 -0.3190  0.6657
 9035TIP3    H148520   2.198   2.055  16.190 -0.3714  0.5700  0.1677
 9035TIP3    H248521   2.143   2.107  16.321 -0.2263  0.0704  0.4268
 9036TIP3   OH248522   1.507   4.828   2.023  0.3969 -0.4911 -0.2207
 9036TIP3    H148523   1.526   4.897   1.959  0.7733 -0.4760 -0.0899
 9036TIP3    H248524   1.411   4.821   2.022  0.3258  0.4152  0.1729
 9037TIP3   OH248525   6.371   5.657  16.410  0.3169  0.2794 -0.4605
 9037TIP3    H148526   6.312   5.582  16.414  0.4121  0.0449 -2.7575
 9037TIP3    H248527   6.314   5.733  16.422 -0.0882 -0.0610 -0.2265
 9038TIP3   OH248528   0.395   2.284  15.526  0.3470  0.3633 -0.3927
 9038TIP3    H148529   0.367   2.197  15.498  0.2010 -0.0649  1.0310
 9038TIP3    H248530   0.341   2.303  15.602  1.3790  1.0827  0.1772
 9039TIP3   OH248531   6.277   5.424   0.654 -0.1142  0.1810 -0.1493
 9039TIP3    H148532   6.324   5.473   0.586 -0.3327  0.8365  0.1624
 9039TIP3    H248533   6.238   5.492   0.709 -0.5687 -0.3532  0.1898
 9040TIP3   OH248534   2.281   3.967  14.441 -0.2947 -0.0990 -0.3131
 9040TIP3    H148535   2.357   3.939  14.492 -0.7740  2.2824  1.8068
 9040TIP3    H248536   2.227   3.889  14.433  1.6343 -1.4577 -0.5872
 9041TIP3   OH248537   0.829   1.683  15.798  0.2400 -0.2017 -0.1728
 9041TIP3    H148538   0.829   1.691  15.893 -0.8469  1.3909 -0.2862
 9041TIP3    H248539   0.858   1.593  15.781 -1.3677 -1.1014  1.7029
 9042TIP3   OH248540   4.081   2.426   3.337 -0.6385 -0.4160  0.2033
 9042TIP3    H148541   4.173   2.452   3.332 -0.6706  0.0047  1.4723
 9042TIP3    H248542   4.035   2.487   3.280 -0.1474 -0.5214 -0.3042
 9043TIP3   OH248543   2.204   0.327  14.380  0.1869 -0.1564  0.5692
 9043TIP3    H148544   2.278   0.354  14.435  0.9080  0.9823 -0.9314
 9043TIP3    H248545   2.173   0.408  14.339 -1.3924 -0.7423  0.5513
 9044TIP3   OH248546   1.987   5.780  12.432 -0.2654  0.4940 -0.4449
 9044TIP3    H148547   2.057   5.748  12.490 -0.4583  0.4281 -0.2488
 9044TIP3    H248548   2.034   5.814  12.356 -0.0292  0.2578 -0.4074
 9045TIP3   OH248549   4.073   4.873   0.395  0.3738 -0.0172  0.1672
 9045TIP3    H148550   4.044   4.890   0.484  1.6315 -0.0818  0.5934
 9045TIP3    H248551   4.158   4.829   0.405 -0.1419 -1.3136 -1.0219
 9046TIP3   OH248552   2.011   1.238   5.727  0.1486  0.1609 -0.5333
 9046TIP3    H148553   1.980   1.214   5.640 -1.9620  0.4704  0.0893
 9046TIP3    H248554   2.048   1.325   5.717 -0.2134  0.2506 -1.0940
 9047TIP3   OH248555   4.013   0.564   6.403  0.1451  0.3925  0.2592
 9047TIP3    H148556   3.981   0.614   6.328 -0.4277  0.7547  0.7402
 9047TIP3    H248557   3.948   0.495   6.416  0.7091 -0.2150 -0.1342
 9048TIP3   OH248558   6.029   4.243  11.546 -0.2951  0.1377  0.1054
 9048TIP3    H148559   6.010   4.151  11.528 -0.4547 -0.0246  1.0934
 9048TIP3    H248560   6.114   4.242  11.590  1.2297  0.7205 -2.6894
 9049TIP3   OH248561   2.061   5.116   2.328  0.2486  0.1468 -0.0675
 9049TIP3    H148562   1.983   5.160   2.362 -0.6151 -2.2935  1.1724
 9049TIP3    H248563   2.068   5.148   2.238 -1.4071  1.4027  0.2068
 9050TIP3   OH248564   4.465   4.896   0.885 -0.4524  0.4202  0.0846
 9050TIP3    H148565   4.446   4.893   0.979  1.3269 -1.0417  0.4275
 9050TIP3    H248566   4.551   4.936   0.879 -0.4508  0.2794 -0.9023
 9051TIP3   OH248567   5.095   6.175  10.485 -0.6326  0.0462  0.3080
 9051TIP3    H148568   5.046   6.255  10.468  0.8967  1.0010  0.3221
 9051TIP3    H248569   5.066   6.148  10.572 -1.8619  0.0458 -0.0895
 9052TIP3   OH248570   5.994   0.606  16.176 -0.3938  0.4080 -0.0653
 9052TIP3    H148571   6.002   0.696  16.145  0.2560 -0.0347 -1.2039
 9052TIP3    H248572   6.059   0.600  16.247 -1.6108  1.3022  1.1483
 9053TIP3   OH248573   6.450   0.534   4.566  0.3099 -0.5585 -0.2709
 9053TIP3    H148574   6.531   0.486   4.551  0.9734 -0.2131  1.9700
 9053TIP3    H248575   6.394   0.473   4.613 -0.4336 -0.5188 -1.0901
 9054TIP3   OH248576   4.849   4.455   0.913  0.1364 -0.1960 -0.0003
 9054TIP3    H148577   4.758   4.427   0.904  0.0665 -0.1823  0.6023
 9054TIP3    H248578   4.868   4.443   1.006  0.6225  0.1867 -0.0475
 9055TIP3   OH248579   1.466   4.642   3.107 -0.2931  0.1271  0.4516
 9055TIP3    H148580   1.480   4.547   3.109  0.6260  0.2602  0.6067
 9055TIP3    H248581   1.518   4.675   3.180 -0.6995  0.7417  0.4634
 9056TIP3   OH248582   3.016   2.733  15.713  0.3045  0.4815 -0.4456
 9056TIP3    H148583   3.028   2.659  15.773  0.3408  2.0808  1.5798
 9056TIP3    H248584   3.097   2.782  15.720 -0.1106  1.2530 -1.0200
 9057TIP3   OH248585   2.972   1.882   2.252  0.3644 -1.0354  0.4705
 9057TIP3    H148586   2.879   1.868   2.235 -0.1533  2.3322  0.2391
 9057TIP3    H248587   2.975   1.957   2.312  2.9169 -1.5451  1.0852
 9058TIP3   OH248588   0.430   4.456   0.554  0.4071 -0.0587 -0.1110
 9058TIP3    H148589   0.471   4.455   0.468 -0.6362 -1.3739 -0.6188
 9058TIP3    H248590   0.445   4.368   0.589  2.8233  1.1477  2.0480
 9059TIP3   OH248591   6.240   6.121  12.873 -0.6673 -0.1165 -0.3152
 9059TIP3    H148592   6.325   6.156  12.901 -0.7602 -0.1601  0.0266
 9059TIP3    H248593   6.177   6.188  12.897 -0.6258  0.3096 -1.3908
 9060TIP3   OH248594   2.736   1.780  12.164  0.3036  0.1277 -0.6693
 9060TIP3    H148595   2.655   1.821  12.191  0.0439 -0.3333 -0.7357
 9060TIP3    H248596   2.728   1.771  12.069  0.5435  0.3134 -0.7081
 9061TIP3   OH248597   4.740   6.463   3.333  0.0817 -0.1018  0.1448
 9061TIP3    H148598   4.799   6.467   3.408 -0.9449  0.1872  0.9326
 9061TIP3    H248599   4.718   6.554   3.315 -1.1061 -0.2908  0.6289
 9062TIP3   OH248600   2.987   6.533  15.696 -0.0192 -0.3007  0.6293
 9062TIP3    H148601   2.927   6.499  15.630 -1.5530  2.0819  0.7288
 9062TIP3    H248602   3.062   6.567  15.645 -0.0776 -0.6757  0.2910
 9063TIP3   OH248603   5.064   5.882  11.216  0.4756  0.7173  0.2759
 9063TIP3    H148604   4.970   5.886  11.195  0.2955  0.6143  1.0288
 9063TIP3    H248605   5.068   5.830  11.296  1.1421  1.0461  0.4632
 9064TIP3   OH248606   2.358   4.353  11.625 -0.0264  0.6376  0.0189
 9064TIP3    H148607   2.349   4.354  11.529 -0.2759 -0.8637  0.0006
 9064TIP3    H248608   2.413   4.276  11.642  0.0946  0.9577  1.0727
 9065TIP3   OH248609   0.156   6.601   2.175 -0.0292  0.6370 -0.2335
 9065TIP3    H148610   0.247   6.630   2.176 -0.0924  0.8428 -0.4809
 9065TIP3    H248611   0.153   6.531   2.110 -0.4277  1.8763 -1.5736
 9066TIP3   OH248612   6.579   3.460   2.145  0.0821 -0.1837  0.3210
 9066TIP3    H148613   6.567   3.550   2.115  1.2663  0.3467  1.3472
 9066TIP3    H248614   6.495   3.435   2.182 -0.0189  0.8083  0.7728
 9067TIP3   OH248615   3.622   6.140  12.625 -0.0339 -0.0799  0.2850
 9067TIP3    H148616   3.619   6.228  12.663 -0.2723  0.3375 -0.6948
 9067TIP3    H248617   3.610   6.153  12.532 -0.9206 -1.2324  0.2250
 9068TIP3   OH248618   5.683   2.111   4.725 -0.4137 -0.2160  0.4607
 9068TIP3    H148619   5.778   2.101   4.734 -0.0414  0.9505 -1.8232
 9068TIP3    H248620   5.654   2.026   4.691  0.0827  0.0446 -0.6333
 9069TIP3   OH248621   4.891   5.301   0.154  0.7328  0.3130  0.3878
 9069TIP3    H148622   4.869   5.375   0.097 -0.6244  1.0704  1.8380
 9069TIP3    H248623   4.872   5.223   0.102  0.4241  0.9991 -0.5354
 9070TIP3   OH248624   4.718   0.817  11.478 -0.3145 -0.1060 -0.5941
 9070TIP3    H148625   4.790   0.779  11.528  0.4844  0.2683 -1.4581
 9070TIP3    H248626   4.706   0.757  11.404  0.1066  0.6332 -1.2666
 9071TIP3   OH248627   4.434   6.500   2.016  0.4200  0.4629 -0.0333
 9071TIP3    H148628   4.401   6.429   2.072  2.9799  0.0418  1.0292
 9071TIP3    H248629   4.356   6.539   1.977 -1.0739 -2.5770 -0.1854
 9072TIP3   OH248630   0.259   4.006  12.543  0.3818 -0.1906 -0.0132
 9072TIP3    H148631   0.200   3.970  12.477 -1.8662 -0.0878  1.8866
 9072TIP3    H248632   0.292   4.087  12.504  0.1665 -0.8194 -1.5502
 9073TIP3   OH248633   6.200   5.118  16.867 -0.1749  0.6175 -0.3851
 9073TIP3    H148634   6.140   5.045  16.856  0.7755 -0.1163 -0.6833
 9073TIP3    H248635   6.189   5.144  16.959 -0.1852 -0.1830 -0.1590
 9074TIP3   OH248636   0.523   1.940  14.878  0.7491  0.0945 -0.4003
 9074TIP3    H148637   0.499   2.031  14.861 -1.4738 -0.7434 -2.0223
 9074TIP3    H248638   0.461   1.910  14.944  2.3029  0.1093  1.0928
 9075TIP3   OH248639   6.106   6.687   0.800 -0.3401 -0.7216 -0.0414
 9075TIP3    H148640   6.188   6.725   0.770  0.2067 -1.2713  0.7573
 9075TIP3    H248641   6.052   6.762   0.824  0.7591 -0.4468  1.5851
 9076TIP3   OH248642   1.475   3.207   4.494 -0.3514 -0.0203 -0.2971
 9076TIP3    H148643   1.393   3.219   4.542  0.0822  0.2566  0.3805
 9076TIP3    H248644   1.532   3.159   4.555  0.6659  1.5170 -0.0217
 9077TIP3   OH248645   1.503   4.747   5.578 -0.5711 -0.1061 -0.8764
 9077TIP3    H148646   1.474   4.805   5.507  0.2491  1.9213  0.4104
 9077TIP3    H248647   1.435   4.681   5.584 -0.8456 -0.0986 -3.3085
 9078TIP3   OH248648   0.591   4.635   0.090  0.1830 -0.1364 -0.1527
 9078TIP3    H148649   0.626   4.704   0.035 -0.1966  0.6353  0.5551
 9078TIP3    H248650   0.503   4.619   0.056  1.0045 -1.7250 -1.6157
 9079TIP3   OH248651   1.553   0.163  16.262 -0.4379 -0.0727  0.0132
 9079TIP3    H148652   1.488   0.159  16.332 -1.8019  0.1204 -1.2269
 9079TIP3    H248653   1.502   0.166  16.181  1.0685  1.8809 -0.9173
 9080TIP3   OH248654   3.793   1.798  12.670 -0.7429 -0.5324  0.1947
 9080TIP3    H148655   3.829   1.845  12.595 -2.2905 -1.4341 -1.1576
 9080TIP3    H248656   3.804   1.858  12.744  2.0329 -0.1606 -0.4586
 9081TIP3   OH248657   3.447   0.273   1.889  1.2094  0.0834  0.0060
 9081TIP3    H148658   3.389   0.210   1.932 -1.2348  1.9600 -0.4284
 9081TIP3    H248659   3.458   0.239   1.800 -1.5130  1.1378 -0.7639
 9082TIP3   OH248660   3.764   5.978   0.634 -0.0716  0.0814  0.3596
 9082TIP3    H148661   3.803   6.047   0.688 -0.9179  1.8193 -1.1809
 9082TIP3    H248662   3.816   5.979   0.554 -0.6570 -0.4525 -0.0315
 9083TIP3   OH248663   3.211   2.554   4.350  0.0360  0.0680  0.8549
 9083TIP3    H148664   3.246   2.608   4.280  0.6138 -1.2789  0.0760
 9083TIP3    H248665   3.263   2.578   4.427 -0.3432  1.2682  0.7484
 9084TIP3   OH248666   0.986   4.020  17.141  0.1201 -0.1992  0.8762
 9084TIP3    H148667   1.057   4.083  17.141 -1.3069  1.4315  0.7390
 9084TIP3    H248668   0.932   4.045  17.216 -2.1479  0.7088 -1.0012
 9085TIP3   OH248669   6.232   2.695   0.511  0.5435 -0.1575  0.3412
 9085TIP3    H148670   6.207   2.785   0.491  1.1760 -0.0788 -0.1227
 9085TIP3    H248671   6.275   2.700   0.596  1.2818  0.1034 -0.0430
 9086TIP3   OH248672   4.161   4.827  15.038  0.1145  0.3636 -0.1902
 9086TIP3    H148673   4.195   4.753  14.988 -0.7831 -0.0988 -0.1313
 9086TIP3    H248674   4.229   4.894  15.032  1.0922 -0.6021  0.0680
 9087TIP3   OH248675   5.703   0.867  11.881  0.9972  0.3811  0.7763
 9087TIP3    H148676   5.628   0.911  11.840  1.3944  0.4902  0.1681
 9087TIP3    H248677   5.715   0.915  11.963  1.0572  1.0413  0.3930
 9088TIP3   OH248678   2.196   5.436  17.025  0.2738 -0.6787 -0.0748
 9088TIP3    H148679   2.270   5.394  17.068  1.5356  0.9875 -0.5606
 9088TIP3    H248680   2.235   5.504  16.971 -1.7000  1.2507  0.8231
 9089TIP3   OH248681   3.823   1.438  16.037 -0.4616 -0.5319 -0.1798
 9089TIP3    H148682   3.904   1.453  15.988  0.0109 -0.9992  0.4525
 9089TIP3    H248683   3.835   1.353  16.078 -0.9752 -0.2752  0.5112
 9090TIP3   OH248684   0.880   4.672   2.764  0.6408 -0.3793 -0.2605
 9090TIP3    H148685   0.923   4.749   2.726  1.3305 -0.0523  1.1505
 9090TIP3    H248686   0.795   4.704   2.795  0.8158 -0.2392  0.0797
 9091TIP3   OH248687   4.055   0.868   0.017  0.0561 -0.2115 -0.2416
 9091TIP3    H148688   4.034   0.805   0.087 -3.6652  0.8813 -0.2863
 9091TIP3    H248689   4.018   0.829  -0.062 -0.7585  1.2058 -0.5766
 9092TIP3   OH248690   4.487   3.086   1.520 -0.4339 -0.3781  0.0994
 9092TIP3    H148691   4.497   3.102   1.614  0.3275  0.1242 -0.0608
 9092TIP3    H248692   4.393   3.095   1.505 -0.3130  1.9390  0.4156
 9093TIP3   OH248693   4.750   0.813   6.478 -0.6996  0.4753 -0.0615
 9093TIP3    H148694   4.715   0.882   6.422 -0.4146  1.4268  0.9142
 9093TIP3    H248695   4.770   0.741   6.418 -0.2597  1.5351 -1.1961
 9094TIP3   OH248696   5.289   1.326   4.832 -0.4578 -0.2477 -0.2733
 9094TIP3    H148697   5.275   1.290   4.919 -1.4941  1.5593  0.3288
 9094TIP3    H248698   5.383   1.313   4.815 -0.5362 -1.8648  0.5215
 9095TIP3   OH248699   2.856   4.995   0.301  0.1293 -0.1561  0.0490
 9095TIP3    H148700   2.941   4.964   0.334  0.3292  1.4575  1.0780
 9095TIP3    H248701   2.810   5.026   0.378 -0.6938  0.6423 -0.7469
 9096TIP3   OH248702   4.244   2.164   3.122 -0.1214 -0.3254 -0.0821
 9096TIP3    H148703   4.270   2.072   3.111  1.6596  0.3233 -1.7647
 9096TIP3    H248704   4.260   2.183   3.214  0.4623 -1.4328  0.0575
 9097TIP3   OH248705   4.094   4.450   2.506 -0.1951  0.1440  0.0921
 9097TIP3    H148706   4.093   4.493   2.421 -1.8858 -0.1226 -0.0320
 9097TIP3    H248707   4.159   4.499   2.557 -0.1662  1.1475 -0.9069
 9098TIP3   OH248708   6.471   3.414  16.508 -0.3217 -0.2708 -0.4351
 9098TIP3    H148709   6.483   3.410  16.603  2.2791 -0.2799 -0.7141
 9098TIP3    H248710   6.451   3.505  16.490  0.3361 -0.0258  0.0374
 9099TIP3   OH248711   2.227   3.437   1.564 -0.1993  0.2287  0.1240
 9099TIP3    H148712   2.185   3.522   1.552  0.2063  0.6705  1.7122
 9099TIP3    H248713   2.239   3.430   1.659  1.4290 -0.7957 -0.1517
 9100TIP3   OH248714   6.706   5.070  13.473 -0.1173  0.3683  0.6609
 9100TIP3    H148715   6.728   5.066  13.380  1.4521 -0.0960  1.0273
 9100TIP3    H248716   6.640   5.002  13.486  0.9266 -0.7413  0.2142
 9101TIP3   OH248717   0.145   6.743  12.402  0.3465  0.5386  0.0894
 9101TIP3    H148718   0.172   6.660  12.364  0.7597  0.9297 -0.4820
 9101TIP3    H248719   0.227   6.793  12.411  0.2813  0.4104  1.6043
 9102TIP3   OH248720   2.967   1.675   0.441 -0.1979 -0.4024  0.0148
 9102TIP3    H148721   2.971   1.616   0.516  0.2167  0.0457  0.3466
 9102TIP3    H248722   3.053   1.668   0.400 -0.1029  0.0711  0.1329
 9103TIP3   OH248723   0.682   4.521   6.045  0.0814 -0.4978 -0.4290
 9103TIP3    H148724   0.613   4.583   6.068 -1.6575 -2.3727 -0.3852
 9103TIP3    H248725   0.747   4.573   6.000 -1.5409  1.2833 -0.7882
 9104TIP3   OH248726   4.194   0.804   4.542  0.6543 -0.5554  0.6147
 9104TIP3    H148727   4.223   0.892   4.569  1.6683 -1.1506  1.4874
 9104TIP3    H248728   4.131   0.778   4.609 -1.8196  0.6471 -1.1629
 9105TIP3   OH248729   1.844   0.083  15.571 -0.2382 -0.1953  0.3406
 9105TIP3    H148730   1.770   0.121  15.618  0.2825  0.4017  0.6831
 9105TIP3    H248731   1.895   0.038  15.639  0.2663  0.2737  0.2777
 9106TIP3   OH248732   5.619   0.313   3.064  0.5280  0.0200 -0.3929
 9106TIP3    H148733   5.613   0.288   2.972  0.3299 -0.8491 -0.1501
 9106TIP3    H248734   5.688   0.257   3.100 -0.4026 -0.6823  0.3246
 9107TIP3   OH248735   6.089   2.896   2.575  0.4969 -0.0742 -0.1965
 9107TIP3    H148736   6.051   2.940   2.651 -3.0883 -0.2774 -1.7774
 9107TIP3    H248737   6.114   2.810   2.609 -2.5325 -0.7654  0.5003
 9108TIP3   OH248738   3.427   5.041   4.636 -0.0091  0.0265 -0.3561
 9108TIP3    H148739   3.459   5.097   4.566 -1.0695  1.7617  0.5424
 9108TIP3    H248740   3.335   5.026   4.616  0.3314 -1.7282 -0.7814
 9109TIP3   OH248741   4.457   5.815   1.281 -0.3316  0.3655  0.5759
 9109TIP3    H148742   4.538   5.769   1.259 -1.2329 -1.5681  1.1982
 9109TIP3    H248743   4.451   5.886   1.217  1.0718 -0.4101 -0.4271
 9110TIP3   OH248744   3.652   2.745   5.333 -0.0275  0.1949 -0.2405
 9110TIP3    H148745   3.616   2.746   5.422  0.3634 -2.5145 -0.0057
 9110TIP3    H248746   3.745   2.762   5.345 -0.0401  0.2257 -0.1841
 9111TIP3   OH248747   4.736   2.850  15.139 -0.4509 -0.6099  0.0014
 9111TIP3    H148748   4.782   2.856  15.055  1.0887  0.6317  0.9247
 9111TIP3    H248749   4.720   2.756  15.151 -1.5371 -0.7272 -2.1242
 9112TIP3   OH248750   4.981   3.742  15.325  0.4450  0.0099 -0.0354
 9112TIP3    H148751   4.964   3.657  15.284 -0.0752 -0.0559  0.3043
 9112TIP3    H248752   5.075   3.757  15.314  0.4772 -0.4573 -0.3858
 9113TIP3   OH248753   4.560   0.579  12.590  0.1394 -0.1576  0.1209
 9113TIP3    H148754   4.553   0.654  12.531  1.8032 -0.0176  0.0819
 9113TIP3    H248755   4.478   0.579  12.639  0.3255  1.9478  0.4372
 9114TIP3   OH248756   5.626   3.234   0.802  0.0597  0.0146  0.3771
 9114TIP3    H148757   5.625   3.158   0.743 -2.5381 -0.3627  0.8305
 9114TIP3    H248758   5.719   3.249   0.820  0.6732 -2.6265 -0.2742
 9115TIP3   OH248759   0.360   1.830  10.615  0.0442 -0.1798  0.3748
 9115TIP3    H148760   0.440   1.815  10.564  0.2523  0.3831  0.5312
 9115TIP3    H248761   0.303   1.878  10.556  0.1556  0.1777  0.5570
 9116TIP3   OH248762   5.300   0.706   3.054 -0.2516 -0.2165 -0.4637
 9116TIP3    H148763   5.209   0.714   3.082  0.0175  1.1200  0.0847
 9116TIP3    H248764   5.321   0.793   3.018  1.8477  0.6503  2.6438
 9117TIP3   OH248765   1.435   4.708  15.258  0.3071  0.2260  0.1560
 9117TIP3    H148766   1.448   4.725  15.165  0.2091  0.4155  0.1771
 9117TIP3    H248767   1.513   4.658  15.284 -1.5597 -3.3686 -0.9207
 9118TIP3   OH248768   0.472   0.066   0.093 -0.4227  0.4103  0.9089
 9118TIP3    H148769   0.406   0.017   0.044  1.7054 -0.3911 -1.2540
 9118TIP3    H248770   0.435   0.154   0.101 -2.1625 -0.2681  0.5569
 9119TIP3   OH248771   5.604   6.426   5.091 -1.0033 -0.4300  0.0023
 9119TIP3    H148772   5.559   6.411   5.008  1.3046  0.5404 -1.4441
 9119TIP3    H248773   5.564   6.506   5.126 -0.3643  0.4827 -1.3179
 9120TIP3   OH248774   2.616   1.424  13.979  0.8089 -0.0685 -0.1202
 9120TIP3    H148775   2.639   1.447  14.069  0.9449  0.9636 -0.4121
 9120TIP3    H248776   2.673   1.480  13.925 -1.5459  1.6975 -0.8625
 9121TIP3   OH248777   1.956   4.414   0.233  0.3295  0.3521 -0.4333
 9121TIP3    H148778   1.966   4.499   0.276  0.0673 -0.5967  1.5896
 9121TIP3    H248779   1.953   4.351   0.305  2.4381 -1.5874 -1.9436
 9122TIP3   OH248780   1.783   4.661   3.264  0.3118  0.8852 -0.2361
 9122TIP3    H148781   1.696   4.668   3.303  0.1621 -1.0185 -0.1645
 9122TIP3    H248782   1.771   4.686   3.172 -0.3350  0.4780 -0.2610
 9123TIP3   OH248783   6.632   2.239  16.879 -0.1833  0.5283  0.2671
 9123TIP3    H148784   6.596   2.170  16.824  0.8521 -0.1188  0.3839
 9123TIP3    H248785   6.676   2.193  16.951 -1.1339  1.3510  1.4049
 9124TIP3   OH248786   3.624   2.366   5.379  0.3970  0.1026  0.3099
 9124TIP3    H148787   3.554   2.385   5.316  0.1587  0.6794  0.7439
 9124TIP3    H248788   3.704   2.391   5.333  0.3055 -0.3283 -0.0990
 9125TIP3   OH248789   3.016   0.853  16.818 -0.3484  0.3691 -0.1304
 9125TIP3    H148790   2.968   0.874  16.898  0.2767  0.2920  0.2689
 9125TIP3    H248791   3.033   0.759  16.825 -1.5253  0.0811 -1.0276
 9126TIP3   OH248792   3.821   1.365   2.432  0.0512  0.6383 -0.4191
 9126TIP3    H148793   3.875   1.420   2.487 -1.2276 -0.0333  1.5656
 9126TIP3    H248794   3.844   1.275   2.457 -1.4160  0.3390 -0.0720
 9127TIP3   OH248795   2.365   0.610   5.041  0.1505 -0.4993  0.6794
 9127TIP3    H148796   2.368   0.546   5.112 -1.0111 -1.3358  0.0001
 9127TIP3    H248797   2.273   0.630   5.030  0.2306 -0.9572 -1.0754
 9128TIP3   OH248798   3.538   3.773  11.720  0.3456  0.1431 -0.3619
 9128TIP3    H148799   3.556   3.742  11.808 -0.4227 -0.1019 -0.2893
 9128TIP3    H248800   3.526   3.867  11.730  1.2115  0.2633 -0.3581
 9129TIP3   OH248801   2.142   2.943  13.612 -0.4419 -0.5277  0.3957
 9129TIP3    H148802   2.182   2.860  13.588 -1.3335 -1.4451  2.0075
 9129TIP3    H248803   2.189   2.971  13.691 -0.7070  0.0630  0.3480
 9130TIP3   OH248804   2.167   3.165   3.162  0.8856 -0.8188  0.5573
 9130TIP3    H148805   2.085   3.183   3.209  1.5636  0.4592  1.2747
 9130TIP3    H248806   2.208   3.095   3.212 -0.1042 -1.9586 -0.2162
 9131TIP3   OH248807   0.807   4.259   0.227  0.6060 -0.2045  0.3767
 9131TIP3    H148808   0.771   4.272   0.314 -1.8712  1.3046 -0.8476
 9131TIP3    H248809   0.775   4.333   0.175  1.4443 -1.4433 -1.9999
 9132TIP3   OH248810   4.059   1.397  14.563  0.4033 -0.3739  0.6065
 9132TIP3    H148811   4.006   1.398  14.484 -1.4761 -3.7455  1.7205
 9132TIP3    H248812   4.148   1.383  14.532  0.1392  1.4283 -1.0498
 9133TIP3   OH248813   2.712   1.056  10.334 -0.1221 -0.1218 -0.2135
 9133TIP3    H148814   2.631   1.095  10.302 -0.5208 -0.8828 -0.1510
 9133TIP3    H248815   2.731   0.985  10.273  0.5341  0.0794 -0.2580
 9134TIP3   OH248816   4.815   2.451   3.609 -0.4223  0.3990  0.1706
 9134TIP3    H148817   4.865   2.530   3.592  1.4234 -0.4388  1.5218
 9134TIP3    H248818   4.768   2.470   3.691  0.8384 -0.2689  1.0577
 9135TIP3   OH248819   3.742   6.001   4.830 -0.2440  0.3985 -0.4686
 9135TIP3    H148820   3.652   6.030   4.812  0.4863  0.5645 -4.1899
 9135TIP3    H248821   3.732   5.909   4.853 -1.3628  0.3505 -1.0838
 9136TIP3   OH248822   0.734   5.797   1.217  0.1015  0.8214  0.0788
 9136TIP3    H148823   0.656   5.742   1.210  2.6950 -3.0899  0.3265
 9136TIP3    H248824   0.721   5.847   1.298 -1.1694 -1.4683  1.3391
 9137TIP3   OH248825   6.535   4.846   1.946 -0.0633  0.3126  0.3122
 9137TIP3    H148826   6.491   4.906   1.886  0.4013 -1.0836 -1.4833
 9137TIP3    H248827   6.602   4.803   1.893 -0.0208 -1.3847  1.6680
 9138TIP3   OH248828   1.663   2.323   6.547  0.0930  0.2934 -0.0530
 9138TIP3    H148829   1.594   2.387   6.564  1.5734  1.5636  1.3507
 9138TIP3    H248830   1.671   2.274   6.629 -1.3551 -2.0585 -1.2637
 9139TIP3   OH248831   0.879   0.068   0.445  0.1865  0.3278 -0.4479
 9139TIP3    H148832   0.811   0.093   0.383  0.9491  0.1263 -1.3812
 9139TIP3    H248833   0.838   0.004   0.503 -0.9281  1.5136  0.1136
 9140TIP3   OH248834   3.264   4.917   2.190 -0.2751  0.1481  0.0439
 9140TIP3    H148835   3.252   4.976   2.116 -1.3838 -1.9571 -1.5060
 9140TIP3    H248836   3.351   4.880   2.177 -0.1688  0.3360  0.2155
 9141TIP3   OH248837   5.460   3.414  14.187  0.3017 -0.2173 -0.1888
 9141TIP3    H148838   5.411   3.457  14.258  0.1436 -0.7208  0.0113
 9141TIP3    H248839   5.552   3.426  14.210  0.4569  4.1294 -2.5412
 9142TIP3   OH248840   6.741   1.035  14.991  0.8702 -0.3645 -0.3799
 9142TIP3    H148841   6.734   0.991  14.906  2.9295  0.1926 -0.8783
 9142TIP3    H248842   6.783   1.118  14.971  0.0751  0.3872  1.0120
 9143TIP3   OH248843   3.897   4.702   3.354 -0.2127  0.4720  0.4723
 9143TIP3    H148844   3.890   4.797   3.361  0.7852  0.5391  0.6156
 9143TIP3    H248845   3.809   4.673   3.330  0.1494  1.6951 -2.5026
 9144TIP3   OH248846   4.261   0.193   1.077 -0.0115 -0.6736  0.2056
 9144TIP3    H148847   4.334   0.131   1.089  1.6917  1.2313 -0.0711
 9144TIP3    H248848   4.255   0.239   1.160 -1.2698 -1.1926  0.4055
 9145TIP3   OH248849   3.846   5.129   2.897 -0.4876 -0.5982  0.8111
 9145TIP3    H148850   3.768   5.183   2.910 -0.2683 -0.3194  0.9640
 9145TIP3    H248851   3.814   5.051   2.851 -1.1816 -1.3563  2.5297
 9146TIP3   OH248852   0.634   0.636  14.296  0.6062 -0.7010  0.1125
 9146TIP3    H148853   0.539   0.624  14.290  0.8162 -1.7348 -1.4067
 9146TIP3    H248854   0.667   0.548  14.317  1.1932 -0.2299  1.1856
 9147TIP3   OH248855   5.070   3.229   1.893  0.6537 -0.2619 -0.3095
 9147TIP3    H148856   5.026   3.281   1.826 -0.7000 -2.6712 -1.3423
 9147TIP3    H248857   5.123   3.166   1.844  0.5777 -1.2811  0.8788
 9148TIP3   OH248858   4.073   2.055   5.360 -0.4167 -0.5540  0.3284
 9148TIP3    H148859   4.054   2.038   5.452 -1.3015 -3.4786 -0.3413
 9148TIP3    H248860   4.147   1.997   5.340 -0.2185  0.0803 -0.7898
 9149TIP3   OH248861   3.115   4.191  15.221 -0.6783 -0.0683 -0.1593
 9149TIP3    H148862   3.146   4.171  15.309 -1.6849  1.0770  0.4832
 9149TIP3    H248863   3.104   4.286  15.221  1.7034  0.2506 -2.3411
 9150TIP3   OH248864   0.237   2.146  11.053 -0.2930  0.5065 -0.0261
 9150TIP3    H148865   0.282   2.105  10.979  1.1425  0.6776  0.7414
 9150TIP3    H248866   0.247   2.240  11.038  1.9220  0.5477  1.5183
 9151TIP3   OH248867   4.627   4.743   0.519  0.1615 -1.0435  0.6521
 9151TIP3    H148868   4.539   4.750   0.481  0.6630 -0.8441 -0.4909
 9151TIP3    H248869   4.646   4.649   0.516 -0.3061 -1.1771  1.6011
 9152TIP3   OH248870   2.039   2.178   1.438  0.2436  0.8849  0.0298
 9152TIP3    H148871   2.021   2.225   1.519 -0.2482  1.7549 -0.5630
 9152TIP3    H248872   1.954   2.143   1.412  0.7516 -1.0341  0.8777
 9153TIP3   OH248873   1.705   0.104  14.360  0.1057  0.5699 -0.5236
 9153TIP3    H148874   1.644   0.142  14.296 -0.5274 -0.0037 -0.2695
 9153TIP3    H248875   1.711   0.012  14.335  1.8187  0.8767 -1.2806
 9154TIP3   OH248876   5.550   1.203   4.847 -0.2813  0.2766  0.1562
 9154TIP3    H148877   5.582   1.151   4.774  0.0215  0.7212 -0.0303
 9154TIP3    H248878   5.560   1.146   4.924  1.3014  0.5385  0.1588
 9155TIP3   OH248879   1.375   4.705   1.303  0.7907 -0.8529 -0.7650
 9155TIP3    H148880   1.346   4.650   1.376 -0.7428  0.4324 -0.3757
 9155TIP3    H248881   1.450   4.753   1.338  1.4077 -1.8244 -0.7345
 9156TIP3   OH248882   1.712   1.460  12.137  0.1993 -0.5124  0.1700
 9156TIP3    H148883   1.708   1.482  12.230  0.4341 -0.5585  0.1912
 9156TIP3    H248884   1.626   1.424  12.117 -0.2747  0.6321  0.0888
 9157TIP3   OH248885   1.815   5.251   0.931 -0.2996  0.2618  0.3081
 9157TIP3    H148886   1.835   5.342   0.907  0.5854 -0.0046  0.0337
 9157TIP3    H248887   1.900   5.208   0.934 -0.8286 -0.9024 -0.9371
 9158TIP3   OH248888   0.586   1.436  13.402 -0.7484  0.3360 -0.3460
 9158TIP3    H148889   0.496   1.418  13.376 -0.9800 -1.3209  1.4691
 9158TIP3    H248890   0.630   1.351  13.396  0.0349  0.6021  1.1975
 9159TIP3   OH248891   0.821   6.542   3.837  0.0009  0.0446 -0.0641
 9159TIP3    H148892   0.868   6.522   3.918 -0.4971 -0.1908  0.1722
 9159TIP3    H248893   0.803   6.636   3.842 -0.1728 -0.0025  0.1741
 9160TIP3   OH248894   4.842   2.730   3.833 -0.0588  0.5967 -0.7253
 9160TIP3    H148895   4.902   2.769   3.897 -2.4929  1.6562  0.9777
 9160TIP3    H248896   4.832   2.639   3.862 -0.6677  0.9079  0.0711
 9161TIP3   OH248897   5.156   1.595   4.768 -0.2251  0.3432 -0.0220
 9161TIP3    H148898   5.119   1.575   4.682 -0.1440 -1.6567  0.3824
 9161TIP3    H248899   5.235   1.541   4.773 -0.0952  0.6357  1.2142
 9162TIP3   OH248900   2.656   0.791  14.277  0.5500 -0.2241  0.4915
 9162TIP3    H148901   2.704   0.873  14.275  1.0802 -0.5527 -1.1196
 9162TIP3    H248902   2.698   0.737  14.210 -0.6192 -1.3342  0.6334
 9163TIP3   OH248903   6.311   5.035  15.687  0.0193 -0.0118  0.2192
 9163TIP3    H148904   6.277   5.117  15.650 -1.1255 -1.1684 -1.3370
 9163TIP3    H248905   6.238   4.999  15.737 -0.8221 -2.0642 -2.4083
 9164TIP3   OH248906   2.915   4.787  16.912 -0.6366 -0.2769 -0.3825
 9164TIP3    H148907   2.876   4.703  16.888 -1.2270 -0.1486  0.1039
 9164TIP3    H248908   2.999   4.765  16.952 -0.6646 -0.6170 -0.5180
 9165TIP3   OH248909   5.447   3.193  11.605 -0.8613  0.1010  0.3400
 9165TIP3    H148910   5.527   3.151  11.634 -0.8241  1.7456  2.7380
 9165TIP3    H248911   5.476   3.265  11.549 -0.7893 -0.8771 -0.8996
 9166TIP3   OH248912   6.657   4.071  14.171  0.9024  0.0081  0.4290
 9166TIP3    H148913   6.656   4.050  14.264 -2.7521 -0.0200  0.4510
 9166TIP3    H248914   6.622   3.994  14.127  1.9134  0.2871 -0.9410
 9167TIP3   OH248915   5.137   2.011   4.697  0.0706 -0.1779 -0.4812
 9167TIP3    H148916   5.151   2.029   4.790  0.6532 -1.0546 -0.3879
 9167TIP3    H248917   5.094   2.090   4.663 -0.4291  0.0274  0.5926
 9168TIP3   OH248918   3.954   2.575   3.797  0.1075 -0.0789 -0.5996
 9168TIP3    H148919   4.028   2.522   3.767 -0.3457 -0.0440 -1.8004
 9168TIP3    H248920   3.879   2.539   3.750 -0.4463  0.6218 -0.2421
 9169TIP3   OH248921   2.208   5.899  15.374 -0.1180 -0.2625  0.2138
 9169TIP3    H148922   2.164   5.939  15.299  0.8904 -0.7116 -0.6407
 9169TIP3    H248923   2.144   5.903  15.445 -0.5947  1.4000 -0.2979
 9170TIP3   OH248924   0.260   4.737  16.717 -0.5999 -0.0025 -0.6255
 9170TIP3    H148925   0.317   4.686  16.775 -0.0899 -0.2280 -1.3245
 9170TIP3    H248926   0.310   4.817  16.699 -0.7204  0.0232 -0.8363
 9171TIP3   OH248927   0.087   1.117  11.044 -0.1295 -0.3730  0.6585
 9171TIP3    H148928   0.103   1.130  10.950 -2.0718 -1.5596  0.1490
 9171TIP3    H248929   0.150   1.049  11.069  0.6715  0.2315  0.3150
 9172TIP3   OH248930   0.582   2.925   3.986  0.7274  0.2439 -0.3591
 9172TIP3    H148931   0.525   2.848   3.989 -0.0047  0.7150 -1.6338
 9172TIP3    H248932   0.670   2.890   4.001  0.2484 -0.6645  0.3520
 9173TIP3   OH248933   0.631   6.305   0.219  0.2446  0.2692 -0.7371
 9173TIP3    H148934   0.567   6.234   0.211  1.7213 -1.4808  2.1243
 9173TIP3    H248935   0.669   6.313   0.132 -1.2075 -1.2272 -1.5454
 9174TIP3   OH248936   4.047   2.618   3.158 -0.2270  0.2673 -0.2098
 9174TIP3    H148937   4.121   2.610   3.097  0.3920 -1.6812  0.7466
 9174TIP3    H248938   4.006   2.701   3.135  2.2021  1.3400 -0.8454
 9175TIP3   OH248939   5.809   6.784   4.303  0.3224  0.8786 -0.2835
 9175TIP3    H148940   5.892   6.781   4.351  1.0274 -2.2557 -1.5320
 9175TIP3    H248941   5.835   6.782   4.211 -1.1329 -1.3869 -0.6737
 9176TIP3   OH248942   5.434   6.334  12.467  0.4926 -0.0964 -0.0116
 9176TIP3    H148943   5.387   6.358  12.547 -0.7770 -0.4459 -0.6492
 9176TIP3    H248944   5.523   6.367  12.482  0.7622 -1.7267  2.2880
 9177TIP3   OH248945   3.765   6.717   3.272  0.7165  0.4789 -0.3889
 9177TIP3    H148946   3.785   6.628   3.302 -2.0561 -0.0431  0.1114
 9177TIP3    H248947   3.716   6.704   3.191 -2.2898  1.3710  1.2085
 9178TIP3   OH248948   1.000   3.188   3.474 -0.3031  0.2166 -0.1781
 9178TIP3    H148949   0.924   3.204   3.419  0.5358 -1.2711 -1.8152
 9178TIP3    H248950   1.073   3.179   3.413  0.8462 -0.4335  1.2452
 9179TIP3   OH248951   4.699   6.048   4.013 -0.2036  0.1999 -0.6242
 9179TIP3    H148952   4.617   6.087   4.043  0.7402  2.5990 -0.9702
 9179TIP3    H248953   4.719   5.981   4.078 -1.9134  0.2745  0.0114
 9180TIP3   OH248954   2.403   2.653   1.645 -0.3575  0.0084  0.7513
 9180TIP3    H148955   2.342   2.715   1.604  0.2857  0.6356  0.7402
 9180TIP3    H248956   2.353   2.572   1.652 -0.7220  0.1061 -0.5984
 9181TIP3   OH248957   5.362   3.596  13.333 -0.8264 -0.2005 -0.2533
 9181TIP3    H148958   5.360   3.500  13.329  2.5984 -0.3027 -0.6301
 9181TIP3    H248959   5.339   3.616  13.424  0.4760 -1.4681  0.3756
 9182TIP3   OH248960   2.826   6.113  13.990  0.0974  0.1253 -0.1207
 9182TIP3    H148961   2.901   6.170  13.976  0.5709 -0.4031  0.2484
 9182TIP3    H248962   2.854   6.027  13.959  0.0771 -0.3454  1.1274
 9183TIP3   OH248963   3.817   6.571  17.134  0.3252 -0.7003  0.1345
 9183TIP3    H148964   3.783   6.642  17.079  2.0445  0.4009  0.4495
 9183TIP3    H248965   3.876   6.522  17.077  1.0350 -0.3901  0.5876
 9184TIP3   OH248966   5.283   4.903  13.317 -0.5036 -0.3411 -0.1023
 9184TIP3    H148967   5.244   4.968  13.377 -0.5557 -0.0503 -0.4523
 9184TIP3    H248968   5.244   4.923  13.232 -0.2203 -0.5864 -0.2881
 9185TIP3   OH248969   2.081   2.232   1.724  0.0867 -0.4634 -0.0534
 9185TIP3    H148970   2.004   2.285   1.748 -0.0649  0.4037 -2.3429
 9185TIP3    H248971   2.138   2.237   1.801 -0.9111  1.1984  0.6131
 9186TIP3   OH248972   3.723   4.729  16.643 -0.0070 -0.2127  0.0984
 9186TIP3    H148973   3.717   4.707  16.551  0.3197  1.8015 -0.4264
 9186TIP3    H248974   3.645   4.782  16.661  0.1188 -0.2794  0.8860
 9187TIP3   OH248975   3.758   3.009   3.752 -0.2278 -0.3240 -0.5295
 9187TIP3    H148976   3.711   2.953   3.690  0.0467  0.2444 -1.2643
 9187TIP3    H248977   3.787   2.950   3.821 -0.6759 -0.9407 -0.8675
 9188TIP3   OH248978   4.638   1.284  12.686 -0.3429  0.2724 -0.5353
 9188TIP3    H148979   4.689   1.350  12.732 -0.4705  0.9424 -1.3380
 9188TIP3    H248980   4.625   1.214  12.750 -1.3254  1.5981  0.7214
 9189TIP3   OH248981   5.474   2.050   3.792 -0.1385 -0.3296 -0.2191
 9189TIP3    H148982   5.387   2.052   3.754 -0.8154  1.3178  1.3243
 9189TIP3    H248983   5.532   2.027   3.719 -1.7776 -0.8292 -1.3905
 9190TIP3   OH248984   2.077   4.480   0.801  0.0924 -0.2703  0.3868
 9190TIP3    H148985   2.091   4.575   0.796 -0.0360 -0.2485  0.4326
 9190TIP3    H248986   2.002   4.470   0.860  0.3036 -0.4161  0.6279
 9191TIP3   OH248987   3.424   6.060   5.132 -0.1481  0.6117 -0.2141
 9191TIP3    H148988   3.393   6.002   5.063  0.6028 -0.5510  0.4024
 9191TIP3    H248989   3.499   6.105   5.092 -0.0494  0.3381 -0.3448
 9192TIP3   OH248990   1.549   2.307   1.218  0.2696  0.0197  0.0846
 9192TIP3    H148991   1.513   2.241   1.158  1.6046 -0.8578  0.2327
 9192TIP3    H248992   1.558   2.261   1.301 -2.3533  1.4507  1.2254
 9193TIP3   OH248993   0.274   0.156  10.503 -0.1630 -0.0518  0.0527
 9193TIP3    H148994   0.351   0.212  10.511 -0.4785  0.4353 -0.3072
 9193TIP3    H248995   0.208   0.197  10.559 -1.0495  1.0902 -1.7576
 9194TIP3   OH248996   2.008   2.679  17.187 -0.0606 -0.1944 -0.1911
 9194TIP3    H148997   2.026   2.622  17.262 -3.2349  1.8669  2.3000
 9194TIP3    H248998   1.915   2.663  17.167  0.7279 -0.7465 -3.7998
 9195TIP3   OH248999   6.238   6.594  12.442  0.4492 -0.2114  0.4274
 9195TIP3    H149000   6.219   6.571  12.533 -2.1173  1.3934  0.3479
 9195TIP3    H249001   6.184   6.535  12.391  1.8682 -1.0922 -0.0957
 9196TIP3   OH249002   6.533   6.695   0.660 -0.1890 -0.2490  0.3709
 9196TIP3    H149003   6.540   6.610   0.702 -2.5625 -0.4334  0.4886
 9196TIP3    H249004   6.573   6.683   0.574  1.4963 -0.8449  1.2289
 9197TIP3   OH249005   1.321   0.642  15.987 -0.6147 -0.3530 -0.1513
 9197TIP3    H149006   1.243   0.640  15.931  0.3617 -2.4105 -1.4893
 9197TIP3    H249007   1.312   0.566  16.044 -0.0144 -0.0818  0.3188
 9198TIP3   OH249008   3.754   2.330   4.755  0.2746 -0.5412 -0.4589
 9198TIP3    H149009   3.825   2.314   4.817 -0.9604  0.3020  1.2006
 9198TIP3    H249010   3.675   2.333   4.809 -0.6956  1.3443 -1.9238
 9199TIP3   OH249011   4.239   0.907   4.178  0.4387 -0.2298 -0.0808
 9199TIP3    H149012   4.308   0.852   4.139  0.4066 -1.3531  1.4278
 9199TIP3    H249013   4.267   0.920   4.268 -1.7649 -1.4679  0.8132
 9200TIP3   OH249014   6.647   6.446   2.408 -0.4810  0.0441  0.5923
 9200TIP3    H149015   6.663   6.372   2.350  1.1172 -0.0542  1.1479
 9200TIP3    H249016   6.730   6.494   2.411 -0.7964  0.5440  2.0737
 9201TIP3   OH249017   5.319   5.520   1.259  0.2302 -0.1964  0.4021
 9201TIP3    H149018   5.271   5.602   1.245  1.4643  0.2867 -1.2383
 9201TIP3    H249019   5.344   5.522   1.351 -1.7687  0.1421  0.9610
 9202TIP3   OH249020   3.093   4.698  10.501 -0.2873  0.0608  0.1592
 9202TIP3    H149021   3.167   4.663  10.552 -1.0925 -0.6370  0.8745
 9202TIP3    H249022   3.030   4.626  10.499 -1.7409  1.2597  1.1481
 9203TIP3   OH249023   3.419   2.770  12.992 -0.0226 -0.0521  0.1653
 9203TIP3    H149024   3.408   2.709  12.919  1.3297 -1.0910  0.8259
 9203TIP3    H249025   3.422   2.714  13.070  0.3803  0.9148  0.8490
 9204TIP3   OH249026   1.596   4.092   3.512  0.0988  0.1441  0.8415
 9204TIP3    H149027   1.535   4.021   3.489  1.1468 -0.6318  0.3977
 9204TIP3    H249028   1.560   4.169   3.469 -0.6657 -0.2721  0.7209
 9205TIP3   OH249029   6.210   0.020   3.768  0.1053 -0.2932 -1.2637
 9205TIP3    H149030   6.201  -0.026   3.851  0.5571 -0.7833 -1.4882
 9205TIP3    H249031   6.125   0.007   3.725 -1.0496  2.0616  0.1697
 9206TIP3   OH249032   0.593   0.499   4.570  0.6342 -0.1513  0.2714
 9206TIP3    H149033   0.596   0.444   4.491  0.8064  0.2392  0.0076
 9206TIP3    H249034   0.566   0.439   4.639 -1.8252 -0.0046 -0.5244
 9207TIP3   OH249035   2.876   4.702  12.203  0.0549  0.4255 -0.4131
 9207TIP3    H149036   2.840   4.735  12.120 -0.0970  0.3694 -0.3696
 9207TIP3    H249037   2.954   4.755  12.218  1.1081 -0.7529 -1.5253
 9208TIP3   OH249038   1.649   0.987  16.117  0.1408  0.2940 -0.0782
 9208TIP3    H149039   1.584   1.003  16.185  0.3105  1.3149 -0.1437
 9208TIP3    H249040   1.604   0.929  16.054  0.1513 -1.0406  1.1229
 9209TIP3   OH249041   4.300   2.474   5.928 -0.3450 -0.1067 -0.4444
 9209TIP3    H149042   4.281   2.429   6.010 -0.1527  0.2410 -0.2095
 9209TIP3    H249043   4.349   2.552   5.954 -0.4072  0.0775 -0.8762
 9210TIP3   OH249044   5.960   5.253  11.956 -0.2367  0.2629 -0.6236
 9210TIP3    H149045   6.047   5.221  11.976 -1.4887 -3.5556 -0.8247
 9210TIP3    H249046   5.928   5.290  12.038  0.2010 -1.7511  0.4857
 9211TIP3   OH249047   4.344   1.980   5.556 -0.2903 -0.4824  0.1115
 9211TIP3    H149048   4.338   2.076   5.561 -0.1892 -0.3752 -1.4699
 9211TIP3    H249049   4.437   1.963   5.545 -0.4451 -0.6688 -0.9929
 9212TIP3   OH249050   4.561   1.331  12.100  0.5887 -0.0040  0.1160
 9212TIP3    H149051   4.649   1.296  12.085  0.5512  0.1576 -0.4882
 9212TIP3    H249052   4.505   1.254  12.108  0.7333 -0.1008  0.1922
 9213TIP3   OH249053   2.879   1.912   3.142  0.2659 -0.2281 -0.6982
 9213TIP3    H149054   2.936   1.989   3.137  1.5379 -1.0122  1.3977
 9213TIP3    H249055   2.927   1.849   3.195 -1.8362 -1.5437 -0.2799
 9214TIP3   OH249056   6.732   4.852  16.350  0.2929  0.3401 -0.4955
 9214TIP3    H149057   6.816   4.825  16.385  0.3078 -1.4316 -1.8655
 9214TIP3    H249058   6.674   4.777  16.364 -1.7226  2.2834  2.4327
 9215TIP3   OH249059   4.933   4.123   5.361  0.2736  0.5093  0.1436
 9215TIP3    H149060   4.894   4.204   5.327 -0.7708 -0.4306 -0.9434
 9215TIP3    H249061   4.859   4.074   5.396  1.1033  0.6744  2.2057
 9216TIP3   OH249062   1.928   5.014  11.789 -0.4333  0.3049  0.1257
 9216TIP3    H149063   2.013   4.979  11.761 -0.7567 -0.6953  0.3650
 9216TIP3    H249064   1.877   5.022  11.709 -0.1540  0.8125 -0.0063
 9217TIP3   OH249065   6.022   0.315  14.623  0.0648 -0.4386 -0.1663
 9217TIP3    H149066   6.027   0.235  14.676  0.4181  1.0622  2.1509
 9217TIP3    H249067   6.071   0.380  14.674  0.4383  1.0473 -2.3914
 9218TIP3   OH249068   1.903   5.139  13.544  0.2962 -0.2531 -1.6533
 9218TIP3    H149069   1.828   5.093  13.582 -0.4275  2.4419  0.4077
 9218TIP3    H249070   1.978   5.106  13.593 -0.4246  1.8872  1.0513
 9219TIP3   OH249071   4.014   5.520  11.285 -0.2364 -0.1184 -0.2678
 9219TIP3    H149072   3.955   5.556  11.351 -1.3602 -0.1364 -1.2397
 9219TIP3    H249073   3.956   5.475  11.224  0.5044  2.1733 -2.7524
 9220TIP3   OH249074   1.922   1.061  14.946 -0.0573 -0.4063 -0.2336
 9220TIP3    H149075   1.903   1.028  15.034 -0.7242 -0.3164 -0.3438
 9220TIP3    H249076   2.002   1.015  14.920  1.0898  0.8206  1.0885
 9221TIP3   OH249077   2.859   6.413  14.755  0.0947  0.2796 -0.5915
 9221TIP3    H149078   2.942   6.458  14.769  0.1430 -0.2758  1.0095
 9221TIP3    H249079   2.792   6.479  14.771  0.2065  0.6207 -1.4846
 9222TIP3   OH249080   0.205   3.871   4.267 -0.5983 -0.2543 -0.8060
 9222TIP3    H149081   0.219   3.776   4.264 -0.7472 -0.2738 -0.8902
 9222TIP3    H249082   0.286   3.906   4.305  0.2718 -0.2305 -2.5875
 9223TIP3   OH249083   1.720   4.642   2.713  0.5777  0.4257 -0.3304
 9223TIP3    H149084   1.695   4.733   2.726 -1.1323 -0.2576  1.4859
 9223TIP3    H249085   1.805   4.634   2.757  0.5045  1.0403 -0.0651
 9224TIP3   OH249086   0.473   2.486  13.032  0.2920 -0.5917  0.3669
 9224TIP3    H149087   0.523   2.564  13.056  0.4663 -0.4466 -0.4506
 9224TIP3    H249088   0.382   2.512  13.044  0.3931 -0.7653  1.5855
 9225TIP3   OH249089   1.682   5.667   5.522 -0.4498 -0.1360 -0.1403
 9225TIP3    H149090   1.649   5.624   5.601  2.6293 -1.2112  0.6543
 9225TIP3    H249091   1.655   5.610   5.450  0.4360 -1.4866  0.5727
 9226TIP3   OH249092   5.604   0.370   6.550  0.0383 -0.3926  0.3644
 9226TIP3    H149093   5.556   0.342   6.473 -0.3080  0.2047  0.3657
 9226TIP3    H249094   5.641   0.289   6.586  1.5070 -0.4900 -1.2960
 9227TIP3   OH249095   0.893   6.590   6.121 -0.1319 -0.7456 -0.0368
 9227TIP3    H149096   0.849   6.565   6.201  0.4651  0.0444  0.5508
 9227TIP3    H249097   0.979   6.547   6.126  0.6752  0.8962  0.7094
 9228TIP3   OH249098   5.487   6.646   3.961  0.5253 -0.0981 -0.3499
 9228TIP3    H149099   5.511   6.646   4.054  1.3524  0.5308 -0.5565
 9228TIP3    H249100   5.417   6.581   3.954  0.6876 -0.3848  0.6562
 9229TIP3   OH249101   5.078   0.086   4.092  0.2706 -0.1213 -0.2246
 9229TIP3    H149102   5.012   0.060   4.028 -0.8017  0.1848  0.7197
 9229TIP3    H249103   5.107   0.003   4.131  1.7364 -0.3935 -1.8634
 9230TIP3   OH249104   2.314   0.335  11.571  0.1862  0.0779 -0.3561
 9230TIP3    H149105   2.262   0.325  11.490 -0.9943 -1.1493  0.5187
 9230TIP3    H249106   2.309   0.428  11.591 -2.6153 -0.1449  0.2662
 9231TIP3   OH249107   3.743   5.929   2.157  0.2763 -0.1686 -0.5099
 9231TIP3    H149108   3.789   5.907   2.076 -2.5660  0.6571 -2.3875
 9231TIP3    H249109   3.763   6.021   2.172  1.8038 -0.6279  0.4539
 9232TIP3   OH249110   0.794   0.138  11.927 -0.6526 -0.3703 -0.3964
 9232TIP3    H149111   0.806   0.059  11.979 -1.3004  0.8082  1.6048
 9232TIP3    H249112   0.870   0.140  11.869  0.5614 -1.3046  1.1114
 9233TIP3   OH249113   0.453   0.369  15.190 -0.1283  0.1231  0.3150
 9233TIP3    H149114   0.408   0.286  15.207  1.5789 -0.8261  0.3383
 9233TIP3    H249115   0.401   0.434  15.235 -0.1950 -1.2772  2.3322
 9234TIP3   OH249116   1.735   3.050  11.276 -0.8728  0.0426  0.0981
 9234TIP3    H149117   1.716   3.016  11.189 -1.5838  0.3589  0.1333
 9234TIP3    H249118   1.743   2.972  11.331  3.6548 -0.4557 -1.0195
 9235TIP3   OH249119   0.667   1.949   1.908 -0.2490 -0.2284  0.2027
 9235TIP3    H149120   0.752   1.985   1.882 -1.0721 -0.5005 -3.1229
 9235TIP3    H249121   0.655   1.874   1.850 -3.0368  0.1789  0.1916
 9236TIP3   OH249122   0.063   4.806   1.142 -0.1828  0.5469 -0.2430
 9236TIP3    H149123   0.132   4.864   1.110 -0.2490 -0.2359 -1.8601
 9236TIP3    H249124   0.003   4.863   1.190  0.2838  1.6326 -0.9335
 9237TIP3   OH249125   1.869   5.242  16.698 -0.3931  0.1617 -0.0188
 9237TIP3    H149126   1.895   5.225  16.607  0.7488 -0.4308  0.4229
 9237TIP3    H249127   1.908   5.328  16.718  0.1666 -0.1504  0.2292
 9238TIP3   OH249128   1.861   6.529   4.511  0.5726 -0.4348 -0.1361
 9238TIP3    H149129   1.784   6.488   4.474  0.0751  0.1330  0.2405
 9238TIP3    H249130   1.827   6.606   4.558  1.5097  0.6535 -1.1859
 9239TIP3   OH249131   3.324   1.981   4.385 -0.1734 -0.0293  1.0680
 9239TIP3    H149132   3.370   2.061   4.410  1.8441 -1.0302  0.5736
 9239TIP3    H249133   3.269   2.007   4.311 -1.3733  1.4406  2.4137
 9240TIP3   OH249134   6.525   5.270  11.579 -0.2986  0.2661 -0.4034
 9240TIP3    H149135   6.487   5.293  11.494 -0.2958 -0.4920 -0.6161
 9240TIP3    H249136   6.515   5.349  11.633  1.2287  1.3129 -1.6214
 9241TIP3   OH249137   1.090   0.109  11.893  0.5099  0.0487  0.2278
 9241TIP3    H149138   1.180   0.127  11.868  0.7571 -2.1831 -0.6205
 9241TIP3    H249139   1.090   0.111  11.988  1.1680  1.2453  0.2222
 9242TIP3   OH249140   1.827   2.390   1.264  0.2341  0.3043 -0.3980
 9242TIP3    H149141   1.893   2.337   1.309  0.5832 -0.7496 -2.0985
 9242TIP3    H249142   1.753   2.330   1.251 -0.9017  1.3521  1.0954
 9243TIP3   OH249143   0.868   5.148  16.244  0.1137  0.4992 -0.2348
 9243TIP3    H149144   0.804   5.213  16.212 -1.0051  0.2657  1.4733
 9243TIP3    H249145   0.923   5.197  16.304 -1.1487 -0.2598  1.5697
 9244TIP3   OH249146   5.766   1.985  16.038  0.7513  0.2602  0.4297
 9244TIP3    H149147   5.721   1.925  16.097  0.6277  1.6032  1.7283
 9244TIP3    H249148   5.775   2.066  16.088 -1.3586  2.1851 -2.1512
 9245TIP3   OH249149   6.613   0.532  17.168 -0.1815  0.1434 -0.0940
 9245TIP3    H149150   6.579   0.447  17.141 -0.5584  0.5021 -0.7652
 9245TIP3    H249151   6.561   0.556  17.244  0.1603 -0.3862  0.3050
 9246TIP3   OH249152   1.300   5.854  13.425  0.3183 -0.8260 -0.0048
 9246TIP3    H149153   1.281   5.772  13.380  0.4365 -0.3688 -0.9018
 9246TIP3    H249154   1.387   5.879  13.395  0.3013 -0.3977  0.2894
 9247TIP3   OH249155   4.077   1.229   0.348  0.0926 -0.2969  0.2787
 9247TIP3    H149156   4.046   1.139   0.355  1.1728 -0.7602 -0.7198
 9247TIP3    H249157   4.047   1.258   0.261  2.1136 -0.6261 -0.5420
 9248TIP3   OH249158   3.980   6.285   2.605 -0.7925 -0.4794 -0.7506
 9248TIP3    H149159   3.908   6.285   2.541 -1.7386  1.5544  0.2891
 9248TIP3    H249160   3.938   6.265   2.688 -0.0222 -0.0191 -0.2510
 9249TIP3   OH249161   5.069   2.441  13.095 -0.0180  0.1135 -0.3614
 9249TIP3    H149162   5.136   2.372  13.097  2.5137  2.3394 -3.1401
 9249TIP3    H249163   5.006   2.411  13.029  0.7300  0.1212 -1.0906
 9250TIP3   OH249164   0.312   0.861  13.457 -0.0677 -0.1738  0.1369
 9250TIP3    H149165   0.253   0.806  13.406  1.5059 -0.7181 -1.1438
 9250TIP3    H249166   0.301   0.831  13.547 -2.3896  0.3445  0.0533
 9251TIP3   OH249167   5.032   4.588  10.957  0.5710 -0.1958  0.5921
 9251TIP3    H149168   5.045   4.634  10.874 -0.0179  0.2146  0.7257
 9251TIP3    H249169   5.069   4.501  10.942 -1.3673 -0.8222 -0.7987
 9252TIP3   OH249170   1.240   1.377   4.512  0.2330 -0.3519  0.1399
 9252TIP3    H149171   1.286   1.457   4.487 -2.0318  0.8256 -0.4100
 9252TIP3    H249172   1.152   1.388   4.476 -0.2849 -2.8438  0.5625
 9253TIP3   OH249173   0.995   2.482   2.212 -0.0475 -0.1933 -0.3338
 9253TIP3    H149174   1.072   2.536   2.230 -0.6535  0.5492  0.0639
 9253TIP3    H249175   1.008   2.403   2.264  0.8350 -0.4155 -0.9005
 9254TIP3   OH249176   2.867   3.889   5.641 -0.0301  0.2156 -0.1199
 9254TIP3    H149177   2.812   3.967   5.643 -1.4667 -0.7308 -1.4597
 9254TIP3    H249178   2.907   3.889   5.554 -0.0950 -0.5670 -0.1548
 9255TIP3   OH249179   6.143   0.779  14.025  0.5828  0.4866  0.1451
 9255TIP3    H149180   6.182   0.721  13.960  1.7846 -1.1856  2.2681
 9255TIP3    H249181   6.050   0.756  14.025  1.0663 -1.6252  1.0787
 9256TIP3   OH249182   5.020   4.841   2.066  0.4313  0.5652 -0.3033
 9256TIP3    H149183   5.084   4.895   2.020  1.1603 -0.2873 -0.2979
 9256TIP3    H249184   5.038   4.857   2.159  1.2999 -0.4417 -0.2941
 9257TIP3   OH249185   0.031   0.813   0.167  0.4121 -0.6718  0.4069
 9257TIP3    H149186  -0.043   0.761   0.198 -1.4759  0.6100 -1.7832
 9257TIP3    H249187   0.077   0.840   0.247 -1.3433 -1.7125  1.7855
 9258TIP3   OH249188   5.505   0.563  17.153  0.0922 -0.2151  0.5740
 9258TIP3    H149189   5.495   0.643  17.101 -1.2186 -1.6637 -1.4938
 9258TIP3    H249190   5.595   0.565  17.184  0.0099  2.1755  0.7916
 9259TIP3   OH249191   5.652   5.830  15.860  0.0938  0.0398 -0.4093
 9259TIP3    H149192   5.622   5.920  15.869 -1.0841 -0.4050  0.2198
 9259TIP3    H249193   5.647   5.794  15.949  2.3640 -0.1016 -0.3083
 9260TIP3   OH249194   4.162   3.840   2.972  0.5002  0.5545 -0.4685
 9260TIP3    H149195   4.208   3.916   3.009 -0.3452  0.3538  1.0070
 9260TIP3    H249196   4.071   3.868   2.966  0.5997  0.5361 -2.3029
 9261TIP3   OH249197   1.587   2.293  11.693 -0.3053 -0.2041 -0.1491
 9261TIP3    H149198   1.605   2.204  11.662  0.3572 -0.1834  0.1680
 9261TIP3    H249199   1.607   2.349  11.619 -0.0721 -0.2665 -0.1334
 9262TIP3   OH249200   1.657   3.995  11.189 -0.0121 -0.4714 -0.3237
 9262TIP3    H149201   1.634   4.053  11.262 -0.1496  0.4229 -1.0631
 9262TIP3    H249202   1.667   4.054  11.114  3.2347 -0.9873 -0.3750
 9263TIP3   OH249203   0.264   3.152   5.982  1.5802 -0.6964 -0.4032
 9263TIP3    H149204   0.265   3.088   6.054  1.0197 -1.6728 -1.2629
 9263TIP3    H249205   0.187   3.130   5.931  1.7944  0.2126 -1.1281
 9264TIP3   OH249206   4.289   1.821   1.682  0.1087  0.0946 -0.2078
 9264TIP3    H149207   4.334   1.763   1.745  1.4971  0.9432 -0.3860
 9264TIP3    H249208   4.278   1.903   1.730 -2.8845 -0.6356  0.4374
 9265TIP3   OH249209   1.767   3.227  10.935 -0.2804  0.0651 -0.2787
 9265TIP3    H149210   1.775   3.177  10.854  1.3034  0.4640 -0.3776
 9265TIP3    H249211   1.827   3.301  10.924 -0.7087  0.6034  0.9063
 9266TIP3   OH249212   3.534   2.692  12.655 -0.1529 -0.4840 -0.3300
 9266TIP3    H149213   3.471   2.762  12.674 -0.4944 -0.6097 -0.9916
 9266TIP3    H249214   3.505   2.655  12.572  0.4309 -0.9619 -0.3264
 9267TIP3   OH249215   5.477   3.403   4.015  0.4590 -0.0652 -0.8526
 9267TIP3    H149216   5.460   3.486   4.059 -0.5612 -0.9389  0.4616
 9267TIP3    H249217   5.572   3.391   4.022  0.1570 -1.0955  2.9118
 9268TIP3   OH249218   3.116   4.392  16.200 -0.8394 -0.2031 -0.2817
 9268TIP3    H149219   3.177   4.436  16.140 -1.9929 -1.4021 -2.3887
 9268TIP3    H249220   3.170   4.364  16.274  1.0344 -0.6938 -1.8183
 9269TIP3   OH249221   1.386   4.803  14.692  0.4638  0.0847  0.6849
 9269TIP3    H149222   1.454   4.853  14.737 -1.2404  1.4773  1.7503
 9269TIP3    H249223   1.304   4.841  14.722 -0.8029 -1.4723 -0.7111
 9270TIP3   OH249224   4.758   6.649  12.633 -0.0771 -0.3291 -0.4501
 9270TIP3    H149225   4.787   6.719  12.692  0.1918 -0.6407 -0.2069
 9270TIP3    H249226   4.686   6.607  12.680  1.1279 -1.5534  0.3560
 9271TIP3   OH249227   4.554   2.391   3.430 -0.2559 -0.0143 -0.4379
 9271TIP3    H149228   4.626   2.399   3.493  0.6696  3.4281 -1.7917
 9271TIP3    H249229   4.589   2.340   3.358 -0.4199 -1.5910  0.5874
 9272TIP3   OH249230   5.591   3.028   4.392  0.4363  0.1982 -0.0337
 9272TIP3    H149231   5.654   2.955   4.385  0.0094 -0.1313 -0.4569
 9272TIP3    H249232   5.580   3.059   4.302  0.2971  0.5205  0.0945
 9273TIP3   OH249233   0.148   3.434  13.926 -0.4787  0.4012  0.6305
 9273TIP3    H149234   0.155   3.339  13.919  0.1154  0.4488  0.5842
 9273TIP3    H249235   0.112   3.461  13.841  1.5094  0.4401 -0.2180
 9274TIP3   OH249236   4.767   3.784   0.084  0.2141  0.4164  0.1702
 9274TIP3    H149237   4.826   3.754   0.014 -0.9861  0.3858 -0.8459
 9274TIP3    H249238   4.683   3.742   0.064  0.0527 -0.2323  2.0980
 9275TIP3   OH249239   4.387   3.659   0.809 -0.0509  0.5911  0.2928
 9275TIP3    H149240   4.360   3.621   0.893  1.1653 -0.3590  0.2611
 9275TIP3    H249241   4.310   3.708   0.780 -1.8476 -2.1503  0.1574
 9276TIP3   OH249242   6.136   0.664  14.878  0.0733 -0.4745 -0.0551
 9276TIP3    H149243   6.158   0.578  14.841 -0.4165  0.2612 -2.0939
 9276TIP3    H249244   6.066   0.646  14.941 -0.3986 -1.5133 -0.8617
 9277TIP3   OH249245   2.510   0.027   4.392  0.1658  0.6282  0.3284
 9277TIP3    H149246   2.502  -0.068   4.399 -1.4492  0.6872 -0.4238
 9277TIP3    H249247   2.573   0.041   4.321 -2.2406  0.0852 -2.0211
 9278TIP3   OH249248   6.515   4.991  11.870 -0.0526  0.0553 -0.4812
 9278TIP3    H149249   6.447   5.056  11.852  0.2518  0.3237 -0.6641
 9278TIP3    H249250   6.569   5.030  11.939 -0.9891 -0.8104  0.7616
 9279TIP3   OH249251   3.410   2.942   0.556 -0.6835 -0.1724  0.1837
 9279TIP3    H149252   3.437   2.995   0.630 -1.3487  0.7494 -0.2242
 9279TIP3    H249253   3.463   2.862   0.563  0.4012  0.5776  0.7413
 9280TIP3   OH249254   5.325   0.933  12.961  0.0616  1.0509  0.1515
 9280TIP3    H149255   5.246   0.979  12.991  0.7693  3.4467 -1.5591
 9280TIP3    H249256   5.321   0.939  12.866  1.0933 -0.9473 -0.0260
 9281TIP3   OH249257   1.656   3.268  12.187 -0.1425  0.4313 -0.1921
 9281TIP3    H149258   1.715   3.205  12.229 -1.1567 -0.2992  0.1555
 9281TIP3    H249259   1.684   3.353  12.222  0.1361  0.0049  0.6399
 9282TIP3   OH249260   3.524   6.305   5.303  0.4948 -0.1378 -0.5004
 9282TIP3    H149261   3.537   6.272   5.214 -0.8715  0.3714 -0.8963
 9282TIP3    H249262   3.449   6.364   5.296 -0.7937 -1.5145  1.3393
 9283TIP3   OH249263   2.513   0.679  15.962  0.7413 -0.6933 -0.2433
 9283TIP3    H149264   2.466   0.663  16.043 -0.1536 -0.6913 -0.7585
 9283TIP3    H249265   2.460   0.637  15.894 -0.0411  1.7922 -1.2135
 9284TIP3   OH249266   3.924   5.840  11.893  0.0328 -0.2188  0.1599
 9284TIP3    H149267   4.016   5.831  11.916  0.1792 -0.3513 -0.4798
 9284TIP3    H249268   3.905   5.764  11.838 -0.1009  0.5091 -0.8179
 9285TIP3   OH249269   0.833   1.094  15.851  0.9930 -0.6016  0.2764
 9285TIP3    H149270   0.916   1.089  15.803  1.1750 -0.9716  0.6261
 9285TIP3    H249271   0.785   1.165  15.809  1.4220 -0.4935 -0.0317
 9286TIP3   OH249272   3.361   3.346  14.200 -0.6710  0.5067 -0.5326
 9286TIP3    H149273   3.351   3.435  14.235 -2.4982  0.0308  0.2283
 9286TIP3    H249274   3.440   3.350  14.146 -0.3346  2.4123  0.0579
 9287TIP3   OH249275   0.417   4.191   2.210 -0.0173 -0.1227 -0.9953
 9287TIP3    H149276   0.464   4.215   2.290 -1.2691 -0.3756 -0.1757
 9287TIP3    H249277   0.486   4.168   2.148  0.9401 -0.6437  0.2399
 9288TIP3   OH249278   3.937   3.933   5.060 -0.6975  0.1725  0.2080
 9288TIP3    H149279   3.881   3.857   5.042  0.5692 -0.5703 -0.6341
 9288TIP3    H249280   3.953   3.928   5.154  0.5428 -1.4368 -0.0627
 9289TIP3   OH249281   0.201   3.454  17.148  0.3309 -0.0377  0.2376
 9289TIP3    H149282   0.134   3.386  17.139 -0.2784  0.3957  1.3508
 9289TIP3    H249283   0.243   3.458  17.062 -0.6285 -0.7794 -0.2783
 9290TIP3   OH249284   3.065   1.776   1.707  0.2610 -0.2859 -0.7589
 9290TIP3    H149285   3.091   1.684   1.709 -0.0294 -0.3573 -0.1430
 9290TIP3    H249286   3.042   1.797   1.798  0.7600  0.5222 -0.8134
 9291TIP3   OH249287   2.404   0.907   4.164  0.1101  0.0701 -0.3018
 9291TIP3    H149288   2.433   0.887   4.075  2.9828  0.8328  0.3927
 9291TIP3    H249289   2.416   0.825   4.211 -3.1531 -0.8489 -0.9882
 9292TIP3   OH249290   6.058   5.687   4.353 -0.2417  0.0845 -0.6120
 9292TIP3    H149291   6.134   5.658   4.302 -1.7269 -1.6513 -1.8692
 9292TIP3    H249292   6.078   5.660   4.442  0.9337  0.2552 -0.8159
 9293TIP3   OH249293   6.271   2.013   1.819  0.2414  0.1261  0.0573
 9293TIP3    H149294   6.206   2.012   1.749  0.0500 -0.7846  0.2431
 9293TIP3    H249295   6.219   2.020   1.899  0.5260  3.1708  0.0506
 9294TIP3   OH249296   5.038   4.664   2.511  0.2040 -0.0627  0.2289
 9294TIP3    H149297   4.986   4.625   2.440 -2.1995  0.2062  1.7838
 9294TIP3    H249298   5.099   4.595   2.537  0.5136 -0.4570 -1.5029
 9295TIP3   OH249299   6.099   1.194   6.302  0.5074 -0.0475 -0.4910
 9295TIP3    H149300   6.068   1.198   6.211  0.2387 -0.7936 -0.4319
 9295TIP3    H249301   6.185   1.236   6.299 -0.0690  1.1428 -0.8385
 9296TIP3   OH249302   4.644   4.485  11.957 -0.3532  0.2556 -0.2879
 9296TIP3    H149303   4.587   4.560  11.936  0.0817  0.4090 -0.9262
 9296TIP3    H249304   4.583   4.416  11.982 -0.8227  0.4594 -0.8475
 9297TIP3   OH249305   5.546   1.730   0.396  0.0931  0.1977 -0.3844
 9297TIP3    H149306   5.546   1.733   0.300 -0.7466  1.4446 -0.3539
 9297TIP3    H249307   5.563   1.820   0.423 -0.6408  0.0359  0.6305
 9298TIP3   OH249308   3.575   0.011   2.796 -0.3654  0.0517  0.1713
 9298TIP3    H149309   3.539   0.037   2.881 -2.2970 -1.4327 -0.1360
 9298TIP3    H249310   3.569  -0.085   2.796  0.4041 -0.0184 -1.2942
 9299TIP3   OH249311   6.046   1.263   4.560 -0.5110  0.4638 -0.1832
 9299TIP3    H149312   6.046   1.341   4.616  1.2455  0.5262 -0.2498
 9299TIP3    H249313   6.029   1.297   4.472 -0.0882  0.7372 -0.1614
 9300TIP3   OH249314   3.063   6.357  14.542 -0.1309  0.4913  0.4746
 9300TIP3    H149315   2.980   6.405  14.545  1.1069  3.2313 -3.8710
 9300TIP3    H249316   3.072   6.332  14.450  2.2391 -2.8755  1.5303
 9301TIP3   OH249317   4.626   0.931   5.356  0.1098  0.6874  0.3854
 9301TIP3    H149318   4.673   0.852   5.381  0.2990 -0.2772 -2.8950
 9301TIP3    H249319   4.534   0.905   5.357  0.2671 -0.1280 -2.3689
 9302TIP3   OH249320   1.576   1.839  11.262  1.2197 -0.4684 -0.8618
 9302TIP3    H149321   1.608   1.902  11.197  0.7429 -0.7777 -1.4041
 9302TIP3    H249322   1.484   1.861  11.275  1.5017  0.0646  0.2767
 9303TIP3   OH249323   4.298   2.612   4.892 -1.1638 -0.3755  0.2794
 9303TIP3    H149324   4.221   2.616   4.948 -1.5708  0.7020 -0.3470
 9303TIP3    H249325   4.327   2.703   4.885  0.7761 -0.8838  1.3461
 9304TIP3   OH249326   4.534   0.024  13.005 -0.5236 -0.1574  0.2773
 9304TIP3    H149327   4.554   0.064  12.921  1.2819  3.4067  2.2376
 9304TIP3    H249328   4.439   0.022  13.009 -0.6796  2.9738 -0.4544
 9305TIP3   OH249329   4.283   0.511   6.019 -0.0188  0.2265  0.2315
 9305TIP3    H149330   4.216   0.577   6.001 -0.3269 -0.5766 -1.6236
 9305TIP3    H249331   4.365   0.550   5.989 -0.0338  0.1802  0.1310
 9306TIP3   OH249332   1.219   1.738  13.630  0.5119 -0.0946  0.4864
 9306TIP3    H149333   1.136   1.689  13.630 -0.0839  0.9120  1.0965
 9306TIP3    H249334   1.218   1.787  13.547  1.1601 -1.1710 -0.1779
 9307TIP3   OH249335   3.445   1.973   0.990  0.3435  0.2460  0.2755
 9307TIP3    H149336   3.444   2.036   0.918 -1.1198 -1.5380 -1.2949
 9307TIP3    H249337   3.537   1.949   0.999  0.3911 -0.3644 -1.7540
 9308TIP3   OH249338   1.463   2.863  15.848  0.4109 -0.1981 -0.1610
 9308TIP3    H149339   1.546   2.866  15.800  0.3711  1.2713 -0.1508
 9308TIP3    H249340   1.476   2.924  15.921 -1.3974  1.6004 -1.3081
 9309TIP3   OH249341   0.619   0.412  14.954 -0.3657  0.1550 -0.1979
 9309TIP3    H149342   0.542   0.421  14.898 -1.2301 -1.0092  0.8003
 9309TIP3    H249343   0.585   0.382  15.038  1.2540 -1.1104  0.0231
 9310TIP3   OH249344   2.296   5.315   6.037  0.1329  0.1009 -0.2494
 9310TIP3    H149345   2.348   5.305   5.957 -0.9469  0.5150 -1.0096
 9310TIP3    H249346   2.337   5.389   6.083  0.2678  0.3650 -0.7957
 9311TIP3   OH249347   0.686   0.210  16.761  0.4597  0.2806  0.2440
 9311TIP3    H149348   0.603   0.249  16.790 -1.2434 -1.5710 -1.9390
 9311TIP3    H249349   0.699   0.135  16.819 -0.9752 -1.1882 -1.3000
 9312TIP3   OH249350   2.259   2.340   4.878 -0.6528 -0.3393 -0.9904
 9312TIP3    H149351   2.192   2.392   4.922 -0.7680  0.7157 -2.3538
 9312TIP3    H249352   2.219   2.315   4.794  0.2489 -0.6414 -1.3443
 9313TIP3   OH249353   4.459   6.291  12.674 -0.2584 -0.0186  0.4327
 9313TIP3    H149354   4.407   6.283  12.594  0.8429  0.6884 -0.3724
 9313TIP3    H249355   4.414   6.236  12.737 -2.3529  1.0863 -0.0520
 9314TIP3   OH249356   6.266   6.474   4.661  0.6166  0.0190 -0.1136
 9314TIP3    H149357   6.222   6.474   4.576  0.6020 -2.5992 -0.1416
 9314TIP3    H249358   6.197   6.495   4.724  0.4044  0.9003 -0.6248
 9315TIP3   OH249359   0.178   6.351  16.209  0.2496  0.4035  0.1301
 9315TIP3    H149360   0.137   6.370  16.293 -1.7267  0.2978 -0.7835
 9315TIP3    H249361   0.105   6.345  16.147  1.6065 -0.2911 -1.4534
 9316TIP3   OH249362   5.168   3.166   2.154 -0.0544 -0.0562 -0.4602
 9316TIP3    H149363   5.247   3.111   2.154  1.1233  1.5792  0.8869
 9316TIP3    H249364   5.173   3.216   2.073  1.1750  1.2195  0.3739
 9317TIP3   OH249365   1.491   0.340   4.550  0.0971 -0.1428 -0.3360
 9317TIP3    H149366   1.426   0.402   4.583 -1.9281 -1.0688 -2.4899
 9317TIP3    H249367   1.569   0.393   4.532 -1.2193  1.5584 -1.0148
 9318TIP3   OH249368   0.303   6.097  12.860 -0.0269  0.4796  0.5014
 9318TIP3    H149369   0.367   6.026  12.854 -1.3897 -0.6267 -1.6721
 9318TIP3    H249370   0.228   6.057  12.905  0.4451  1.5175  2.2588
 9319TIP3   OH249371   1.339   1.882  12.109 -0.2154 -0.0359 -0.5037
 9319TIP3    H149372   1.296   1.866  12.192  0.5657 -1.4574 -0.3613
 9319TIP3    H249373   1.428   1.849  12.121 -0.2177 -0.6641 -2.0332
 9320TIP3   OH249374   2.963   3.485   6.363  0.1978 -0.6597  0.3761
 9320TIP3    H149375   3.009   3.410   6.401 -0.6909 -1.3988  0.0100
 9320TIP3    H249376   2.871   3.466   6.378 -0.0629  0.0393 -0.3351
 9321TIP3   OH249377   1.169   1.329  11.729 -0.4160  0.1022 -0.4993
 9321TIP3    H149378   1.189   1.251  11.678 -0.4912 -1.2785  1.5264
 9321TIP3    H249379   1.080   1.316  11.760 -0.4981  1.0796 -0.3152
 9322TIP3   OH249380   5.211   6.096   5.369  0.3538 -1.0078  0.6867
 9322TIP3    H149381   5.169   6.033   5.311  0.6914  0.3068 -1.0399
 9322TIP3    H249382   5.156   6.097   5.447 -3.3751  1.2117 -1.7928
 9323TIP3   OH249383   4.343   0.695   5.095 -0.3142 -0.1409  0.2223
 9323TIP3    H149384   4.416   0.655   5.047 -0.6381 -1.2067  0.5905
 9323TIP3    H249385   4.306   0.758   5.033  0.3057 -0.3015 -0.3294
 9324TIP3   OH249386   0.205   0.484  15.015 -0.6262 -0.3571  0.0616
 9324TIP3    H149387   0.283   0.518  14.970 -1.7065  2.1120 -0.0380
 9324TIP3    H249388   0.146   0.457  14.945 -0.0011 -1.9263  0.1316
 9325TIP3   OH249389   2.105   4.738  16.763 -0.3181 -0.1449 -0.1474
 9325TIP3    H149390   2.141   4.670  16.820 -0.3187 -0.0859 -0.0789
 9325TIP3    H249391   2.010   4.730  16.773 -0.2761  0.9876  1.1516
 9326TIP3   OH249392   1.276   3.565  16.819 -0.8159  0.2807 -0.6129
 9326TIP3    H149393   1.346   3.524  16.770  0.3110  0.6434  0.6515
 9326TIP3    H249394   1.216   3.599  16.753 -0.1970 -0.7069 -1.6919
 9327TIP3   OH249395   1.261   5.291  12.461  0.6004 -0.4327 -0.3525
 9327TIP3    H149396   1.339   5.305  12.408  0.6838 -0.4998 -0.2476
 9327TIP3    H249397   1.246   5.375  12.505 -0.2701  0.0531 -1.5555
 9328TIP3   OH249398   5.952   1.573   5.800 -0.1117 -0.1158  0.2577
 9328TIP3    H149399   6.009   1.514   5.750 -0.4715 -0.9332  0.7994
 9328TIP3    H249400   6.004   1.600   5.875 -0.6330 -1.3654  1.0923
 9329TIP3   OH249401   0.681   3.364  14.883 -0.2173  0.0204  0.3023
 9329TIP3    H149402   0.643   3.391  14.799  0.5726  0.0479 -0.0479
 9329TIP3    H249403   0.652   3.273  14.894  1.4289 -0.6979 -1.0413
 9330TIP3   OH249404   2.838   0.550   3.433  0.2010 -0.2008 -0.1006
 9330TIP3    H149405   2.757   0.553   3.484  1.2421 -3.1604  1.8059
 9330TIP3    H249406   2.887   0.627   3.463 -0.0273 -0.8400  2.0161
 9331TIP3   OH249407   0.742   4.018   2.799 -0.7286 -0.0658 -0.1874
 9331TIP3    H149408   0.671   3.968   2.759 -0.3741 -0.0143 -0.8790
 9331TIP3    H249409   0.720   4.109   2.782  0.2139 -0.0975 -1.6043
 9332TIP3   OH249410   4.288   3.827   1.412  0.0955  0.4259  0.2242
 9332TIP3    H149411   4.290   3.912   1.456 -0.7044 -0.3491  1.8116
 9332TIP3    H249412   4.210   3.783   1.448  1.8994 -1.9652  1.3535
 9333TIP3   OH249413   1.768   0.687  15.328 -0.3549  0.4053 -0.2368
 9333TIP3    H149414   1.713   0.626  15.279  0.8326 -0.2895 -0.7226
 9333TIP3    H249415   1.739   0.678  15.419  0.5056 -1.6365 -0.1596
 9334TIP3   OH249416   4.323   3.917  12.806 -0.5122 -0.4205  0.2249
 9334TIP3    H149417   4.246   3.894  12.754 -0.6702  2.1866 -0.7955
 9334TIP3    H249418   4.348   4.004  12.774  0.8687  0.1926  2.8436
 9335TIP3   OH249419   5.752   3.023  16.404 -0.5460  0.2202 -0.2345
 9335TIP3    H149420   5.798   2.965  16.343  0.5349  1.7441 -0.9242
 9335TIP3    H249421   5.713   2.965  16.468 -0.1344 -1.3150 -1.3387
 9336TIP3   OH249422   6.074   6.499   2.814  0.2174  0.2515 -0.0997
 9336TIP3    H149423   6.154   6.541   2.782 -0.3072  0.8091 -0.7152
 9336TIP3    H249424   6.074   6.412   2.773  0.1417  0.5248 -0.6821
 9337TIP3   OH249425   4.416   0.374  15.707 -0.7837 -0.3977  0.4427
 9337TIP3    H149426   4.454   0.290  15.732 -0.9464 -0.4596  0.4826
 9337TIP3    H249427   4.353   0.394  15.776  1.3975  1.1995  2.0050
 9338TIP3   OH249428   3.073   1.838   4.733 -0.5081 -0.4239  0.0935
 9338TIP3    H149429   3.127   1.773   4.778  1.1009  0.2192 -0.8507
 9338TIP3    H249430   3.047   1.794   4.652 -1.3919 -0.7249  0.5385
 9339TIP3   OH249431   5.429   2.602   0.292  0.2701  0.0462 -0.4260
 9339TIP3    H149432   5.367   2.531   0.311 -1.4701  1.0447 -2.1201
 9339TIP3    H249433   5.391   2.646   0.216  1.3139  2.7997  0.6008
 9340TIP3   OH249434   2.352   4.815  17.184 -0.0975  0.0639 -0.2273
 9340TIP3    H149435   2.437   4.790  17.222 -0.1938  0.3708  0.1944
 9340TIP3    H249436   2.372   4.839  17.094  0.5549  1.8556  0.3787
 9341TIP3   OH249437   2.310   2.746  12.932 -0.1788 -0.1922 -0.7850
 9341TIP3    H149438   2.215   2.745  12.946 -0.0705 -2.2527 -0.0380
 9341TIP3    H249439   2.347   2.742  13.020  0.6272  1.3179 -1.0417
 9342TIP3   OH249440   1.258   2.062  15.898 -0.4427  0.1030 -0.7315
 9342TIP3    H149441   1.305   2.136  15.938 -1.1265  0.6315 -0.8854
 9342TIP3    H249442   1.323   2.020  15.841  0.3581 -0.2789  0.4502
 9343TIP3   OH249443   5.955   1.358   5.522  0.3838  0.1993 -0.1372
 9343TIP3    H149444   5.979   1.382   5.433 -0.3856 -2.4336 -1.1268
 9343TIP3    H249445   6.031   1.382   5.575  1.6686 -0.0181 -1.8349
 9344TIP3   OH249446   2.127   6.101   3.841 -0.0641 -0.1988  0.0387
 9344TIP3    H149447   2.127   6.088   3.935 -0.6275 -0.5050  0.0013
 9344TIP3    H249448   2.065   6.036   3.808 -0.2046  0.1987 -0.4957
 9345TIP3   OH249449   1.384   6.456  12.959 -0.3400  0.0675 -0.0306
 9345TIP3    H149450   1.335   6.383  12.997  1.8980 -0.6521  1.5731
 9345TIP3    H249451   1.454   6.414  12.909  1.8638  1.1165  2.1340
 9346TIP3   OH249452   6.132   3.919  15.401 -0.1859  0.0970 -0.1178
 9346TIP3    H149453   6.208   3.978  15.396  0.1724 -0.1953  1.5117
 9346TIP3    H249454   6.074   3.950  15.332 -0.2752  2.7958  1.0655
 9347TIP3   OH249455   5.421   2.383  15.075 -0.5649 -0.2885 -0.0224
 9347TIP3    H149456   5.411   2.366  14.982 -1.1896  0.0523 -0.0242
 9347TIP3    H249457   5.351   2.445  15.095 -0.4504 -0.3826  0.6788
 9348TIP3   OH249458   1.741   5.904   0.113  0.1177  0.4944 -0.1202
 9348TIP3    H149459   1.783   5.879   0.195  0.6526  0.1500 -0.4946
 9348TIP3    H249460   1.754   5.999   0.107 -1.6857  0.8393  1.1745
 9349TIP3   OH249461   6.518   5.881  16.792 -0.1487 -0.0674 -0.1427
 9349TIP3    H149462   6.429   5.851  16.811 -0.0981  0.4057  0.8892
 9349TIP3    H249463   6.570   5.800  16.790 -0.7377 -0.4163 -1.5599
 9350TIP3   OH249464   6.632   2.134  13.727 -0.2110  0.0928  0.0246
 9350TIP3    H149465   6.572   2.063  13.747 -0.8280  0.7710  0.5893
 9350TIP3    H249466   6.715   2.107  13.767 -0.8894  0.4821  1.7367
 9351TIP3   OH249467   4.905   0.242  16.048 -0.5973  0.4320 -0.4365
 9351TIP3    H149468   4.977   0.222  15.987  0.9599 -1.1022  1.8205
 9351TIP3    H249469   4.858   0.159  16.056 -0.2165  0.3591  1.1508
 9352TIP3   OH249470   0.045   3.953  12.686 -0.2340 -0.1001 -0.2149
 9352TIP3    H149471   0.133   3.975  12.656  1.2993 -1.2597  3.2055
 9352TIP3    H249472   0.023   3.872  12.640  1.3701 -0.9463  0.4727
 9353TIP3   OH249473   6.065   2.805  16.619  0.1718  0.0785 -0.5239
 9353TIP3    H149474   6.003   2.878  16.613 -0.1700 -0.2333 -0.7885
 9353TIP3    H249475   6.017   2.736  16.665  0.2023 -0.2938 -1.0491
 9354TIP3   OH249476   2.879   3.067  13.778 -0.5629 -0.3280 -0.1499
 9354TIP3    H149477   2.950   3.131  13.787 -1.2646  0.3916  0.4441
 9354TIP3    H249478   2.863   3.062  13.684 -0.9938  0.9567 -0.1673
 9355TIP3   OH249479   5.216   4.728   0.954  0.1059 -0.1415  0.4083
 9355TIP3    H149480   5.309   4.703   0.955  0.3751  0.8099  0.1741
 9355TIP3    H249481   5.214   4.810   0.904 -1.4373 -2.2916 -3.2298
 9356TIP3   OH249482   2.702   6.285  15.453 -0.1478 -0.3867  0.4371
 9356TIP3    H149483   2.723   6.305  15.362 -1.6289  2.0447  0.5986
 9356TIP3    H249484   2.611   6.256  15.451  0.0287 -0.9778  1.0470
 9357TIP3   OH249485   4.442   2.487  15.066  0.3805  0.1294  0.4176
 9357TIP3    H149486   4.423   2.565  15.015 -2.2366 -0.9499 -0.3093
 9357TIP3    H249487   4.421   2.511  15.156 -0.1496  0.3478  0.2353
 9358TIP3   OH249488   1.029   4.381  15.991  0.0302  0.3455 -0.0823
 9358TIP3    H149489   1.110   4.431  15.979  0.8221 -0.4307  1.7836
 9358TIP3    H249490   1.051   4.317  16.059 -1.9799 -0.2687  0.0018
 9359TIP3   OH249491   6.014   6.457  10.116 -0.3514 -0.1451 -0.3548
 9359TIP3    H149492   5.933   6.430  10.159 -1.5487  1.1787 -1.7273
 9359TIP3    H249493   6.027   6.393  10.046 -1.4478  0.9436 -1.5678
 9360TIP3   OH249494   4.002   5.630  14.880  0.3992  0.0508  0.1988
 9360TIP3    H149495   3.996   5.686  14.803 -0.3614  0.4109  0.5140
 9360TIP3    H249496   3.962   5.547  14.853 -0.2320  0.3109  0.3281
 9361TIP3   OH249497   2.162   1.590   3.285  0.0709 -0.5680  0.0022
 9361TIP3    H149498   2.184   1.499   3.264 -1.5216 -0.4377 -2.4986
 9361TIP3    H249499   2.239   1.640   3.258  1.3438 -1.2238  2.2835
 9362TIP3   OH249500   5.362   4.695  12.055 -0.4959 -0.2920 -0.0983
 9362TIP3    H149501   5.443   4.700  12.106 -0.7314 -3.2218  0.6494
 9362TIP3    H249502   5.374   4.759  11.986  1.5758  0.8383  1.2288
 9363TIP3   OH249503   2.329   5.908   6.021 -0.2959  0.0456 -0.4429
 9363TIP3    H149504   2.418   5.943   6.020 -0.3864  0.2627 -0.9331
 9363TIP3    H249505   2.328   5.847   6.095  0.4682 -0.4939 -0.8697
 9364TIP3   OH249506   4.317   4.411  12.268  0.4610  0.5716 -0.1363
 9364TIP3    H149507   4.337   4.465  12.345 -1.1981 -0.1421  0.8078
 9364TIP3    H249508   4.344   4.323  12.293 -0.9291  0.1683 -0.0140
 9365TIP3   OH249509   6.284   6.274   5.814 -0.1621 -0.6777 -0.4088
 9365TIP3    H149510   6.298   6.237   5.727 -0.0504  1.2263 -1.2267
 9365TIP3    H249511   6.362   6.326   5.831 -1.6282  1.6726 -0.6226
 9366TIP3   OH249512   1.366   1.626  13.247 -0.6180  0.5970  0.3876
 9366TIP3    H149513   1.459   1.638  13.227 -0.5816  1.9783  1.3434
 9366TIP3    H249514   1.365   1.591  13.336 -1.0373  1.5389  0.7630
 9367TIP3   OH249515   4.793   1.701  14.448  0.2691  0.2126 -0.1050
 9367TIP3    H149516   4.724   1.663  14.502  1.9085 -2.4888  0.1868
 9367TIP3    H249517   4.784   1.657  14.363  0.7270  0.8876 -0.5067
 9368TIP3   OH249518   5.107   1.239  16.583  0.0634 -0.2579 -0.2498
 9368TIP3    H149519   5.137   1.330  16.595  1.1630 -0.6237 -0.1997
 9368TIP3    H249520   5.183   1.193  16.547 -0.3644 -1.2575  0.1089
 9369TIP3   OH249521   4.313   3.072  13.496 -0.1634  0.2145  0.1514
 9369TIP3    H149522   4.291   3.048  13.406 -1.2309  0.5975  0.3083
 9369TIP3    H249523   4.375   3.145  13.487 -0.7923  0.6961 -0.2551
 9370TIP3   OH249524   4.150   2.112   5.021  0.0282 -1.0334 -0.6330
 9370TIP3    H149525   4.176   2.062   4.944 -1.1532 -0.7313 -1.2366
 9370TIP3    H249526   4.104   2.050   5.077 -1.0397 -0.7247 -1.1736
 9371TIP3   OH249527   3.445   3.171  12.839  0.0318 -0.3014  0.1887
 9371TIP3    H149528   3.483   3.257  12.859  1.4225 -0.7031 -0.6109
 9371TIP3    H249529   3.495   3.109  12.892 -0.0422 -0.7532 -0.2561
 9372TIP3   OH249530   1.318   4.344  13.919  0.1855 -0.5436 -0.0247
 9372TIP3    H149531   1.315   4.437  13.943  1.0324 -0.3671 -0.5595
 9372TIP3    H249532   1.230   4.312  13.935 -0.1358  0.3823  0.0884
 9373TIP3   OH249533   5.089   1.714   1.502 -1.2091  0.3201 -0.5175
 9373TIP3    H149534   5.125   1.773   1.569  0.0510  0.1160 -1.0144
 9373TIP3    H249535   5.087   1.767   1.423 -0.3454 -0.2202 -0.8990
 9374TIP3   OH249536   3.402   2.311   3.441 -0.2617  0.0876 -0.0229
 9374TIP3    H149537   3.471   2.246   3.430  0.6316  1.0630 -0.1781
 9374TIP3    H249538   3.374   2.332   3.351 -0.6431 -0.1687  0.0317
 9375TIP3   OH249539   3.973   2.555  14.447 -0.5856  0.0521  0.3105
 9375TIP3    H149540   3.925   2.575  14.367  1.2061  1.1719 -0.5104
 9375TIP3    H249541   4.054   2.514  14.417 -0.6752 -1.1599  1.6449
 9376TIP3   OH249542   1.916   3.455  12.213 -0.1879  0.4734  0.2204
 9376TIP3    H149543   1.931   3.488  12.301 -0.1845 -0.4736  0.5688
 9376TIP3    H249544   1.995   3.406  12.191 -0.8796 -0.7010  0.3321
 9377TIP3   OH249545   6.375   6.784   4.368  0.0656 -0.1173 -0.3463
 9377TIP3    H149546   6.379   6.689   4.366  1.0855 -0.1802  2.4098
 9377TIP3    H249547   6.463   6.811   4.394 -0.8273  1.4642  1.1318
 9378TIP3   OH249548   2.693   3.808  15.003 -0.9195  0.4640 -0.0721
 9378TIP3    H149549   2.768   3.820  14.945 -0.1432 -0.2614  0.7595
 9378TIP3    H249550   2.647   3.892  15.001  0.2321  1.0982 -0.1644
 9379TIP3   OH249551   0.691   1.599   2.587  0.2205  0.3521  0.1402
 9379TIP3    H149552   0.653   1.684   2.567  1.2184  0.2508 -2.2876
 9379TIP3    H249553   0.684   1.549   2.506  1.4394 -1.1956  0.9539
 9380TIP3   OH249554   0.784   3.221  15.113 -0.1015 -0.5456 -0.0200
 9380TIP3    H149555   0.852   3.155  15.129  1.0553  0.9006  1.1256
 9380TIP3    H249556   0.826   3.286  15.057 -0.9267 -0.2399 -0.2994
 9381TIP3   OH249557   4.972   2.321   0.933  0.2202 -0.4279  0.0850
 9381TIP3    H149558   5.033   2.330   0.860 -0.2923 -0.2829 -0.3313
 9381TIP3    H249559   4.940   2.410   0.948 -1.0758 -0.7286 -0.7405
 9382TIP3   OH249560   4.654   2.721   0.625  0.1841 -0.6749  0.1463
 9382TIP3    H149561   4.654   2.771   0.544 -1.8964  0.4981  0.8489
 9382TIP3    H249562   4.736   2.746   0.668  0.0208  0.7545 -0.3487
 9383TIP3   OH249563   4.380   5.314  13.161 -0.0387  0.6430  0.1794
 9383TIP3    H149564   4.343   5.356  13.083  0.4804  0.1144 -0.3565
 9383TIP3    H249565   4.349   5.223  13.157  1.2892  0.2012 -0.2658
 9384TIP3   OH249566   4.290   6.247  11.934 -0.0159  0.2315  0.2103
 9384TIP3    H149567   4.211   6.288  11.969  1.1875  1.6779  1.2892
 9384TIP3    H249568   4.306   6.293  11.851 -1.3925 -1.4049 -0.9856
 9385TIP3   OH249569   4.713   6.710   4.696  0.3491  0.0976 -0.3216
 9385TIP3    H149570   4.729   6.618   4.674 -0.4128 -0.5459  1.6760
 9385TIP3    H249571   4.636   6.734   4.645 -0.7033 -1.0258  0.7034
 9386TIP3   OH249572   1.222   0.711   1.102  0.5534 -0.0630 -0.1045
 9386TIP3    H149573   1.128   0.719   1.085  0.4007  3.8709  2.0538
 9386TIP3    H249574   1.234   0.619   1.128 -2.8738 -0.3813  0.5874
 9387TIP3   OH249575   0.725   2.764  16.971 -0.4295  0.1483  0.1524
 9387TIP3    H149576   0.816   2.784  16.949 -0.7734  1.8517  0.1906
 9387TIP3    H249577   0.727   2.739  17.063  0.5155 -3.5599 -0.8001
 9388TIP3   OH249578   0.310   2.214   2.256 -0.1007  0.0511 -0.1343
 9388TIP3    H149579   0.401   2.211   2.224  0.0457  1.0116  0.1664
 9388TIP3    H249580   0.280   2.302   2.232 -0.3788  0.3604  1.3314
 9389TIP3   OH249581   5.432   0.493  14.642 -0.1851  0.6589  0.4927
 9389TIP3    H149582   5.385   0.454  14.716 -0.3782 -0.2812 -0.1232
 9389TIP3    H249583   5.524   0.494  14.669  0.1068 -2.1544 -0.3186
 9390TIP3   OH249584   6.242   3.271   1.553  0.1538  0.1764 -0.5432
 9390TIP3    H149585   6.158   3.273   1.507 -0.2595 -0.0107  0.1830
 9390TIP3    H249586   6.221   3.232   1.638  0.8452  0.7645 -0.0977
 9391TIP3   OH249587   2.870   0.283   4.409  0.0281  0.2651 -0.7063
 9391TIP3    H149588   2.845   0.198   4.445  0.1017  0.4182 -0.2965
 9391TIP3    H249589   2.866   0.343   4.483 -2.2999  1.0982 -1.4616
 9392TIP3   OH249590   5.227   3.795   3.664 -0.5059  0.0079 -0.2399
 9392TIP3    H149591   5.163   3.796   3.735  0.7353 -0.8561  0.9052
 9392TIP3    H249592   5.225   3.705   3.631 -0.3841  0.1603 -0.6698
 9393TIP3   OH249593   6.063   2.530  14.489 -0.9801  0.1815  0.1799
 9393TIP3    H149594   6.139   2.484  14.525 -0.9796  0.7703  0.9352
 9393TIP3    H249595   5.993   2.513  14.552 -1.0080  1.1213  0.4077
 9394TIP3   OH249596   6.361   6.474  10.854 -0.5511  0.0060 -0.2230
 9394TIP3    H149597   6.417   6.413  10.806 -2.0642 -0.9573 -0.7824
 9394TIP3    H249598   6.316   6.523  10.785 -1.9797 -0.6905  0.2069
 9395TIP3   OH249599   0.725   5.883   3.858  0.2001 -0.3393 -0.4953
 9395TIP3    H149600   0.676   5.965   3.865 -0.2012 -0.6329  0.1653
 9395TIP3    H249601   0.679   5.822   3.917  1.3290 -0.6412  0.0801
 9396TIP3   OH249602   2.913   4.338  16.037  0.4256 -0.1493 -0.6756
 9396TIP3    H149603   2.954   4.408  15.988  0.1738  1.1057  0.8797
 9396TIP3    H249604   2.972   4.322  16.111 -1.5974  1.3561  1.3179
 9397TIP3   OH249605   6.362   1.335   3.258  0.4383 -0.0794 -0.4659
 9397TIP3    H149606   6.267   1.342   3.253  0.4014 -0.3556 -0.1452
 9397TIP3    H249607   6.382   1.256   3.208  0.2271 -1.8044  2.0856
 9398TIP3   OH249608   6.714   0.391   3.429 -0.0577 -0.2479  0.1541
 9398TIP3    H149609   6.713   0.395   3.334 -0.1509 -0.2077  0.1566
 9398TIP3    H249610   6.729   0.482   3.457  0.7080 -0.3813  0.1666
 9399TIP3   OH249611   5.737   1.529   3.853  0.1495 -0.1801 -0.0566
 9399TIP3    H149612   5.719   1.600   3.791 -0.5898 -0.1301  0.2010
 9399TIP3    H249613   5.780   1.462   3.802 -2.6151 -1.1655 -1.2003
 9400TIP3   OH249614   3.159   1.484  13.667  0.0391  0.1680 -0.2520
 9400TIP3    H149615   3.172   1.408  13.610  0.4190 -0.4349  0.6267
 9400TIP3    H249616   3.064   1.499  13.666 -0.2025 -1.1646  0.6239
 9401TIP3   OH249617   3.155   3.799   2.331  0.0526 -0.0141 -0.7560
 9401TIP3    H149618   3.231   3.773   2.382 -0.7408 -1.0528 -0.0663
 9401TIP3    H249619   3.114   3.869   2.382 -1.7431 -2.2605  1.0149
 9402TIP3   OH249620   1.018   0.548   5.105  0.3824 -0.4064  0.0809
 9402TIP3    H149621   0.999   0.455   5.096  0.6065 -0.5590  1.1400
 9402TIP3    H249622   0.978   0.588   5.028 -2.6289 -0.9499  1.3094
 9403TIP3   OH249623   3.941   1.413  14.323  0.5861  0.4917  0.5686
 9403TIP3    H149624   3.985   1.482  14.274  1.4063 -0.5296 -0.1528
 9403TIP3    H249625   3.849   1.440  14.325  1.0049  1.9092  0.8356
 9404TIP3   OH249626   2.944   3.537  12.508  0.3413  0.0985  0.0755
 9404TIP3    H149627   2.989   3.473  12.453 -0.3374  0.6774 -1.1699
 9404TIP3    H249628   2.861   3.553  12.464 -0.3697  0.3265  1.4511
 9405TIP3   OH249629   2.100   4.552   5.936  0.1652 -0.0343 -0.1264
 9405TIP3    H149630   2.097   4.575   5.843  0.6586  0.4019 -0.0337
 9405TIP3    H249631   2.094   4.456   5.936  0.5081 -0.0615 -0.6273
 9406TIP3   OH249632   2.591   3.829  15.607 -0.3673  0.5137 -0.1854
 9406TIP3    H149633   2.517   3.781  15.572 -0.3843 -0.1467  0.7258
 9406TIP3    H249634   2.562   3.859  15.693  1.0404 -1.3579  0.9889
 9407TIP3   OH249635   0.669   1.034  12.944 -0.3451  0.0220  0.0913
 9407TIP3    H149636   0.621   1.040  13.027 -0.0161  2.8643  0.1209
 9407TIP3    H249637   0.606   1.059  12.877 -0.2820 -1.1330 -0.4067
 9408TIP3   OH249638   5.518   5.910  13.980 -0.1556 -0.2972 -0.7365
 9408TIP3    H149639   5.604   5.950  13.974 -0.5892  0.5176 -1.6945
 9408TIP3    H249640   5.476   5.953  14.055 -0.4784  0.7804 -1.5255
 9409TIP3   OH249641   1.606   0.685   4.728 -0.4986  0.0569 -0.5742
 9409TIP3    H149642   1.650   0.739   4.662  0.2993  0.0119 -0.0847
 9409TIP3    H249643   1.523   0.730   4.744 -0.1238  0.7920 -0.6414
 9410TIP3   OH249644   2.353   4.020   1.143  0.2059  0.1188 -0.6082
 9410TIP3    H149645   2.415   3.987   1.078 -1.0253  0.3348 -1.8959
 9410TIP3    H249646   2.339   4.112   1.119 -0.4462  0.1308 -0.1938
 9411TIP3   OH249647   3.576   3.918   4.286 -0.1436  0.4087  0.8860
 9411TIP3    H149648   3.589   3.826   4.306  0.4887  0.3141  0.0618
 9411TIP3    H249649   3.654   3.943   4.236 -0.6354  1.2039  0.5011
 9412TIP3   OH249650   5.468   6.675   1.904 -0.0831 -0.3675 -0.1875
 9412TIP3    H149651   5.449   6.615   1.832 -2.2412  0.6733 -0.5243
 9412TIP3    H249652   5.392   6.668   1.962  0.0665  1.3159  0.2480
 9413TIP3   OH249653   5.923   4.640  15.873 -0.3431  0.1622  0.3375
 9413TIP3    H149654   5.843   4.593  15.848 -0.2488  0.1149  0.1262
 9413TIP3    H249655   5.902   4.678  15.959 -0.6138  0.1985  0.2572
 9414TIP3   OH249656   5.379   5.697  14.963  0.2380  0.6182  0.4818
 9414TIP3    H149657   5.440   5.751  15.013  1.3848  0.3091 -0.5485
 9414TIP3    H249658   5.358   5.624  15.020  1.1560  0.5185  0.7014
 9415TIP3   OH249659   0.636   4.718   1.423  0.1369 -0.1191  0.5864
 9415TIP3    H149660   0.621   4.744   1.333  0.3095  0.9375  0.8560
 9415TIP3    H249661   0.659   4.625   1.418 -2.4054 -0.7320 -0.2057
 9416TIP3   OH249662   3.767   0.026  12.571  0.1659 -0.2139  0.6136
 9416TIP3    H149663   3.821  -0.044  12.607 -1.1288 -0.9330  1.1897
 9416TIP3    H249664   3.680  -0.012  12.563 -0.2499  0.9031 -0.3788
 9417TIP3   OH249665   3.965   3.211  16.521 -0.3340 -0.4386  0.5820
 9417TIP3    H149666   3.884   3.243  16.482  0.3832  0.4154 -0.2421
 9417TIP3    H249667   4.034   3.259  16.475  0.6481 -1.3315  1.1041
 9418TIP3   OH249668   5.230   3.195   5.357 -0.2608  0.1753 -0.3917
 9418TIP3    H149669   5.215   3.287   5.379 -3.2052 -0.0419 -1.2348
 9418TIP3    H249670   5.280   3.160   5.431 -1.7089  1.7371  1.3809
 9419TIP3   OH249671   4.507   1.308  14.435  0.2610  0.1163 -0.4278
 9419TIP3    H149672   4.500   1.380  14.498  0.3649 -0.5486  0.3664
 9419TIP3    H249673   4.591   1.266  14.457 -1.1454 -2.0381  1.0977
 9420TIP3   OH249674   4.919   2.911  15.836 -0.4497 -0.0195 -0.1637
 9420TIP3    H149675   4.937   2.975  15.767 -1.1598  0.7551  0.3573
 9420TIP3    H249676   4.900   2.964  15.914  1.3687 -0.8924  0.8980
 9421TIP3   OH249677   1.913   6.090   2.337 -0.3842 -0.2656 -0.1916
 9421TIP3    H149678   1.961   6.066   2.417 -0.6786  0.0180  0.0724
 9421TIP3    H249679   1.862   6.011   2.316 -0.5159 -0.2461  0.0544
 9422TIP3   OH249680   3.961   0.991   0.401 -0.4895 -0.0164  0.0683
 9422TIP3    H149681   3.923   0.997   0.488 -0.1254 -0.5122  0.2684
 9422TIP3    H249682   3.998   0.902   0.397 -1.3648 -0.3530 -0.9395
 9423TIP3   OH249683   3.397   3.679   4.177  0.3202 -0.6130  0.1188
 9423TIP3    H149684   3.465   3.667   4.242 -0.4354 -1.0024  0.8469
 9423TIP3    H249685   3.319   3.702   4.227 -0.6379 -2.3632 -0.4921
 9424TIP3   OH249686   2.789   5.054  15.812  0.2565 -0.5816  0.1491
 9424TIP3    H149687   2.761   4.964  15.796 -1.2422 -0.1926  0.4708
 9424TIP3    H249688   2.721   5.108  15.771 -0.0628  0.3966  1.9067
 9425TIP3   OH249689   2.599   1.350  12.191  0.2681 -0.1795 -0.0012
 9425TIP3    H149690   2.655   1.422  12.163  0.0673  0.2668  0.7429
 9425TIP3    H249691   2.660   1.282  12.218  0.4876 -0.8610 -2.0599
 9426TIP3   OH249692   0.699   2.430   4.794 -0.2026 -0.4457  0.6953
 9426TIP3    H149693   0.746   2.485   4.856 -0.2090 -0.6554  0.8891
 9426TIP3    H249694   0.756   2.354   4.781  1.1617  0.9326 -1.7909
 9427TIP3   OH249695   0.194   6.354   0.551 -0.3279 -0.4260  0.0905
 9427TIP3    H149696   0.281   6.394   0.542 -0.2572 -0.3221  1.1076
 9427TIP3    H249697   0.205   6.265   0.518  0.3123 -0.5854  0.7233
 9428TIP3   OH249698   0.608   4.588  17.034 -0.1323  0.4862  0.8325
 9428TIP3    H149699   0.565   4.640  16.966  0.5674 -0.1164 -0.0816
 9428TIP3    H249700   0.566   4.502  17.029 -0.2052  0.4963  1.2799
 9429TIP3   OH249701   6.250   5.224   0.038 -0.1455  0.3524 -0.5220
 9429TIP3    H149702   6.247   5.131   0.062 -0.0824  0.6104  0.5416
 9429TIP3    H249703   6.330   5.233  -0.014  2.0683  0.5348  2.7061
 9430TIP3   OH249704   0.798   0.062   0.992 -0.1573 -0.7785  0.1620
 9430TIP3    H149705   0.762   0.043   1.078  0.7031 -0.5810  0.5771
 9430TIP3    H249706   0.877   0.007   0.986  0.0576 -0.4265 -0.2902
 9431TIP3   OH249707   4.858   0.752  15.071  0.6108 -0.1770 -0.2133
 9431TIP3    H149708   4.771   0.711  15.069 -0.4668  2.0859 -0.6494
 9431TIP3    H249709   4.871   0.775  15.163  0.4876  0.0160 -0.2437
 9432TIP3   OH249710   2.624   0.252  14.781  0.1159  0.7438  0.3520
 9432TIP3    H149711   2.573   0.326  14.814  2.3870  1.9842  1.1856
 9432TIP3    H249712   2.690   0.235  14.848  1.0674 -0.5639 -0.8581
 9433TIP3   OH249713   1.202   5.752  11.971 -0.3275  0.3291 -0.1440
 9433TIP3    H149714   1.182   5.710  12.055 -0.9657  0.9655  0.0308
 9433TIP3    H249715   1.245   5.684  11.920  0.5056  0.0782  0.8713
 9434TIP3   OH249716   5.806   4.083   2.369 -0.4707  0.2198 -0.0199
 9434TIP3    H149717   5.897   4.113   2.377 -0.4669 -0.0633  1.0026
 9434TIP3    H249718   5.788   4.038   2.451 -0.6225 -2.2170 -1.3212
 9435TIP3   OH249719   1.832   2.834  12.011  0.1117 -0.2171 -0.1016
 9435TIP3    H149720   1.749   2.814  12.055  1.4467  0.4986  2.8942
 9435TIP3    H249721   1.899   2.806  12.073  2.1135  0.2666 -1.9883
 9436TIP3   OH249722   0.069   5.184   6.095  0.4388  0.0058 -0.4774
 9436TIP3    H149723  -0.016   5.206   6.059  0.1567  0.3819  0.3951
 9436TIP3    H249724   0.099   5.265   6.137  1.1498 -0.1693 -0.6390
 9437TIP3   OH249725   4.774   2.615   4.476 -0.2577  0.2982  0.4756
 9437TIP3    H149726   4.829   2.565   4.536  0.1544  2.5014  2.0097
 9437TIP3    H249727   4.685   2.587   4.495  0.0684 -0.9030  0.2770
 9438TIP3   OH249728   5.405   3.613  14.978 -0.4022  0.2023  0.0565
 9438TIP3    H149729   5.416   3.556  15.053  1.6112 -0.1986 -0.4994
 9438TIP3    H249730   5.312   3.637  14.978 -0.9391 -1.8107  1.1868
 9439TIP3   OH249731   2.176   4.799  15.152 -0.2076 -0.4403  0.1703
 9439TIP3    H149732   2.121   4.723  15.131 -2.0948  0.5473  1.4420
 9439TIP3    H249733   2.126   4.847  15.218  1.6223  1.1607  0.4100
 9440TIP3   OH249734   1.784   1.965   5.426 -0.2810 -0.3005  0.2361
 9440TIP3    H149735   1.699   1.926   5.445 -0.1745  0.1976  1.8612
 9440TIP3    H249736   1.765   2.055   5.402 -0.2289 -0.2107  0.5237
 9441TIP3   OH249737   2.539   2.197   3.655 -0.0546 -0.3183  0.4697
 9441TIP3    H149738   2.472   2.130   3.643 -0.6103  0.0993  1.2763
 9441TIP3    H249739   2.618   2.148   3.678 -0.4655 -0.6991  1.0775
 9442TIP3   OH249740   0.282   1.553  11.912  0.0468 -0.6324 -0.4741
 9442TIP3    H149741   0.280   1.635  11.862  0.3307 -0.3908 -0.0902
 9442TIP3    H249742   0.202   1.555  11.964  0.5259 -0.1575  0.2410
 9443TIP3   OH249743   4.268   3.579  10.806  0.2311 -0.0490 -0.0163
 9443TIP3    H149744   4.317   3.524  10.745 -0.1633 -1.1632  0.6330
 9443TIP3    H249745   4.333   3.637  10.845  1.1223 -1.7287  1.0662
 9444TIP3   OH249746   6.141   4.789  12.535 -0.1040 -0.0402 -0.3434
 9444TIP3    H149747   6.148   4.821  12.445  1.9486 -0.6050 -0.3908
 9444TIP3    H249748   6.194   4.849  12.587 -0.8717 -0.0109  0.4296
 9445TIP3   OH249749   2.563   4.137  12.308 -0.9029 -0.0201 -0.1496
 9445TIP3    H149750   2.507   4.094  12.373 -2.3180  0.4230 -1.0549
 9445TIP3    H249751   2.570   4.228  12.339 -1.3082  0.1108 -0.4442
 9446TIP3   OH249752   1.602   5.004   1.127 -0.1000  0.2837  0.3118
 9446TIP3    H149753   1.646   5.072   1.076  1.0229 -0.3625  0.4139
 9446TIP3    H249754   1.544   4.961   1.065  0.1995  0.4469 -0.0843
 9447TIP3   OH249755   3.296   3.806  14.727 -0.0379  0.0596 -0.0444
 9447TIP3    H149756   3.328   3.896  14.724 -2.2180  0.9044  1.1544
 9447TIP3    H249757   3.209   3.810  14.687 -0.8448 -1.1885  1.5562
 9448TIP3   OH249758   5.489   4.534  15.315 -0.2498  0.6001 -0.0683
 9448TIP3    H149759   5.558   4.471  15.294 -0.3498  0.0334  1.2722
 9448TIP3    H249760   5.409   4.495  15.278 -0.9000 -1.6909  3.5262
 9449TIP3   OH249761   3.236   5.712  13.814 -0.4979 -0.2878  0.1591
 9449TIP3    H149762   3.215   5.805  13.807 -0.7549 -0.4265 -1.0024
 9449TIP3    H249763   3.310   5.699  13.755  0.6918 -0.4920  1.6484
 9450TIP3   OH249764   2.362   3.372   4.376  0.3541  0.2666 -0.1076
 9450TIP3    H149765   2.271   3.342   4.366  1.2203 -2.0782 -1.1143
 9450TIP3    H249766   2.374   3.434   4.303  0.2476 -1.1344 -1.3324
 9451TIP3   OH249767   6.035   3.465  16.080 -0.0336  0.0377  0.5303
 9451TIP3    H149768   6.086   3.535  16.039 -0.0164 -0.8276 -0.9515
 9451TIP3    H249769   6.087   3.386  16.069 -0.4230 -0.3670  1.4793
 9452TIP3   OH249770   4.996   0.098  12.259  0.8801 -0.3472  0.0671
 9452TIP3    H149771   4.984   0.086  12.353  0.7023 -0.5555  0.0174
 9452TIP3    H249772   4.909   0.085  12.221  1.0360 -0.7267 -0.1699
 9453TIP3   OH249773   6.337   0.071  11.178 -0.3488 -0.7806 -0.0138
 9453TIP3    H149774   6.304   0.139  11.118  0.2082 -0.2655  0.2591
 9453TIP3    H249775   6.260   0.044  11.228 -1.1100 -2.1289 -1.8221
 9454TIP3   OH249776   5.148   0.922  12.338  0.5882  0.0517 -0.7978
 9454TIP3    H149777   5.096   0.979  12.281 -0.7257 -0.3462 -0.0094
 9454TIP3    H249778   5.150   0.968  12.422 -0.4988 -1.0673 -0.1521
 9455TIP3   OH249779   6.275   1.709   1.830  0.6551  0.5805  0.0402
 9455TIP3    H149780   6.289   1.803   1.842  1.2182  0.1364  3.3672
 9455TIP3    H249781   6.189   1.703   1.789  0.3085  2.5178  0.4238
 9456TIP3   OH249782   2.242   2.205   1.922  0.1719 -0.1437  0.9518
 9456TIP3    H149783   2.328   2.242   1.942  0.6619 -0.9161  0.3241
 9456TIP3    H249784   2.250   2.112   1.945 -0.9902  0.0981  2.3685
 9457TIP3   OH249785   4.276   4.338  13.671 -0.5056  0.2031 -0.2173
 9457TIP3    H149786   4.241   4.385  13.746 -3.9730 -2.3710 -0.1002
 9457TIP3    H249787   4.216   4.359  13.599 -0.5606 -1.8598 -0.8113
 9458TIP3   OH249788   1.920   5.859   5.989  0.2208 -0.5993 -0.4950
 9458TIP3    H149789   1.994   5.859   6.049  0.1352 -0.3199 -0.3882
 9458TIP3    H249790   1.864   5.931   6.019  0.7585  0.3085 -1.6188
 9459TIP3   OH249791   0.101   5.911   0.241  0.0360 -0.6964  0.4907
 9459TIP3    H149792   0.167   5.871   0.297  0.4565 -1.9579 -0.8576
 9459TIP3    H249793   0.119   5.875   0.154 -0.0028  1.9287 -0.6522
 9460TIP3   OH249794   1.086   2.949   1.944 -0.4464  0.2082  0.3938
 9460TIP3    H149795   1.019   2.917   1.883  0.9740  0.5137 -1.3703
 9460TIP3    H249796   1.037   3.002   2.007 -2.0735 -0.8601  0.0544
 9461TIP3   OH249797   6.232   1.765   0.462 -0.4509  0.0825  0.3612
 9461TIP3    H149798   6.202   1.822   0.392  0.5919  0.3642  0.1372
 9461TIP3    H249799   6.201   1.807   0.542  0.0208  0.7922  0.1759
 9462TIP3   OH249800   3.014   6.086   4.963 -0.0596 -0.4310 -0.0036
 9462TIP3    H149801   2.970   6.015   4.917 -0.1280 -0.6068  0.3406
 9462TIP3    H249802   3.053   6.046   5.040  1.7505 -0.5255 -0.9340
 9463TIP3   OH249803   4.192   6.299  14.696 -0.4322  0.2189 -0.2322
 9463TIP3    H149804   4.171   6.392  14.702 -0.3530  0.2779 -0.8779
 9463TIP3    H249805   4.114   6.259  14.658 -0.6774 -0.0597  0.5554
 9464TIP3   OH249806   1.782   4.077   3.715 -0.5860  0.2015  0.1067
 9464TIP3    H149807   1.728   4.049   3.789 -0.7583 -2.3234 -0.8999
 9464TIP3    H249808   1.722   4.074   3.640  0.5411 -1.2189 -0.7717
 9465TIP3   OH249809   5.998   5.981  16.333  0.5062 -0.0563 -0.5337
 9465TIP3    H149810   5.929   5.917  16.352  3.2622 -3.1601 -0.5725
 9465TIP3    H249811   6.030   6.008  16.419  2.0927 -1.8897 -0.5163
 9466TIP3   OH249812   6.371   4.122  15.168 -0.4097 -0.2612  1.0597
 9466TIP3    H149813   6.347   4.119  15.260 -0.4159 -0.3961  1.0537
 9466TIP3    H249814   6.438   4.191  15.162 -3.2228  2.5140  0.5069
 9467TIP3   OH249815   5.209   5.063   2.028 -0.4151  0.1730 -0.0714
 9467TIP3    H149816   5.240   5.030   2.112  0.0808 -0.8257 -0.6433
 9467TIP3    H249817   5.288   5.083   1.979 -0.7103  1.5658  0.0073
 9468TIP3   OH249818   1.808   3.040   5.950  0.0930  0.2994 -0.1101
 9468TIP3    H149819   1.736   3.097   5.925 -0.6751 -0.7392 -0.3144
 9468TIP3    H249820   1.785   3.009   6.038  0.4788  0.2621 -0.0185
 9469TIP3   OH249821   0.089   6.528   5.861  0.3491  0.8488  0.0105
 9469TIP3    H149822   0.153   6.538   5.791  1.0013 -2.4207  0.0893
 9469TIP3    H249823   0.138   6.492   5.934 -1.2319 -0.1789  0.5967
 9470TIP3   OH249824   5.328   1.828   4.388 -0.7713 -0.1056  0.6264
 9470TIP3    H149825   5.257   1.844   4.326 -0.0603 -1.3190 -0.5126
 9470TIP3    H249826   5.345   1.915   4.426 -4.0445 -0.0824  2.2729
 9471TIP3   OH249827   5.474   6.743   4.518 -0.5288  0.1031 -0.0402
 9471TIP3    H149828   5.421   6.807   4.471 -0.4807  1.7127  2.0319
 9471TIP3    H249829   5.525   6.795   4.580  0.5454 -1.8166  0.7325
 9472TIP3   OH249830   2.303   6.350   2.700 -0.1910  0.2121 -0.5301
 9472TIP3    H149831   2.367   6.412   2.664  0.5036 -0.2608 -0.1294
 9472TIP3    H249832   2.253   6.402   2.763  2.5216 -0.3596  2.2115
 9473TIP3   OH249833   4.513   5.815  11.649  0.2486  1.1938 -0.0270
 9473TIP3    H149834   4.531   5.773  11.733  2.4047  0.3247 -0.8775
 9473TIP3    H249835   4.483   5.903  11.672 -0.4007  0.5503  1.6624
 9474TIP3   OH249836   3.124   0.794  13.859 -1.2774 -0.3184  0.1587
 9474TIP3    H149837   3.198   0.839  13.819 -0.9246  1.1404  2.3314
 9474TIP3    H249838   3.164   0.724  13.910 -1.3536  0.4697  1.3316
 9475TIP3   OH249839   6.696   1.726  16.054  0.1116  0.0591 -0.3682
 9475TIP3    H149840   6.628   1.759  15.996  0.8717 -0.1171 -1.3750
 9475TIP3    H249841   6.726   1.802  16.103 -1.1158  0.0555  0.4034
 9476TIP3   OH249842   2.337   5.010  16.460 -0.1007 -0.2741 -0.5712
 9476TIP3    H149843   2.356   5.103  16.477 -0.7235 -0.2852  0.2333
 9476TIP3    H249844   2.304   4.977  16.543  0.0568 -1.2070 -0.8804
 9477TIP3   OH249845   1.527   4.139  11.618  0.4754 -0.1456  0.3894
 9477TIP3    H149846   1.582   4.216  11.607  1.1883 -0.9615 -2.1014
 9477TIP3    H249847   1.535   4.116  11.711  4.2554 -0.1573  0.1249
 9478TIP3   OH249848   2.615   2.816   0.857 -0.0271  0.1662 -0.7655
 9478TIP3    H149849   2.609   2.789   0.949 -0.5608 -0.8476 -1.0900
 9478TIP3    H249850   2.704   2.790   0.830  0.1359  0.4796 -0.5404
 9479TIP3   OH249851   5.343   3.623  14.032  0.6224  0.2821 -0.1750
 9479TIP3    H149852   5.390   3.548  14.070  0.0753  0.1708  0.2778
 9479TIP3    H249853   5.301   3.665  14.107 -0.7199 -0.1173 -0.6977
 9480TIP3   OH249854   0.603   5.912   1.530  0.2187  0.5232 -0.6106
 9480TIP3    H149855   0.528   5.878   1.481 -1.9472  0.5463  2.5298
 9480TIP3    H249856   0.649   5.834   1.561  0.8737  0.5028 -1.6344
 9481TIP3   OH249857   5.406   4.218   3.620 -0.3853  0.1377  0.0185
 9481TIP3    H149858   5.484   4.213   3.565 -1.6466 -0.1612 -1.7832
 9481TIP3    H249859   5.433   4.270   3.695  2.2074 -1.9307  0.5626
 9482TIP3   OH249860   4.908   1.223  14.766  0.4980  0.2410  0.4629
 9482TIP3    H149861   4.925   1.262  14.852  0.5871  0.5439  0.3100
 9482TIP3    H249862   4.954   1.139  14.769  1.7582  0.9055  0.1747
 9483TIP3   OH249863   2.872   4.823  10.969 -0.4297 -0.5745 -0.1405
 9483TIP3    H149864   2.903   4.913  10.966 -1.2861 -0.2364  1.0343
 9483TIP3    H249865   2.948   4.773  11.001 -0.2846 -0.1273  0.2166
 9484TIP3   OH249866   5.021   5.164  10.808 -0.0979  0.5137 -0.0684
 9484TIP3    H149867   4.959   5.098  10.837 -1.4888  2.0027  0.4588
 9484TIP3    H249868   5.069   5.189  10.888  0.6771 -0.1060 -0.3346
 9485TIP3   OH249869   0.875   4.033   6.113  0.9312  0.2717  0.3503
 9485TIP3    H149870   0.876   3.937   6.114  2.1365  0.2667  1.0992
 9485TIP3    H249871   0.962   4.057   6.081  0.0908  1.1261 -1.3222
 9486TIP3   OH249872   4.328   6.422   0.124  0.2660 -0.6440  0.0919
 9486TIP3    H149873   4.385   6.357   0.164  0.1819 -0.6561  0.1905
 9486TIP3    H249874   4.384   6.466   0.059  1.4023  1.7424  2.6042
 9487TIP3   OH249875   4.759   5.339  15.824 -0.0940 -0.3361 -0.7191
 9487TIP3    H149876   4.681   5.394  15.835 -0.3577 -0.5210 -1.6301
 9487TIP3    H249877   4.777   5.342  15.730  0.6449 -0.7843 -0.5922
 9488TIP3   OH249878   0.248   5.865  13.221  0.5547 -0.6450  0.6380
 9488TIP3    H149879   0.274   5.903  13.137 -1.5661 -2.1668 -0.7499
 9488TIP3    H249880   0.239   5.940  13.279  2.3218  0.4066 -0.3910
 9489TIP3   OH249881   2.491   3.955   4.088 -0.2915 -0.2200 -0.1337
 9489TIP3    H149882   2.534   4.019   4.145  0.2050 -0.6010 -0.0765
 9489TIP3    H249883   2.458   4.007   4.015  0.3022  0.0676 -0.1972
 9490TIP3   OH249884   0.970   5.210   4.844  0.4832 -0.1427  0.3771
 9490TIP3    H149885   0.893   5.189   4.897  0.7916  0.7115  1.1952
 9490TIP3    H249886   1.044   5.174   4.894  0.7167  0.0694  0.1865
 9491TIP3   OH249887   3.054   1.265   5.138 -0.8485  0.9257  0.1699
 9491TIP3    H149888   2.977   1.237   5.089 -0.9244  0.2245  0.6826
 9491TIP3    H249889   3.021   1.285   5.226 -0.1691 -1.2110  0.9548
 9492TIP3   OH249890   1.068   5.987   0.503 -0.6238  0.6379  0.2693
 9492TIP3    H149891   1.156   5.953   0.515  0.0975  2.4305  0.1868
 9492TIP3    H249892   1.012   5.930   0.556  0.5238 -0.7503 -0.0033
 9493TIP3   OH249893   0.883   0.387   4.155  0.3256  0.0355  0.0891
 9493TIP3    H149894   0.879   0.469   4.204 -0.6321 -0.2722  0.5557
 9493TIP3    H249895   0.804   0.340   4.182  0.9719 -1.1288 -0.0125
 9494TIP3   OH249896   6.591   3.041  14.905 -0.0994 -0.3144  0.5345
 9494TIP3    H149897   6.662   2.999  14.953  2.0203  1.5070 -0.9099
 9494TIP3    H249898   6.584   3.128  14.943 -1.5585 -0.4632  0.6376
 9495TIP3   OH249899   6.711   0.404  13.959  0.4700  0.4658  0.1895
 9495TIP3    H149900   6.656   0.434  14.031  0.0645  0.4061 -0.0976
 9495TIP3    H249901   6.702   0.308  13.961 -0.3865  0.5257 -0.6155
 9496TIP3   OH249902   0.595   6.260   2.943  0.2447 -0.5765  0.7463
 9496TIP3    H149903   0.675   6.308   2.923 -1.0052  0.6989 -1.2714
 9496TIP3    H249904   0.579   6.279   3.036  1.3154  0.5631  0.7117
 9497TIP3   OH249905   4.910   5.392   6.231 -0.0599  0.2166 -0.2967
 9497TIP3    H149906   4.836   5.446   6.202 -0.4347 -0.7513 -1.2095
 9497TIP3    H249907   4.872   5.331   6.294 -0.3346 -1.0976 -1.6811
 9498TIP3   OH249908   0.530   5.538  14.067 -0.4347 -0.1502  0.4229
 9498TIP3    H149909   0.552   5.505  13.980 -2.1328  1.0270 -0.4850
 9498TIP3    H249910   0.614   5.558  14.108  0.5210 -3.1738  0.0595
 9499TIP3   OH249911   4.433   2.556  13.859 -0.2474 -0.1304 -0.3035
 9499TIP3    H149912   4.352   2.601  13.836 -0.2035 -0.2905 -0.7805
 9499TIP3    H249913   4.415   2.463  13.841 -0.4248 -0.3471  0.8974
 9500TIP3   OH249914   3.437   4.437  14.893 -0.4398 -0.1967 -0.3802
 9500TIP3    H149915   3.414   4.530  14.890  0.3607 -0.0306 -1.6069
 9500TIP3    H249916   3.405   4.402  14.810 -2.1586 -1.3682  0.7294
 9501TIP3   OH249917   6.475   5.166   0.662  0.5754 -0.2570  0.1880
 9501TIP3    H149918   6.499   5.095   0.603 -2.1542 -2.4740  1.6323
 9501TIP3    H249919   6.415   5.221   0.611  0.8513 -0.2998 -0.1796
 9502TIP3   OH249920   3.233   6.666  15.075  0.1583 -0.2429  0.4228
 9502TIP3    H149921   3.224   6.762  15.074  0.7122 -0.1620  2.1165
 9502TIP3    H249922   3.213   6.640  14.985 -0.6709  1.4020  0.0960
 9503TIP3   OH249923   2.179   6.206   0.530  0.0139  0.7381  0.5973
 9503TIP3    H149924   2.229   6.276   0.570  0.1416  0.7087  0.4887
 9503TIP3    H249925   2.113   6.182   0.596  2.4140 -1.7219  2.1862
 9504TIP3   OH249926   6.490   4.666  10.892  0.0550 -0.5980 -0.0087
 9504TIP3    H149927   6.535   4.704  10.817  0.4780 -0.1746  0.4612
 9504TIP3    H249928   6.401   4.647  10.861 -0.5066  1.8012  0.0868
 9505TIP3   OH249929   3.769   4.685  17.089 -0.7789 -0.1084 -0.2281
 9505TIP3    H149930   3.701   4.642  17.038  0.2371 -0.1802 -1.5403
 9505TIP3    H249931   3.850   4.670  17.040  0.0460  0.7650  0.8267
 9506TIP3   OH249932   5.204   0.284   5.471 -0.3191  0.3535 -0.3411
 9506TIP3    H149933   5.156   0.356   5.431 -0.6005  1.2693  1.5896
 9506TIP3    H249934   5.144   0.250   5.538  1.7598  1.7239  2.3396
 9507TIP3   OH249935   5.155   2.089   4.293 -0.0306  0.1401 -0.2561
 9507TIP3    H149936   5.228   2.128   4.341  0.8099 -0.7566 -0.7893
 9507TIP3    H249937   5.152   2.139   4.211 -0.9809  1.1650  0.3826
 9508TIP3   OH249938   5.810   1.552   4.249 -0.3282 -0.0019 -0.1645
 9508TIP3    H149939   5.752   1.604   4.305 -0.2640 -0.2370  0.1224
 9508TIP3    H249940   5.861   1.616   4.200  0.7695  0.2129  1.2415
 9509TIP3   OH249941   0.487   4.309  14.233  0.4182 -0.0296 -0.0539
 9509TIP3    H149942   0.442   4.372  14.176 -2.5854 -1.2964  0.7947
 9509TIP3    H249943   0.427   4.297  14.306  1.8729 -2.3315  0.8072
 9510TIP3   OH249944   6.509   3.176   4.295  0.7083 -0.5651 -0.6043
 9510TIP3    H149945   6.472   3.088   4.302 -0.4675 -0.0152  0.2649
 9510TIP3    H249946   6.557   3.175   4.212  0.6500 -1.9938 -0.6412
 9511TIP3   OH249947   5.542   1.217  12.756  0.4458 -0.1632  0.3418
 9511TIP3    H149948   5.618   1.211  12.814  1.4758 -1.7340 -1.1012
 9511TIP3    H249949   5.491   1.290  12.790  3.2204  1.7166  0.6323
 9512TIP3   OH249950   1.938   2.692   1.912 -0.5053  0.4633 -0.2660
 9512TIP3    H149951   2.010   2.630   1.897  0.1555  1.4868 -1.3918
 9512TIP3    H249952   1.863   2.636   1.932  0.3579 -0.6638 -0.0648
 9513TIP3   OH249953   1.811   4.747   5.362 -0.8796  0.2036 -0.3131
 9513TIP3    H149954   1.720   4.775   5.355 -1.5113 -1.9569 -0.8621
 9513TIP3    H249955   1.825   4.735   5.456 -0.7038  1.9102 -0.0936
 9514TIP3   OH249956   3.253   1.902  11.687 -0.0530  0.0535 -0.6640
 9514TIP3    H149957   3.302   1.941  11.615 -1.5545 -0.1484 -1.8250
 9514TIP3    H249958   3.176   1.863  11.645  0.0329 -1.7575  0.8176
 9515TIP3   OH249959   5.175   5.981  16.538  0.2046  0.3912 -0.0403
 9515TIP3    H149960   5.081   5.974  16.519  0.4869 -1.0616 -0.9636
 9515TIP3    H249961   5.181   5.968  16.633 -0.1318 -4.1989 -0.5428
 9516TIP3   OH249962   4.517   5.033  13.500  0.4788  0.1818  0.0493
 9516TIP3    H149963   4.509   5.021  13.595 -0.3713 -2.0462 -0.2709
 9516TIP3    H249964   4.427   5.025  13.468  0.5599  2.5056 -0.7894
 9517TIP3   OH249965   3.573   6.348  13.216 -0.1795 -0.3201 -0.4835
 9517TIP3    H149966   3.481   6.373  13.208  0.3412  1.2419 -1.8842
 9517TIP3    H249967   3.621   6.427  13.194  1.5278 -1.8417 -2.3805
 9518TIP3   OH249968   3.652   0.454  11.584  0.2222 -0.4925 -0.0554
 9518TIP3    H149969   3.736   0.475  11.625  0.3551 -1.8690  0.4230
 9518TIP3    H249970   3.638   0.362  11.606 -1.2266 -0.3744 -0.4638
 9519TIP3   OH249971   5.620   2.748   4.552  0.3790 -0.3953  0.3176
 9519TIP3    H149972   5.651   2.665   4.590  1.2139 -1.0612 -1.7039
 9519TIP3    H249973   5.671   2.757   4.471  0.0282  1.9200  0.3211
 9520TIP3   OH249974   0.106   1.230   4.724  0.8455  0.4804  0.2943
 9520TIP3    H149975   0.131   1.322   4.733 -1.3172  0.8788  2.8927
 9520TIP3    H249976   0.021   1.232   4.681  1.3919 -0.4009 -0.8568
 9521TIP3   OH249977   3.302   2.081  16.454  0.2673  0.4737  0.6470
 9521TIP3    H149978   3.211   2.110  16.455 -0.0735 -0.5288 -0.4801
 9521TIP3    H249979   3.343   2.136  16.386 -0.3800 -1.6098 -1.4960
 9522TIP3   OH249980   5.178   5.324  17.178  0.2960 -0.0417 -0.4374
 9522TIP3    H149981   5.236   5.295  17.248  0.2157 -0.7643 -0.6593
 9522TIP3    H249982   5.118   5.386  17.220  0.4001 -0.2911  0.0789
 9523TIP3   OH249983   3.654   1.852  11.820  0.2543  0.2254  1.1307
 9523TIP3    H149984   3.696   1.861  11.735 -1.9265  0.0560  0.0075
 9523TIP3    H249985   3.725   1.826  11.879  1.4655 -1.4964 -1.0006
 9524TIP3   OH249986   4.136   5.610   3.766  0.0947 -0.4207  0.0208
 9524TIP3    H149987   4.046   5.576   3.759  0.0650 -0.0167 -1.7059
 9524TIP3    H249988   4.125   5.701   3.795 -0.1451  0.1102 -1.6866
 9525TIP3   OH249989   0.080   6.472   3.326 -0.5007  0.4328  0.6169
 9525TIP3    H149990   0.144   6.415   3.283 -1.0474 -0.2997  0.7481
 9525TIP3    H249991   0.132   6.533   3.378  0.0473 -1.0395  1.8202
 9526TIP3   OH249992   1.714   6.019   6.093  0.3063 -0.0664  0.6831
 9526TIP3    H149993   1.652   6.081   6.054 -0.7706 -0.3433  1.9445
 9526TIP3    H249994   1.664   5.939   6.105  1.3040 -0.7414  0.4089
 9527TIP3   OH249995   0.315   3.058  14.152  0.1114 -0.1499  0.6226
 9527TIP3    H149996   0.399   3.029  14.115  0.2125 -0.1299  0.8335
 9527TIP3    H249997   0.336   3.083  14.242  0.0498  0.7213  0.3958
 9528TIP3   OH249998   0.521   1.912  15.437  0.0173 -0.2705  0.0022
 9528TIP3    H149999   0.449   1.890  15.495 -0.3552  0.5684 -0.1400
 9528TIP3    H250000   0.595   1.861  15.470 -0.3682 -0.3301  0.7859
 9529TIP3   OH250001   1.302   4.488  14.764  0.4428  0.1017  0.4143
 9529TIP3    H150002   1.292   4.407  14.714  1.9208  0.2353 -0.1151
 9529TIP3    H250003   1.213   4.521  14.774 -0.1177 -1.3010  0.1562
 9530TIP3   OH250004   0.567   4.224   5.669 -0.3483  0.0352  0.1387
 9530TIP3    H150005   0.632   4.291   5.653 -1.1596  0.5255 -1.2355
 9530TIP3    H250006   0.498   4.269   5.718  0.1551 -0.3833  1.2432
 9531TIP3   OH250007   3.665   0.121  12.302 -0.8623  0.1874 -0.1700
 9531TIP3    H150008   3.749   0.145  12.339 -0.8461  0.5961 -0.4655
 9531TIP3    H250009   3.683   0.044  12.249 -0.5478  0.6694 -0.7667
 9532TIP3   OH250010   0.156   4.445  11.875  0.0421 -0.2184  0.1222
 9532TIP3    H150011   0.126   4.511  11.937 -0.8021 -1.5103  1.1364
 9532TIP3    H250012   0.080   4.387  11.863  1.4773 -2.3816  1.1482
 9533TIP3   OH250013   6.377   0.219  15.609 -0.0560 -0.7652  1.0939
 9533TIP3    H150014   6.347   0.159  15.540 -0.0381 -2.3796  2.4592
 9533TIP3    H250015   6.462   0.184  15.636 -1.0545 -1.4290  3.4488
 9534TIP3   OH250016   0.582   4.013   0.927 -0.2753  0.1383  0.2306
 9534TIP3    H150017   0.550   3.925   0.907 -0.3802  0.8099 -2.8561
 9534TIP3    H250018   0.677   4.008   0.913 -0.4602  0.8473 -1.3670
 9535TIP3   OH250019   5.938   0.350   3.488  1.0417  0.1164  0.4213
 9535TIP3    H150020   5.856   0.380   3.527  0.9467 -0.5689  0.7505
 9535TIP3    H250021   6.005   0.407   3.524  0.7942  0.2604  0.6507
 9536TIP3   OH250022   3.094   5.455   2.840 -0.3512  0.6781  0.5869
 9536TIP3    H150023   3.154   5.386   2.811 -0.3062  1.7086 -1.9838
 9536TIP3    H250024   3.121   5.474   2.930  1.9763 -0.2054  0.1299
 9537TIP3   OH250025   5.977   0.576  13.436  0.3217  0.0532  0.1620
 9537TIP3    H150026   6.018   0.509  13.381  0.3393  0.3704 -0.2160
 9537TIP3    H250027   5.978   0.539  13.524  0.8899 -0.1842  0.0551
 9538TIP3   OH250028   1.353   4.667   3.581 -0.1652 -0.0927 -0.1331
 9538TIP3    H150029   1.289   4.597   3.583 -0.1014 -0.1417  0.3281
 9538TIP3    H250030   1.302   4.747   3.588 -0.2493 -0.0822 -0.8109
 9539TIP3   OH250031   4.389   6.523   0.516  0.5670 -0.4078  0.3495
 9539TIP3    H150032   4.464   6.471   0.486 -0.0323 -0.5395 -0.9401
 9539TIP3    H250033   4.335   6.536   0.438  1.5241  3.5999  0.2246
 9540TIP3   OH250034   2.558   1.677   4.890 -0.2693  0.0674  0.2866
 9540TIP3    H150035   2.535   1.631   4.810  1.5274  2.5322 -1.7397
 9540TIP3    H250036   2.479   1.672   4.945 -0.3131 -4.8708  0.0168
 9541TIP3   OH250037   2.265   4.947   1.471  0.3015  0.7475  0.4880
 9541TIP3    H150038   2.205   4.960   1.544 -3.1653  2.0720 -2.4550
 9541TIP3    H250039   2.259   4.853   1.451  0.7726  0.5043  1.4682
 9542TIP3   OH250040   6.661   4.617  16.429 -0.6154 -0.0558  1.0961
 9542TIP3    H150041   6.666   4.522  16.417  1.2809  0.0951  0.4909
 9542TIP3    H250042   6.660   4.629  16.524  0.5178 -0.6373  1.1929
 9543TIP3   OH250043   3.647   3.742  11.965  0.2201 -0.3111 -0.5684
 9543TIP3    H150044   3.651   3.838  11.964 -2.6840 -0.1648 -1.2249
 9543TIP3    H250045   3.607   3.720  12.049 -0.7604 -0.8558 -1.1660
 9544TIP3   OH250046   3.859   1.670  15.683  0.0196  0.0391  0.4906
 9544TIP3    H150047   3.769   1.699  15.694 -0.4538 -1.4377  0.5421
 9544TIP3    H250048   3.886   1.705  15.598 -1.2678 -1.2287 -0.4496
 9545TIP3   OH250049   5.200   4.124  12.997 -0.3256 -0.4741  0.5396
 9545TIP3    H150050   5.155   4.102  12.915  2.1055  0.4710 -1.0955
 9545TIP3    H250051   5.129   4.137  13.060 -2.3581  0.7220 -1.8831
 9546TIP3   OH250052   3.744   0.242  17.165 -0.0656  0.0438 -0.0461
 9546TIP3    H150053   3.713   0.320  17.212  1.0228  1.3140 -1.4095
 9546TIP3    H250054   3.835   0.260  17.145  0.2225 -1.6259 -0.3561
 9547TIP3   OH250055   6.411   1.931   3.516  0.1001  0.6361 -0.5208
 9547TIP3    H150056   6.412   1.968   3.428 -0.8720 -1.7018 -1.5598
 9547TIP3    H250057   6.503   1.913   3.536  0.5250  2.9703 -0.2295
 9548TIP3   OH250058   3.217   1.038   5.083 -0.3583 -0.2839 -0.2504
 9548TIP3    H150059   3.173   1.120   5.105 -1.4501 -1.0630  0.5482
 9548TIP3    H250060   3.217   1.036   4.987 -1.9215 -0.1729 -0.2721
 9549TIP3   OH250061   2.604   3.012   3.661  0.4528 -0.1927  0.6252
 9549TIP3    H150062   2.648   3.065   3.727  3.1446 -0.9413 -0.5019
 9549TIP3    H250063   2.551   3.074   3.611  1.6794  1.0556  0.8488
 9550TIP3   OH250064   0.653   4.379   4.102  0.2962  0.1725 -0.3769
 9550TIP3    H150065   0.642   4.415   4.014 -0.1648 -0.6877 -0.6719
 9550TIP3    H250066   0.713   4.440   4.145 -0.9114  1.6353 -0.6979
 9551TIP3   OH250067   0.103   0.468  13.592  0.1612 -0.2426  0.5210
 9551TIP3    H150068   0.035   0.429  13.536 -0.4619  0.8194  0.5368
 9551TIP3    H250069   0.181   0.471  13.536  0.0951 -1.0871  0.3735
 9552TIP3   OH250070   2.288   6.386   4.890 -0.1434 -0.5504  0.4318
 9552TIP3    H150071   2.308   6.355   4.979 -0.4305 -1.3200  0.2336
 9552TIP3    H250072   2.242   6.313   4.850 -1.1495  0.2830  0.0636
 9553TIP3   OH250073   4.633   2.614   5.567  0.0185  0.2556  0.3575
 9553TIP3    H150074   4.583   2.567   5.633 -0.8530  0.4357 -0.1673
 9553TIP3    H250075   4.618   2.706   5.586  0.0847  0.3082  0.1534
 9554TIP3   OH250076   0.053   4.100   0.100 -0.1038 -0.1754 -0.0734
 9554TIP3    H150077   0.042   4.079   0.007 -0.1785 -0.2595 -0.0474
 9554TIP3    H250078  -0.002   4.036   0.146  0.5063 -0.6064  0.0667
 9555TIP3   OH250079   0.547   2.462  15.225  0.1304 -0.4926 -1.2284
 9555TIP3    H150080   0.533   2.368  15.236  0.2576 -0.3511  0.1904
 9555TIP3    H250081   0.619   2.482  15.284 -2.4759  1.2118  1.4869
 9556TIP3   OH250082   2.388   0.077  11.885 -0.3386  0.4012 -0.2645
 9556TIP3    H150083   2.310   0.022  11.880  0.7472 -1.1822 -0.1819
 9556TIP3    H250084   2.359   0.156  11.929 -1.6400 -0.7014  0.9113
 9557TIP3   OH250085   5.471   3.222   1.812 -0.3180 -0.1237 -0.0025
 9557TIP3    H150086   5.474   3.306   1.765  3.4521  0.3200  0.9033
 9557TIP3    H250087   5.535   3.167   1.766  2.1428 -0.2641  3.4548
 9558TIP3   OH250088   1.123   2.282  12.018  0.0128  0.1106  0.3566
 9558TIP3    H150089   1.091   2.293  11.929  0.3413  1.5203  0.3857
 9558TIP3    H250090   1.046   2.254  12.068 -0.7000  1.4068  0.0261
 9559TIP3   OH250091   0.479   4.045  10.610  0.2663  0.2694 -0.1612
 9559TIP3    H150092   0.511   3.955  10.615  1.9425  0.7783 -1.4448
 9559TIP3    H250093   0.452   4.065  10.700  1.7472 -0.8566  0.5689
 9560TIP3   OH250094   4.836   1.831   2.291  0.2301 -0.3649  0.0197
 9560TIP3    H150095   4.774   1.851   2.220 -0.2952 -5.2994 -1.0678
 9560TIP3    H250096   4.919   1.867   2.261 -1.0917  2.2751 -0.6236
 9561TIP3   OH250097   5.875   1.205  10.966 -0.4093  0.2581  0.1185
 9561TIP3    H150098   5.822   1.194  10.887  1.6542 -1.2166 -1.1204
 9561TIP3    H250099   5.962   1.171  10.942  0.7685  1.4532  2.4563
 9562TIP3   OH250100   2.337   4.947   3.801 -0.2280 -0.5184 -0.0695
 9562TIP3    H150101   2.280   5.006   3.752 -1.0050  1.6217  3.2858
 9562TIP3    H250102   2.423   4.957   3.761 -0.6167  2.0018 -0.3251
 9563TIP3   OH250103   6.745   1.128   1.429 -0.4424  0.3128 -0.2764
 9563TIP3    H150104   6.683   1.150   1.497  0.5472 -0.4294  0.8833
 9563TIP3    H250105   6.793   1.210   1.413 -1.7051  0.8869 -1.1868
 9564TIP3   OH250106   4.366   3.767  15.662  0.3824 -0.4086  0.1293
 9564TIP3    H150107   4.328   3.782  15.576 -0.5786 -1.2838  0.3989
 9564TIP3    H250108   4.341   3.844  15.713 -1.1717 -1.0498  0.3520
 9565TIP3   OH250109   2.074   6.474  13.372  0.3803  0.2216 -0.1371
 9565TIP3    H150110   2.145   6.411  13.384  0.6004  0.4919 -0.0010
 9565TIP3    H250111   2.001   6.423  13.337 -0.0273 -0.4433  1.6466
 9566TIP3   OH250112   6.424   3.393   3.017  0.4696 -0.1079 -0.1670
 9566TIP3    H150113   6.472   3.356   3.091 -0.1923  1.7503  1.2416
 9566TIP3    H250114   6.455   3.483   3.011  0.5402 -0.2478 -2.2003
 9567TIP3   OH250115   5.639   0.693  11.468 -0.0424 -0.4858 -0.1017
 9567TIP3    H150116   5.726   0.732  11.471 -1.5848  3.0963  0.9387
 9567TIP3    H250117   5.615   0.681  11.560 -1.7008  1.1818 -0.2793
 9568TIP3   OH250118   1.516   5.190   0.226 -0.1251 -0.0556 -0.3149
 9568TIP3    H150119   1.552   5.248   0.293  0.7763  1.6793 -2.2490
 9568TIP3    H250120   1.422   5.208   0.227  0.0413  0.8264 -0.3092
 9569TIP3   OH250121   1.633   2.631  14.267  0.0151  0.8789  0.7224
 9569TIP3    H150122   1.645   2.658  14.176 -2.4443  2.5048  0.8275
 9569TIP3    H250123   1.627   2.536  14.264 -0.4843  0.9503 -0.8692
 9570TIP3   OH250124   4.006   6.450   0.791  0.6592 -0.0353 -0.2957
 9570TIP3    H150125   4.064   6.386   0.751  0.3714 -0.4782 -0.0101
 9570TIP3    H250126   3.970   6.499   0.717  0.1154 -0.8654 -0.5938
 9571TIP3   OH250127   4.044   3.214   5.068  0.7213 -0.1757 -0.1856
 9571TIP3    H150128   4.055   3.308   5.051  0.4345  0.1184  1.1531
 9571TIP3    H250129   3.969   3.209   5.127  1.7860 -1.0954  1.1193
 9572TIP3   OH250130   0.891   2.175  11.612  0.2876  0.1202  0.1614
 9572TIP3    H150131   0.924   2.243  11.671  1.7278 -0.4419  0.0446
 9572TIP3    H250132   0.924   2.199  11.526 -0.3649  0.0232 -0.1154
 9573TIP3   OH250133   6.124   1.574  14.213 -0.5082  0.2476  0.2092
 9573TIP3    H150134   6.096   1.650  14.264 -0.5372  0.0505  0.4927
 9573TIP3    H250135   6.192   1.534  14.267  1.2531  1.4484 -1.0616
 9574TIP3   OH250136   2.003   3.796  17.220  0.2461  0.4215 -0.1983
 9574TIP3    H150137   2.004   3.843  17.137 -0.7446 -0.7333 -0.8834
 9574TIP3    H250138   1.978   3.706  17.197  1.1327 -0.2087  1.2015
 9575TIP3   OH250139   5.887   3.811  13.276  0.0551  0.0199  0.1761
 9575TIP3    H150140   5.820   3.846  13.335  0.9629 -0.4944  1.5398
 9575TIP3    H250141   5.931   3.743  13.327 -0.8350 -2.2560 -1.9777
 9576TIP3   OH250142   4.881   3.644  14.591  0.3810 -0.3489 -0.5669
 9576TIP3    H150143   4.918   3.658  14.678 -0.2744  1.3141 -0.5393
 9576TIP3    H250144   4.793   3.681  14.596  0.5586  0.3290 -2.1154
 9577TIP3   OH250145   4.369   4.455   1.553  0.0273  0.1228 -0.4100
 9577TIP3    H150146   4.462   4.441   1.532 -0.2811 -0.9477 -1.0620
 9577TIP3    H250147   4.325   4.377   1.521 -0.8179 -0.3809  1.9143
 9578TIP3   OH250148   6.492   6.079  10.461 -0.4327 -0.4675  0.9710
 9578TIP3    H150149   6.482   6.167  10.425  2.8612 -0.0338  1.0149
 9578TIP3    H250150   6.444   6.023  10.400 -0.5765  1.0677 -0.3633
 9579TIP3   OH250151   5.718   2.964   6.465  0.3675  0.3970  0.0812
 9579TIP3    H150152   5.787   2.951   6.400 -0.1282 -0.3631 -0.3049
 9579TIP3    H250153   5.731   2.894   6.529 -0.5274 -0.2431 -0.4249
 9580TIP3   OH250154   0.366   3.184   1.871 -0.2089  0.0732 -0.3079
 9580TIP3    H150155   0.356   3.201   1.965  0.6560  0.1057 -0.2194
 9580TIP3    H250156   0.392   3.269   1.834 -1.3305  0.2538 -0.7027
 9581TIP3   OH250157   4.209   2.544  15.376  0.4456 -0.5252 -0.0857
 9581TIP3    H150158   4.202   2.451  15.396 -1.1722 -0.6749 -1.2303
 9581TIP3    H250159   4.138   2.560  15.314 -0.0344  1.7073  0.9965
 9582TIP3   OH250160   4.996   5.320   5.943 -0.2551  0.6043 -0.1479
 9582TIP3    H150161   4.906   5.327   5.913 -0.5673  2.1854  1.0759
 9582TIP3    H250162   4.995   5.249   6.006 -0.6651  0.7005 -0.0458
 9583TIP3   OH250163   2.675   4.354  11.120  0.2524  0.3272  0.3984
 9583TIP3    H150164   2.658   4.344  11.213 -1.5767 -0.5144 -0.0033
 9583TIP3    H250165   2.627   4.433  11.095 -0.8774 -0.5349 -0.2012
 9584TIP3   OH250166   5.637   4.178   5.107 -0.0627 -0.2183 -0.3432
 9584TIP3    H150167   5.720   4.201   5.065  1.2755 -3.0407  0.6697
 9584TIP3    H250168   5.582   4.146   5.035  0.9267 -1.5189 -0.5411
 9585TIP3   OH250169   4.885   5.269  12.327  0.0686 -0.0396  0.0184
 9585TIP3    H150170   4.827   5.224  12.388  0.4406  0.6631  0.9102
 9585TIP3    H250171   4.872   5.362  12.346 -1.4250  0.2971 -2.4844
 9586TIP3   OH250172   5.451   1.195   3.081  0.1903  0.1189 -0.1678
 9586TIP3    H150173   5.383   1.225   3.140  1.2740 -0.2703  1.3236
 9586TIP3    H250174   5.492   1.275   3.048 -0.0428  0.3374  0.0702
 9587TIP3   OH250175   0.505   2.572   2.281 -0.4073  0.6367  0.3241
 9587TIP3    H150176   0.568   2.500   2.287  0.4739  1.3242 -0.6468
 9587TIP3    H250177   0.540   2.639   2.339 -1.4963  0.0997  1.6250
 9588TIP3   OH250178   3.935   4.073  12.472  0.0397 -0.4890  0.1908
 9588TIP3    H150179   3.848   4.068  12.509 -0.5166  3.2617 -0.3620
 9588TIP3    H250180   3.922   4.059  12.378  0.1204 -0.6139  0.1989
 9589TIP3   OH250181   1.934   2.911   3.829 -0.4131  0.0025  1.0149
 9589TIP3    H150182   1.941   3.005   3.848 -1.3291  0.4156 -0.6054
 9589TIP3    H250183   2.001   2.896   3.762  0.0739 -0.6133  1.6325
 9590TIP3   OH250184   4.995   2.455   3.012  0.8122  0.1058 -0.0784
 9590TIP3    H150185   4.973   2.364   3.031  2.5299  0.2107  2.7053
 9590TIP3    H250186   4.987   2.463   2.917 -0.0064 -2.7514 -0.2908
 9591TIP3   OH250187   0.197   2.124  11.302 -0.4062  0.5020 -0.1518
 9591TIP3    H150188   0.134   2.056  11.281  2.0300 -2.4561  1.7264
 9591TIP3    H250189   0.232   2.151  11.217 -0.1334 -1.8644 -0.8284
 9592TIP3   OH250190   0.797   2.606   2.065  0.5940  0.3299  0.0935
 9592TIP3    H150191   0.744   2.526   2.060 -0.7732  1.2358 -0.1567
 9592TIP3    H250192   0.865   2.585   2.129 -0.9598 -0.3583  1.5610
 9593TIP3   OH250193   0.486   2.609  13.308 -0.8949  0.1868  0.2205
 9593TIP3    H150194   0.450   2.528  13.271 -1.9591  0.9939 -0.5583
 9593TIP3    H250195   0.426   2.678  13.278 -0.3660  1.1903  1.3861
 9594TIP3   OH250196   0.884   6.084  13.478 -0.0994 -0.0045 -0.0509
 9594TIP3    H150197   0.901   6.005  13.427 -0.1397  1.0180 -1.6524
 9594TIP3    H250198   0.942   6.150  13.442 -2.0743  1.4801 -0.6113
 9595TIP3   OH250199   0.062   5.189   2.955  0.1462  1.3798 -0.0132
 9595TIP3    H150200   0.038   5.144   3.036 -0.9228  1.1050 -0.4746
 9595TIP3    H250201   0.148   5.227   2.973  0.8902 -0.5104  0.5119
 9596TIP3   OH250202   4.428   2.483   5.663 -0.6405 -0.3900 -0.0363
 9596TIP3    H150203   4.420   2.398   5.620  1.7515 -0.2726 -0.7763
 9596TIP3    H250204   4.417   2.464   5.756 -1.0326 -1.3649 -0.2739
 9597TIP3   OH250205   6.196   5.708   0.330  0.0798 -0.3894  0.5065
 9597TIP3    H150206   6.236   5.714   0.243  0.3696 -0.1611  0.6580
 9597TIP3    H250207   6.269   5.713   0.391 -0.1555 -0.2307  0.7733
 9598TIP3   OH250208   1.722   5.425  12.300  0.1945  0.3438  0.1546
 9598TIP3    H150209   1.770   5.460  12.225 -0.0505  1.4441  0.4906
 9598TIP3    H250210   1.732   5.493  12.368  0.4852 -0.6689  1.1395
 9599TIP3   OH250211   6.386   4.579   5.773 -0.2695  0.1366 -0.5805
 9599TIP3    H150212   6.413   4.525   5.698  0.8674  1.2716 -1.0093
 9599TIP3    H250213   6.367   4.516   5.842  0.0811 -0.8650 -1.3816
 9600TIP3   OH250214   0.916   1.971   5.558 -0.3408  0.0005  0.1652
 9600TIP3    H150215   0.957   1.921   5.629  2.5331  1.2436 -0.5367
 9600TIP3    H250216   0.895   2.056   5.598 -2.6690 -0.7497  0.6172
 9601TIP3   OH250217   0.448   0.840   0.936 -0.6240  0.4057  0.2942
 9601TIP3    H150218   0.431   0.786   1.013  2.0373  0.0393  0.6692
 9601TIP3    H250219   0.490   0.781   0.874 -2.9270  0.6552 -1.5442
 9602TIP3   OH250220   0.290   3.857   1.728 -0.2561 -0.4401 -0.1520
 9602TIP3    H150221   0.294   3.953   1.730 -1.5823 -0.3858  0.7723
 9602TIP3    H250222   0.260   3.837   1.639  0.6964 -0.0386 -0.5750
 9603TIP3   OH250223   3.315   3.926   1.887 -0.4034 -0.0610 -0.0932
 9603TIP3    H150224   3.312   3.933   1.983  0.3546  0.9195 -0.1334
 9603TIP3    H250225   3.265   4.001   1.856  0.6406  0.4864 -0.4723
 9604TIP3   OH250226   4.908   6.129   3.114 -0.4436 -0.4555 -0.4785
 9604TIP3    H150227   4.836   6.066   3.107 -0.9733  0.2381 -1.2304
 9604TIP3    H250228   4.876   6.208   3.071  0.3626  0.2191  0.1364
 9605TIP3   OH250229   4.167   5.137   1.505  0.2823 -0.1096  0.4077
 9605TIP3    H150230   4.228   5.151   1.577  1.2999 -3.1162  0.2151
 9605TIP3    H250231   4.215   5.164   1.426  0.3157  0.2579  0.5556
 9606TIP3   OH250232   4.190   0.568  17.036 -0.0077 -0.2983 -0.4813
 9606TIP3    H150233   4.227   0.486  17.070 -0.8121 -0.5771 -0.2583
 9606TIP3    H250234   4.163   0.547  16.947  0.6284 -0.0152 -0.7445
 9607TIP3   OH250235   4.512   5.088  10.482  0.3996  0.1436  0.4222
 9607TIP3    H150236   4.469   5.058  10.562  0.2117 -2.1550 -0.5037
 9607TIP3    H250237   4.441   5.097  10.419  0.7083  0.7693  0.1584
 9608TIP3   OH250238   3.644   4.655   4.947 -0.0616  0.1294  0.1113
 9608TIP3    H150239   3.688   4.645   4.863  1.1751  0.0628  0.7696
 9608TIP3    H250240   3.615   4.747   4.947  1.0301  0.4770  0.1434
 9609TIP3   OH250241   5.336   4.986  14.433 -0.4455  0.8275  0.0288
 9609TIP3    H150242   5.274   4.914  14.444 -0.3387  1.0730  2.3678
 9609TIP3    H250243   5.297   5.040  14.364 -1.1869 -0.7462 -0.8250
 9610TIP3   OH250244   1.548   3.866  10.691  0.1708  0.1251 -0.1013
 9610TIP3    H150245   1.461   3.851  10.655  0.2568  1.1912 -0.7665
 9610TIP3    H250246   1.533   3.915  10.771  0.1153 -0.2979  0.1464
 9611TIP3   OH250247   2.290   5.560   3.892 -0.2773 -0.4599  0.1579
 9611TIP3    H150248   2.272   5.482   3.840 -0.2644 -1.4370  1.5835
 9611TIP3    H250249   2.271   5.533   3.982 -1.2775  1.4997  0.5471
 9612TIP3   OH250250   0.638   2.475   1.635  0.4967 -0.5652 -0.2897
 9612TIP3    H150251   0.724   2.476   1.676  0.4432 -1.5336 -0.1272
 9612TIP3    H250252   0.618   2.566   1.616  1.4358 -0.3167 -0.0692
 9613TIP3   OH250253   5.954   5.870  12.220 -0.0955 -0.2774  0.1615
 9613TIP3    H150254   5.962   5.874  12.315  1.4745  0.8797  0.0002
 9613TIP3    H250255   5.880   5.927  12.199  1.0560  1.3801  0.5152
 9614TIP3   OH250256   4.886   4.271  16.714  0.1024  0.3271 -0.1201
 9614TIP3    H150257   4.925   4.193  16.751 -2.0915 -1.6286 -1.7810
 9614TIP3    H250258   4.792   4.255  16.718 -0.4349  3.3595  0.5083
 9615TIP3   OH250259   0.140   5.596   2.979 -0.1289  0.1886 -0.0664
 9615TIP3    H150260   0.121   5.598   3.073  0.3958  2.2055  0.0119
 9615TIP3    H250261   0.084   5.664   2.942  2.5633  2.2010 -0.6273
 9616TIP3   OH250262   0.626   3.707   5.765 -0.0861  0.0870 -0.1453
 9616TIP3    H150263   0.592   3.756   5.690 -1.7210  3.7469  2.7868
 9616TIP3    H250264   0.549   3.667   5.805  0.3555  0.5024  1.1498
 9617TIP3   OH250265   5.147   2.154   5.550 -0.5973  0.0083  0.3546
 9617TIP3    H150266   5.143   2.249   5.537  0.2974  0.0790  0.5894
 9617TIP3    H250267   5.168   2.119   5.464  2.5686  0.2809  0.9725
 9618TIP3   OH250268   4.027   6.350   1.054  0.0767  0.1042  0.1922
 9618TIP3    H150269   4.022   6.392   0.968 -0.0353  0.2353  0.2648
 9618TIP3    H250270   4.120   6.355   1.077 -0.0861  1.1093  0.6114
 9619TIP3   OH250271   4.760   2.689   5.264  0.2414  0.3162 -0.1715
 9619TIP3    H150272   4.696   2.681   5.335 -0.6595  1.1556 -0.8758
 9619TIP3    H250273   4.763   2.783   5.245  0.1751  0.0503 -1.5244
 9620TIP3   OH250274   6.249   2.006   3.065  0.2853  0.5378 -0.3488
 9620TIP3    H150275   6.229   2.091   3.104 -1.3193 -0.0980  0.2502
 9620TIP3    H250276   6.292   1.957   3.136 -1.2553 -0.0820  0.1885
 9621TIP3   OH250277   3.969   6.285   2.218  0.0521 -0.3458 -0.9093
 9621TIP3    H150278   3.899   6.275   2.154  0.3354 -1.9668 -0.9863
 9621TIP3    H250279   3.968   6.203   2.268  1.6078 -0.2084 -0.6272
 9622TIP3   OH250280   0.848   6.563   0.315  0.3519 -0.1730  0.4119
 9622TIP3    H150281   0.803   6.576   0.398 -0.2312 -0.0889  0.0852
 9622TIP3    H250282   0.779   6.571   0.249  1.1109  1.6531 -0.2022
 9623TIP3   OH250283   6.651   3.456  12.592  0.1382  0.1253 -0.2248
 9623TIP3    H150284   6.616   3.411  12.515 -1.5983  1.3421 -0.1708
 9623TIP3    H250285   6.574   3.489  12.637  1.2214  0.4752  1.3982
 9624TIP3   OH250286   2.635   6.073  12.388  0.0797  0.0424  0.0342
 9624TIP3    H150287   2.546   6.100  12.365 -0.2105  1.2462  2.4019
 9624TIP3    H250288   2.679   6.155  12.412  0.5320 -1.0067  2.9791
 9625TIP3   OH250289   2.624   3.406  16.069  0.1282  0.1312  0.2696
 9625TIP3    H150290   2.663   3.479  16.021 -0.0559  0.5629  0.7650
 9625TIP3    H250291   2.576   3.357  16.002  0.3969  0.3636 -0.0990
 9626TIP3   OH250292   6.091   3.026   4.641  0.4249  0.5204 -0.3092
 9626TIP3    H150293   6.014   2.983   4.679  1.0256  0.8220  1.3358
 9626TIP3    H250294   6.097   3.110   4.687  0.4355  1.4890 -2.0550
 9627TIP3   OH250295   1.161   4.872  11.574 -0.7013 -0.1214  0.5179
 9627TIP3    H150296   1.109   4.818  11.515 -1.0949 -0.2139  0.9525
 9627TIP3    H250297   1.097   4.918  11.628 -0.3521  0.2713  0.6066
 9628TIP3   OH250298   3.599   4.107  14.845 -0.1897  0.5457  0.0508
 9628TIP3    H150299   3.641   4.193  14.833 -0.5784  0.8598  0.9327
 9628TIP3    H250300   3.544   4.097  14.767  0.2501  0.8710 -0.3056
 9629TIP3   OH250301   3.935   5.229  11.806  0.1981  0.0172  0.2414
 9629TIP3    H150302   4.003   5.222  11.738  1.3267  4.0697  0.8183
 9629TIP3    H250303   3.979   5.274  11.879 -1.7388 -1.8722  2.6591
 9630TIP3   OH250304   1.934   1.297  12.190  0.0988 -0.7548  0.6290
 9630TIP3    H150305   1.972   1.355  12.255  0.3104 -1.2186  0.9152
 9630TIP3    H250306   1.861   1.347  12.153  1.3129  0.3410 -0.3104
 9631TIP3   OH250307   0.688   1.729  12.579  0.1046 -0.2128  0.6571
 9631TIP3    H150308   0.630   1.719  12.654  0.2408 -0.1614  0.7699
 9631TIP3    H250309   0.703   1.823  12.571  0.2176 -0.2293  0.6631
 9632TIP3   OH250310   6.779   0.525   2.556 -0.3264 -0.1409  0.4096
 9632TIP3    H150311   6.716   0.466   2.599  0.5801  0.7946  3.1254
 9632TIP3    H250312   6.743   0.612   2.569  0.3884  0.2270 -0.0691
 9633TIP3   OH250313   5.297   5.060  16.565 -0.4778  0.1304 -0.7295
 9633TIP3    H150314   5.268   5.140  16.521 -2.5105  0.2875  0.8211
 9633TIP3    H250315   5.303   5.084  16.658 -1.2775 -1.5576 -0.2162
 9634TIP3   OH250316   4.049   2.921   5.265  0.3070  0.2313  0.0226
 9634TIP3    H150317   3.997   2.888   5.338  0.9561 -0.4687  0.1754
 9634TIP3    H250318   3.995   2.906   5.188 -0.5676  1.3838  0.4115
 9635TIP3   OH250319   3.050   0.270  11.228 -0.3406  0.5010 -0.3569
 9635TIP3    H150320   3.060   0.275  11.323 -0.2649  0.8250 -0.3840
 9635TIP3    H250321   3.018   0.356  11.202 -0.7168  0.2983 -0.5828
 9636TIP3   OH250322   4.705   2.754   4.753 -0.0589  0.4241 -0.4715
 9636TIP3    H150323   4.622   2.721   4.719  0.0220 -0.2896  0.0293
 9636TIP3    H250324   4.727   2.827   4.694  0.2545 -1.0295 -2.1802
 9637TIP3   OH250325   3.215   5.289  13.958  0.2029  0.0285 -0.4420
 9637TIP3    H150326   3.186   5.380  13.948 -4.5789 -1.2942  0.1950
 9637TIP3    H250327   3.257   5.287  14.044 -1.4167  1.2562  0.4166
 9638TIP3   OH250328   5.336   4.680   0.666  0.4423  0.1670  0.0935
 9638TIP3    H150329   5.395   4.624   0.715  0.7730  0.7092  0.3152
 9638TIP3    H250330   5.249   4.644   0.682  0.7748 -1.1059 -0.8630
 9639TIP3   OH250331   4.294   2.255  15.282  0.0247 -0.4260  0.5402
 9639TIP3    H150332   4.245   2.312  15.223  1.5843  1.0555  0.6704
 9639TIP3    H250333   4.226   2.208  15.331 -1.2723 -0.8826 -1.6431
 9640TIP3   OH250334   2.250   0.783  15.559 -0.2851 -0.3379  0.3425
 9640TIP3    H150335   2.191   0.764  15.487 -0.7498 -0.4697  0.7542
 9640TIP3    H250336   2.249   0.879  15.566  1.4445 -0.1964 -1.2228
 9641TIP3   OH250337   2.712   0.046   3.076 -0.3203 -0.3794  0.4596
 9641TIP3    H150338   2.722  -0.040   3.035  1.0041 -1.1236  2.3035
 9641TIP3    H250339   2.618   0.061   3.077 -0.5548 -1.7623  0.0485
 9642TIP3   OH250340   2.443   3.628   2.966  0.4225  0.1976  0.0156
 9642TIP3    H150341   2.508   3.558   2.956 -0.8146 -1.0990  0.8135
 9642TIP3    H250342   2.492   3.709   2.951  1.7973 -0.8485 -1.3440
 9643TIP3   OH250343   1.319   1.550  12.712 -0.5383  0.1167 -0.5508
 9643TIP3    H150344   1.224   1.557  12.705 -0.5073  0.1752 -0.9551
 9643TIP3    H250345   1.336   1.532  12.804 -0.8347  1.8950 -0.1396
 9644TIP3   OH250346   0.276   5.819   2.797 -0.1766  0.5869  0.4466
 9644TIP3    H150347   0.278   5.750   2.731 -3.4471  0.0660  0.8183
 9644TIP3    H250348   0.317   5.780   2.874 -0.1350 -0.2403  0.0088
 9645TIP3   OH250349   6.496   4.478   2.163 -0.0977  0.0651 -0.0184
 9645TIP3    H150350   6.506   4.497   2.257 -1.2388 -0.7651  0.2768
 9645TIP3    H250351   6.574   4.517   2.123  1.3906 -1.2856  1.4995
 9646TIP3   OH250352   6.672   6.612  15.211 -0.6970 -0.1555 -0.1837
 9646TIP3    H150353   6.743   6.548  15.202 -1.7104 -1.7127  2.3250
 9646TIP3    H250354   6.625   6.584  15.290 -1.3805  3.5034  0.7777
 9647TIP3   OH250355   5.332   1.877   5.890  0.6586  0.2270 -0.4101
 9647TIP3    H150356   5.312   1.920   5.974 -0.0299 -0.6111 -0.1355
 9647TIP3    H250357   5.268   1.914   5.829  1.5271  1.2620 -0.7104
 9648TIP3   OH250358   3.235   2.395   0.299  0.3826  0.7173 -0.5887
 9648TIP3    H150359   3.249   2.487   0.321  1.0461 -0.0760  2.5635
 9648TIP3    H250360   3.175   2.363   0.366  0.9627 -1.3827 -1.0288
 9649TIP3   OH250361   5.948   5.479  12.228 -0.2565  0.3157 -0.0800
 9649TIP3    H150362   6.011   5.519  12.288 -0.1331  0.2847 -0.1878
 9649TIP3    H250363   5.885   5.549  12.209 -2.1637 -0.5604  2.6275
 9650TIP3   OH250364   5.907   3.450  11.703  0.3697 -0.1614 -0.0297
 9650TIP3    H150365   5.962   3.514  11.657  1.5544  1.1117  3.0451
 9650TIP3    H250366   5.969   3.391  11.745 -0.6985 -1.2679  0.0185
 9651TIP3   OH250367   2.610   6.316  13.653  0.1995  0.8710  0.1274
 9651TIP3    H150368   2.528   6.278  13.686 -0.1150  0.4821 -1.0691
 9651TIP3    H250369   2.663   6.240  13.628  1.3827  1.0777  1.8906
 9652TIP3   OH250370   5.541   0.578   4.586  0.0961 -0.6833  0.1088
 9652TIP3    H150371   5.608   0.598   4.652  1.0865 -0.4410 -0.9527
 9652TIP3    H250372   5.524   0.485   4.597  0.6081 -0.7463  0.4041
 9653TIP3   OH250373   1.478   3.033  13.701  0.3044  0.5530 -0.6359
 9653TIP3    H150374   1.559   3.076  13.731 -0.5369  0.8210  1.3190
 9653TIP3    H250375   1.410   3.098  13.716 -0.5450 -0.3468 -0.5678
 9654TIP3   OH250376   3.164   5.043   2.570  0.3924  0.4117 -0.6294
 9654TIP3    H150377   3.248   5.011   2.535  0.8092 -0.1187  0.7995
 9654TIP3    H250378   3.099   4.982   2.535  0.8669 -0.4382 -0.0614
 9655TIP3   OH250379   4.253   3.869   4.905  0.4562 -0.0321  0.3348
 9655TIP3    H150380   4.311   3.895   4.977  0.1283  1.0393  0.2203
 9655TIP3    H250381   4.268   3.775   4.895  0.7497 -0.1314  1.5883
 9656TIP3   OH250382   1.890   3.228  16.210 -0.1831  0.4854 -0.5059
 9656TIP3    H150383   1.899   3.319  16.238  0.3204  0.4593 -0.5892
 9656TIP3    H250384   1.965   3.212  16.154  0.1795 -0.2276  0.1624
 9657TIP3   OH250385   4.989   6.019   1.506 -0.8921 -0.1637  0.2277
 9657TIP3    H150386   5.004   6.112   1.522 -1.2874  0.3479 -2.1071
 9657TIP3    H250387   5.077   5.980   1.507 -0.5508  0.5587 -0.5068
 9658TIP3   OH250388   4.035   6.455  11.330 -0.1023 -0.0401  0.1391
 9658TIP3    H150389   3.995   6.441  11.416 -0.4214 -0.2310 -0.0372
 9658TIP3    H250390   3.966   6.432  11.268  0.0485  0.3331 -0.1676
 9659TIP3   OH250391   6.462   3.122   1.963 -0.2420 -0.0096 -0.3055
 9659TIP3    H150392   6.376   3.137   2.002  0.4232  0.4618  1.0045
 9659TIP3    H250393   6.523   3.123   2.037  0.9010 -0.2995 -1.2231
 9660TIP3   OH250394   0.697   4.865   4.190  0.0270  0.7618 -0.1620
 9660TIP3    H150395   0.676   4.845   4.098 -1.3717  0.0796  0.2964
 9660TIP3    H250396   0.649   4.800   4.240  0.6054  1.2804  1.0757
 9661TIP3   OH250397   5.943   1.897  10.570  0.4617 -0.1455  0.1947
 9661TIP3    H150398   5.906   1.821  10.526  0.0698  0.0373  0.2002
 9661TIP3    H250399   5.882   1.969  10.548  1.2131  0.3189 -0.4114
 9662TIP3   OH250400   1.256   4.178   4.041 -0.1802 -0.5478  0.1234
 9662TIP3    H150401   1.174   4.144   4.004 -0.1074 -0.9404  0.3261
 9662TIP3    H250402   1.228   4.229   4.117 -0.3984  0.9011 -0.9010
 9663TIP3   OH250403   1.007   5.081  12.650 -0.0056  0.2891 -0.1790
 9663TIP3    H150404   1.028   5.174  12.654 -0.3629  0.5234 -2.6963
 9663TIP3    H250405   0.912   5.078  12.662 -0.2032  0.4283 -1.5211
 9664TIP3   OH250406   3.974   3.352   0.170  0.0178  0.4579  0.0738
 9664TIP3    H150407   4.067   3.331   0.179 -0.3555 -0.9050  0.9406
 9664TIP3    H250408   3.931   3.266   0.165 -1.1328  1.0763 -0.9849
 9665TIP3   OH250409   5.564   0.187   0.854 -0.9735 -0.2403 -0.4078
 9665TIP3    H150410   5.480   0.194   0.900 -0.5655  0.7558  0.1927
 9665TIP3    H250411   5.563   0.258   0.790 -0.2970  0.2100  0.0758
 9666TIP3   OH250412   0.348   3.687   2.439 -0.7301 -0.2081 -0.4165
 9666TIP3    H150413   0.350   3.757   2.504  0.5787 -0.4733 -0.1432
 9666TIP3    H250414   0.383   3.611   2.485  0.3337 -0.3688 -1.4630
 9667TIP3   OH250415   5.082   0.557  16.753  0.3798  0.0100 -0.5018
 9667TIP3    H150416   5.069   0.652  16.760  1.8409  0.2582 -0.9885
 9667TIP3    H250417   5.157   0.547  16.694  1.6032 -1.3930  1.2449
 9668TIP3   OH250418   0.540   3.819   2.167  0.0358 -0.9110 -0.3017
 9668TIP3    H150419   0.566   3.748   2.109 -1.0219 -1.7658  0.2613
 9668TIP3    H250420   0.621   3.848   2.208  0.8212 -0.2072 -2.2855
 9669TIP3   OH250421   0.741   5.382  11.628  0.2698 -0.1984  0.0384
 9669TIP3    H150422   0.778   5.376  11.540  0.8185  0.5926  0.2118
 9669TIP3    H250423   0.726   5.476  11.641  2.6604 -0.0291  1.7895
 9670TIP3   OH250424   6.734   6.603   3.096 -0.1066  0.1080  0.5907
 9670TIP3    H150425   6.822   6.577   3.122  0.0599  0.8901  0.8239
 9670TIP3    H250426   6.746   6.643   3.010 -0.1328  0.8240  0.9150
 9671TIP3   OH250427   5.267   3.571   3.097  0.8565  0.6907 -0.0071
 9671TIP3    H150428   5.195   3.620   3.059  1.0769  0.7602 -0.3350
 9671TIP3    H250429   5.329   3.559   3.025  0.0743 -1.4756 -0.3494
 9672TIP3   OH250430   1.835   6.068   5.422 -0.5549  0.1522 -0.3641
 9672TIP3    H150431   1.857   5.982   5.386  0.5376 -0.1727  1.0369
 9672TIP3    H250432   1.740   6.065   5.437 -0.0909 -2.0118  2.6422
 9673TIP3   OH250433   5.853   0.056  15.039 -0.1886 -0.1855  0.5228
 9673TIP3    H150434   5.842  -0.012  15.106 -0.8529 -1.0337 -0.4368
 9673TIP3    H250435   5.772   0.106  15.043 -2.1903 -2.9184 -2.5971
 9674TIP3   OH250436   3.941   6.782   2.454  0.0322 -0.6893  0.1425
 9674TIP3    H150437   3.979   6.846   2.394 -0.6005 -1.5882 -1.2386
 9674TIP3    H250438   3.991   6.792   2.535  1.1106  0.3044 -0.6338
 9675TIP3   OH250439   4.056   0.398   3.312 -0.6072  0.2451 -0.4471
 9675TIP3    H150440   4.039   0.469   3.251 -0.4809 -0.4412 -1.2901
 9675TIP3    H250441   4.062   0.319   3.257  0.8005 -0.1913  0.2851
 9676TIP3   OH250442   5.400   0.007   3.194  0.2411  0.0340 -0.1401
 9676TIP3    H150443   5.410  -0.083   3.224 -0.2115  0.0481  0.0721
 9676TIP3    H250444   5.421   0.060   3.270  3.8706  0.2132 -1.2093
 9677TIP3   OH250445   6.584   5.834   2.156 -0.0736 -0.3202  0.5273
 9677TIP3    H150446   6.597   5.771   2.085 -1.4040  0.0116 -0.0230
 9677TIP3    H250447   6.493   5.863   2.147 -0.0741  0.1889  1.9973
 9678TIP3   OH250448   5.668   1.996   5.052  0.2363  0.7971  0.0904
 9678TIP3    H150449   5.707   1.989   5.139  0.1157 -1.0887  0.0128
 9678TIP3    H250450   5.743   2.003   4.992  0.3868 -0.0370  0.1760
 9679TIP3   OH250451   2.504   3.684   0.843 -0.4407  0.0803  0.6192
 9679TIP3    H150452   2.527   3.739   0.918  2.4990 -0.5179  0.1987
 9679TIP3    H250453   2.519   3.741   0.767 -1.2359 -0.0384  0.3714
 9680TIP3   OH250454   0.268   5.786   0.413  0.0978 -0.4154  0.0860
 9680TIP3    H150455   0.302   5.820   0.496  0.7405 -1.2023  0.1460
 9680TIP3    H250456   0.228   5.703   0.436 -1.2476  0.1685 -0.1130
 9681TIP3   OH250457   6.638   6.273   4.002  0.0679  0.3973  0.1013
 9681TIP3    H150458   6.622   6.190   4.048 -1.6331  1.0310  0.7103
 9681TIP3    H250459   6.707   6.316   4.052 -0.9114  0.5309  1.3643
 9682TIP3   OH250460   2.469   4.273   3.509  0.2916  0.1539  0.0249
 9682TIP3    H150461   2.397   4.332   3.485 -1.7310 -2.0181  0.5168
 9682TIP3    H250462   2.431   4.214   3.574  1.8747 -2.4110 -1.2494
 9683TIP3   OH250463   2.440   3.225  10.711 -0.9527  0.1083  0.0656
 9683TIP3    H150464   2.419   3.318  10.706  0.7465  0.4781 -0.5412
 9683TIP3    H250465   2.365   3.186  10.756 -2.1785  1.5935 -0.6177
 9684TIP3   OH250466   3.812   4.713  11.297  0.0040 -0.1189  0.1786
 9684TIP3    H150467   3.821   4.679  11.208 -0.0996 -2.0539  0.8774
 9684TIP3    H250468   3.813   4.808  11.287 -0.2863 -0.3143 -1.9142
 9685TIP3   OH250469   2.820   1.277  13.270 -0.1319  0.2058 -0.4818
 9685TIP3    H150470   2.863   1.192  13.275  0.7390  0.5334 -2.1044
 9685TIP3    H250471   2.733   1.262  13.307  0.2009 -1.2574 -0.2493
 9686TIP3   OH250472   3.175   4.702  14.365 -0.0626 -0.3713 -0.2706
 9686TIP3    H150473   3.203   4.793  14.355 -0.4276 -0.2489 -0.1885
 9686TIP3    H250474   3.208   4.658  14.286  1.1753 -0.4356  0.2769
 9687TIP3   OH250475   6.715   5.480   5.629 -0.4045  0.3492  0.3099
 9687TIP3    H150476   6.674   5.487   5.715  2.0543  2.1231  1.4025
 9687TIP3    H250477   6.809   5.472   5.648  0.5126  3.7737 -2.2184
 9688TIP3   OH250478   1.533   0.638  13.892 -0.5853  0.8134 -0.5542
 9688TIP3    H150479   1.600   0.678  13.948  0.5433 -0.5366 -0.8975
 9688TIP3    H250480   1.539   0.686  13.810 -0.0995  0.7680 -0.5513
 9689TIP3   OH250481   1.769   6.717   3.852 -0.1865 -0.7261  0.3779
 9689TIP3    H150482   1.680   6.683   3.840  0.1344 -1.6094  0.4734
 9689TIP3    H250483   1.826   6.642   3.837  0.4505 -0.6880  2.3911
 9690TIP3   OH250484   3.843   6.025   4.157  0.7533  0.2732 -0.8282
 9690TIP3    H150485   3.807   6.085   4.222  0.6141 -0.7490  0.0582
 9690TIP3    H250486   3.918   5.985   4.201  0.3334 -0.8272 -1.0922
 9691TIP3   OH250487   1.471   2.397  15.377  0.3796  0.4659  0.3451
 9691TIP3    H150488   1.412   2.331  15.415 -0.0741 -0.0060 -1.1298
 9691TIP3    H250489   1.452   2.477  15.425 -0.9354  0.1323  0.4069
 9692TIP3   OH250490   3.232   4.199  11.981  0.8716  0.3690 -0.7629
 9692TIP3    H150491   3.283   4.131  12.025 -1.0805 -0.5706  0.1263
 9692TIP3    H250492   3.229   4.271  12.044  0.3103  0.0486 -0.4172
 9693TIP3   OH250493   5.672   5.486  15.093  0.0453  0.4200 -0.4498
 9693TIP3    H150494   5.700   5.540  15.019 -0.5388  0.4042 -0.6868
 9693TIP3    H250495   5.698   5.397  15.069 -0.4903  0.3588 -0.8167
 9694TIP3   OH250496   4.803   2.843  13.287  0.0574 -0.3697  0.5059
 9694TIP3    H150497   4.746   2.818  13.360  1.2783 -0.8341  1.3264
 9694TIP3    H250498   4.804   2.766  13.231 -1.5732  0.2970 -0.4634
 9695TIP3   OH250499   3.797   0.667  11.815  0.1975 -0.0154 -0.1721
 9695TIP3    H150500   3.839   0.671  11.729  0.1537 -1.1482 -0.2541
 9695TIP3    H250501   3.791   0.574  11.835 -0.1090  0.2238  0.9097
 9696TIP3   OH250502   6.670   1.086  10.674 -0.1894  0.5096 -0.6243
 9696TIP3    H150503   6.756   1.121  10.698  0.4028 -0.5031 -1.2337
 9696TIP3    H250504   6.634   1.150  10.613  0.1183  0.9450 -0.3515
 9697TIP3   OH250505   5.461   6.020  16.252 -0.4088 -0.5263  0.1836
 9697TIP3    H150506   5.472   5.969  16.333  0.0564 -0.7570 -0.0169
 9697TIP3    H250507   5.550   6.047  16.229 -0.5751 -0.2137 -0.0886
 9698TIP3   OH250508   4.915   4.391  13.309  0.6938  0.4126 -0.0827
 9698TIP3    H150509   4.951   4.305  13.286 -1.7136 -0.4343 -0.8161
 9698TIP3    H250510   4.992   4.446  13.320  2.2849 -1.7915  0.2286
 9699TIP3   OH250511   2.340   0.939   0.667  0.4701  0.3597  0.6179
 9699TIP3    H150512   2.402   0.867   0.678 -1.3715 -1.1860  1.0097
 9699TIP3    H250513   2.291   0.916   0.588 -0.7034  0.7544  1.2282
 9700TIP3   OH250514   0.272   6.481   0.908 -0.5730 -0.3159  0.6430
 9700TIP3    H150515   0.305   6.391   0.903  2.1475  0.7072 -1.2328
 9700TIP3    H250516   0.202   6.484   0.843 -0.0555 -0.8810  0.0393
 9701TIP3   OH250517   4.475   4.039  13.115  0.4883 -0.8873  0.2836
 9701TIP3    H150518   4.543   4.088  13.162 -1.1029  0.3944  1.2938
 9701TIP3    H250519   4.497   4.050  13.023  0.5181  1.2322  0.5272
 9702TIP3   OH250520   4.043   1.137   2.317  0.2957  0.1040  0.0904
 9702TIP3    H150521   3.982   1.065   2.302 -1.7336  2.0611 -1.2842
 9702TIP3    H250522   4.034   1.157   2.410 -0.3818 -0.3180  0.1204
 9703TIP3   OH250523   0.720   0.010  11.288 -0.6946  0.2913 -0.5536
 9703TIP3    H150524   0.759   0.042  11.369 -1.1284 -1.0960  0.2198
 9703TIP3    H250525   0.791  -0.035  11.243 -0.2269  1.8107 -1.3815
 9704TIP3   OH250526   0.513   4.407   6.498 -0.4904  0.1497 -0.7264
 9704TIP3    H150527   0.501   4.476   6.433  1.1166  0.4009 -0.7737
 9704TIP3    H250528   0.486   4.448   6.581 -0.2065  0.6133 -0.8622
 9705TIP3   OH250529   6.114   6.698  13.396  0.0724  0.2756  0.3145
 9705TIP3    H150530   6.144   6.754  13.468  0.5897  0.7784 -0.2920
 9705TIP3    H250531   6.152   6.612  13.416  0.3586  0.4546  0.5463
 9706TIP3   OH250532   2.547   0.929   5.669  0.3817 -0.5587  0.4026
 9706TIP3    H150533   2.586   0.909   5.584 -2.1584 -1.8075 -0.4917
 9706TIP3    H250534   2.460   0.963   5.649  0.5583  1.2330  2.4265
 9707TIP3   OH250535   3.709   5.558  11.199 -0.7103  0.2837  0.4651
 9707TIP3    H150536   3.647   5.617  11.156  0.2168  0.2959 -0.8825
 9707TIP3    H250537   3.708   5.479  11.145 -0.1613 -0.0208  0.8989
 9708TIP3   OH250538   3.438   5.714   1.149 -0.2960 -0.3263 -0.3265
 9708TIP3    H150539   3.428   5.694   1.056 -0.2905 -0.8910 -0.2080
 9708TIP3    H250540   3.359   5.679   1.190 -0.8045  0.9001 -0.2732
 9709TIP3   OH250541   6.438   6.761  12.124 -0.9036 -0.5929  0.0644
 9709TIP3    H150542   6.384   6.691  12.088 -1.4144 -0.1625 -0.0151
 9709TIP3    H250543   6.519   6.758  12.073 -0.2344 -2.2191  1.1789
 9710TIP3   OH250544   1.453   5.888  11.148 -0.1083  0.6125 -0.1453
 9710TIP3    H150545   1.376   5.893  11.204 -0.0639 -1.7303  0.1740
 9710TIP3    H250546   1.427   5.930  11.066 -0.9919  1.8054  0.7491
 9711TIP3   OH250547   2.230   0.849   0.436  0.3847  0.4142  0.4554
 9711TIP3    H150548   2.223   0.904   0.358  1.0978  0.5057  0.4510
 9711TIP3    H250549   2.164   0.781   0.423  0.5064  0.4199 -0.2395
 9712TIP3   OH250550   6.251   6.197  10.721  0.2966 -0.1361 -0.5112
 9712TIP3    H150551   6.345   6.216  10.727  0.2161  0.2604 -0.4414
 9712TIP3    H250552   6.240   6.156  10.636  0.4638  0.2672 -0.7290
 9713TIP3   OH250553   3.988   5.683   0.414  0.2020 -0.6768 -0.3417
 9713TIP3    H150554   3.952   5.595   0.408  0.6507 -1.0632  1.9977
 9713TIP3    H250555   4.078   5.675   0.384  0.0506 -0.8817 -0.7375
 9714TIP3   OH250556   1.362   5.172   5.395  0.0557 -0.5055 -0.0165
 9714TIP3    H150557   1.388   5.224   5.471  1.9185 -1.4093 -0.0366
 9714TIP3    H250558   1.273   5.204   5.375  0.5366  1.5545  0.9372
 9715TIP3   OH250559   4.929   3.100  14.883 -0.5374  0.7210 -0.3646
 9715TIP3    H150560   5.015   3.141  14.870 -1.2475  1.9195 -1.4587
 9715TIP3    H250561   4.905   3.121  14.973  1.2079 -1.3749  0.6213
 9716TIP3   OH250562   6.660   2.635   4.795  0.1987  0.4626 -0.1770
 9716TIP3    H150563   6.732   2.698   4.785  1.5210 -1.0365 -0.3889
 9716TIP3    H250564   6.642   2.604   4.707  0.7781 -0.7389  0.1028
 9717TIP3   OH250565   0.769   5.031   0.456 -0.1812  0.0145 -0.0360
 9717TIP3    H150566   0.731   4.994   0.376  0.7789 -0.7568 -0.1457
 9717TIP3    H250567   0.782   4.955   0.513 -0.0207  0.4476  0.5010
 9718TIP3   OH250568   4.666   5.888   0.187  0.4159  0.1742 -0.6772
 9718TIP3    H150569   4.614   5.812   0.214  0.1068  0.2797 -0.9635
 9718TIP3    H250570   4.666   5.884   0.091 -1.0766  1.4991 -0.7596
 9719TIP3   OH250571   4.975   0.285  16.792 -0.6802 -0.4070 -0.2838
 9719TIP3    H150572   4.993   0.372  16.756  0.0477 -0.9511 -1.2339
 9719TIP3    H250573   5.038   0.274  16.863 -1.3965  0.2177  0.4613
 9720TIP3   OH250574   5.166   1.544   3.060  0.3133  0.2814  0.4641
 9720TIP3    H150575   5.241   1.523   3.004  0.1548 -0.5887  0.5665
 9720TIP3    H250576   5.136   1.629   3.028  0.1869 -0.2320 -0.8348
 9721TIP3   OH250577   1.145   4.218   0.858  0.2508 -0.3531  0.3491
 9721TIP3    H150578   1.229   4.180   0.882 -0.1495 -0.7106  1.2401
 9721TIP3    H250579   1.124   4.181   0.773  1.3514  0.3384 -0.2359
 9722TIP3   OH250580   1.097   2.184   4.853  0.1326 -0.4263  0.3651
 9722TIP3    H150581   1.186   2.204   4.822 -0.2590 -0.7616 -1.0271
 9722TIP3    H250582   1.110   2.116   4.919  0.9784  0.0876  0.7370
 9723TIP3   OH250583   2.048   6.332  10.759 -0.4155 -0.0819 -0.6699
 9723TIP3    H150584   2.097   6.255  10.729  0.6856  0.5804 -0.5873
 9723TIP3    H250585   2.108   6.405  10.746 -0.8554  0.5497  0.8050
 9724TIP3   OH250586   3.954   1.165   2.587 -0.1217 -0.2863 -0.7782
 9724TIP3    H150587   3.992   1.163   2.675 -2.2013 -2.0374  0.1098
 9724TIP3    H250588   3.860   1.155   2.601 -0.5513  0.1255 -3.1694
 9725TIP3   OH250589   0.169   4.030  11.018 -0.1520  0.0326  0.2415
 9725TIP3    H150590   0.132   3.999  11.100  1.2407 -1.2149  0.4050
 9725TIP3    H250591   0.137   4.121  11.011 -0.6150  0.0200  1.9378
 9726TIP3   OH250592   1.404   2.877   3.170  0.5328 -0.5280  0.5674
 9726TIP3    H150593   1.345   2.952   3.178  2.1039  0.6083  1.8513
 9726TIP3    H250594   1.346   2.802   3.155 -1.2007  0.6251  1.3324
 9727TIP3   OH250595   0.314   1.893  15.098  0.1221  0.0418 -0.3130
 9727TIP3    H150596   0.231   1.917  15.058 -0.2215 -0.0641  0.3309
 9727TIP3    H250597   0.338   1.970  15.150  0.9007  0.4415 -1.2486
 9728TIP3   OH250598   1.454   4.350  12.629 -0.4534 -0.0070 -0.3841
 9728TIP3    H150599   1.395   4.425  12.624 -0.4927  0.1833  2.1709
 9728TIP3    H250600   1.398   4.276  12.650 -0.0943 -0.2945 -0.4312
 9729TIP3   OH250601   1.171   0.429  13.386 -0.2801  0.9286 -0.2789
 9729TIP3    H150602   1.221   0.383  13.319 -0.0652  0.2178  0.3589
 9729TIP3    H250603   1.225   0.504  13.409  0.4763  0.2179  0.3389
 9730TIP3   OH250604   2.108   4.835   4.564  0.0004 -0.8753  0.0433
 9730TIP3    H150605   2.044   4.786   4.616 -0.7929 -0.8520 -0.8938
 9730TIP3    H250606   2.192   4.797   4.590 -0.4094 -1.1643  1.0169
 9731TIP3   OH250607   0.967   5.260   5.607 -0.0001 -0.5952  0.0475
 9731TIP3    H150608   0.910   5.183   5.606  0.2259 -0.7707  0.4419
 9731TIP3    H250609   1.015   5.255   5.525  1.0007 -1.6255  0.6781
 9732TIP3   OH250610   4.272   2.310  13.498  0.0908 -0.7995 -0.1988
 9732TIP3    H150611   4.352   2.359  13.513  0.8893 -1.4426 -2.2592
 9732TIP3    H250612   4.276   2.237  13.560  0.4590 -0.1228  0.5858
 9733TIP3   OH250613   1.126   6.428   4.942  0.4048  0.3939 -0.1655
 9733TIP3    H150614   1.142   6.419   4.848 -0.5187  0.4447 -0.3354
 9733TIP3    H250615   1.174   6.355   4.982  1.5689  0.9158 -0.5839
 9734TIP3   OH250616   1.776   5.482  13.186  0.0235  0.2929  0.1964
 9734TIP3    H150617   1.844   5.526  13.134  0.2926  1.5770  1.5885
 9734TIP3    H250618   1.818   5.468  13.271 -1.0327 -0.0782  0.6511
 9735TIP3   OH250619   3.671   1.909  16.093  0.2962  0.5481 -0.4480
 9735TIP3    H150620   3.588   1.904  16.140  1.0426  0.4228  0.9011
 9735TIP3    H250621   3.731   1.855  16.145  1.0560  0.0999 -1.7659
 9736TIP3   OH250622   6.724   4.939   3.573 -0.3480 -0.4085 -0.1972
 9736TIP3    H150623   6.740   5.030   3.550  0.5005 -0.8301 -1.3314
 9736TIP3    H250624   6.810   4.903   3.594 -0.3882 -1.4582 -1.7292
 9737TIP3   OH250625   1.514   2.685  12.554  0.2812  0.2054 -0.5928
 9737TIP3    H150626   1.524   2.605  12.606 -0.1710 -0.1359 -1.0173
 9737TIP3    H250627   1.499   2.754  12.618 -2.7686 -0.5970 -0.3415
 9738TIP3   OH250628   4.425   4.330  12.033  0.4038  0.0573  0.3452
 9738TIP3    H150629   4.372   4.346  12.112  1.8311  0.5605  1.2159
 9738TIP3    H250630   4.362   4.299  11.968 -0.6402 -1.4064  2.0104
 9739TIP3   OH250631   4.948   6.654  16.724 -0.0010  0.3655  0.2741
 9739TIP3    H150632   5.032   6.685  16.759  0.5413 -1.0980  0.2993
 9739TIP3    H250633   4.896   6.635  16.802 -0.0671  0.5144  0.2681
 9740TIP3   OH250634   4.257   4.130   2.998  0.7606 -0.6938 -0.1677
 9740TIP3    H150635   4.276   4.195   3.066 -0.8658 -0.4701  0.0831
 9740TIP3    H250636   4.175   4.159   2.959 -0.8974 -3.5301  1.0766
 9741TIP3   OH250637   1.409   1.166  11.966 -0.5206 -0.6200  0.2654
 9741TIP3    H150638   1.418   1.071  11.970 -2.1919 -0.8278 -0.8729
 9741TIP3    H250639   1.406   1.187  11.873  0.7316  0.6537  0.4823
 9742TIP3   OH250640   5.564   0.586  13.123 -0.1507  0.3597  1.0054
 9742TIP3    H150641   5.560   0.554  13.213 -2.2110 -1.4074  0.3452
 9742TIP3    H250642   5.474   0.577  13.091  0.7343  0.1111 -1.4876
 9743TIP3   OH250643   1.881   5.578  12.708  0.0128 -0.4290 -0.4132
 9743TIP3    H150644   1.917   5.665  12.725  0.4507 -0.9274  1.3429
 9743TIP3    H250645   1.823   5.591  12.633  1.0482  1.1103 -0.9868
 9744TIP3   OH250646   5.170   1.440  13.733 -0.0141 -0.6607  0.6473
 9744TIP3    H150647   5.118   1.474  13.806 -0.7166 -1.9874  0.7970
 9744TIP3    H250648   5.260   1.465  13.754 -0.2975 -0.4036  1.6077
 9745TIP3   OH250649   5.799   0.288   6.318  0.4183  0.0851 -0.3678
 9745TIP3    H150650   5.748   0.356   6.361  0.6806 -2.3430  4.0916
 9745TIP3    H250651   5.739   0.214   6.309  2.0252 -1.5127  1.4990
 9746TIP3   OH250652   2.613   3.731  17.026 -0.0401 -0.0444 -0.2499
 9746TIP3    H150653   2.703   3.702  17.008  0.8839  2.7286 -0.2729
 9746TIP3    H250654   2.574   3.740  16.939 -0.1881 -0.7265 -0.2597
 9747TIP3   OH250655   2.174   0.146   6.274  0.3315 -0.2132  0.2717
 9747TIP3    H150656   2.167   0.240   6.256  0.8890  0.1558  1.9353
 9747TIP3    H250657   2.085   0.118   6.296  0.2796  0.0460  0.3839
 9748TIP3   OH250658   6.355   4.910  13.141  0.3911  0.1261  0.0404
 9748TIP3    H150659   6.369   4.866  13.224 -1.4762 -1.0986 -0.2653
 9748TIP3    H250660   6.396   4.853  13.076  0.3819  0.2380 -0.0635
 9749TIP3   OH250661   5.777   3.004   3.937 -0.1294 -0.2956  0.3181
 9749TIP3    H150662   5.766   2.980   3.845  1.2847 -1.5196  0.4390
 9749TIP3    H250663   5.860   3.052   3.939 -0.2504 -0.1109  0.9148
 9750TIP3   OH250664   5.451   5.685  14.261 -0.0970 -0.0167 -0.3154
 9750TIP3    H150665   5.403   5.742  14.201  1.7397  1.7214 -0.1655
 9750TIP3    H250666   5.404   5.693  14.345 -2.1337 -1.7639 -1.2439
 9751TIP3   OH250667   2.151   3.721   6.092 -0.4699  0.4634  0.0560
 9751TIP3    H150668   2.137   3.793   6.153  0.9703  0.3516  0.5592
 9751TIP3    H250669   2.081   3.658   6.112 -0.0734  0.4607  1.5614
 9752TIP3   OH250670   6.424   5.789   6.133  0.1041 -0.2981 -0.4543
 9752TIP3    H150671   6.464   5.848   6.198 -0.3443  1.4446 -1.7196
 9752TIP3    H250672   6.331   5.809   6.136 -0.1391 -1.4024 -0.4595
 9753TIP3   OH250673   5.708   0.628   0.477 -0.4019 -0.1935 -0.1930
 9753TIP3    H150674   5.612   0.635   0.478 -0.4877 -0.9711 -1.7191
 9753TIP3    H250675   5.725   0.534   0.478  0.3381 -0.0663 -0.6804
 9754TIP3   OH250676   4.790   5.259   1.966  0.0803  0.3214  0.2283
 9754TIP3    H150677   4.769   5.193   2.032  0.5272 -0.0529 -0.0082
 9754TIP3    H250678   4.828   5.210   1.893  2.4171  1.0548  0.9149
 9755TIP3   OH250679   4.266   5.587   0.405  0.5421 -0.1168 -0.3431
 9755TIP3    H150680   4.254   5.509   0.352 -0.7472 -0.6649  0.7173
 9755TIP3    H250681   4.290   5.656   0.343 -0.4520 -0.8555 -1.5545
 9756TIP3   OH250682   5.333   5.761   3.298  0.0566 -0.1691 -0.0727
 9756TIP3    H150683   5.271   5.698   3.335  0.7748 -1.0539 -0.3551
 9756TIP3    H250684   5.351   5.729   3.210  1.8521 -0.6201  0.4387
 9757TIP3   OH250685   3.168   1.839  12.268 -0.1496  0.0014  0.1648
 9757TIP3    H150686   3.088   1.801  12.304  0.7599 -1.6274  0.5266
 9757TIP3    H250687   3.146   1.930  12.250 -1.9589 -0.3353  0.6343
 9758TIP3   OH250688   3.606   1.771   5.172  0.1335 -0.3816 -0.3495
 9758TIP3    H150689   3.697   1.766   5.201  0.0672 -1.5371 -0.3111
 9758TIP3    H250690   3.611   1.765   5.076  0.0722 -0.9255 -0.3209
 9759TIP3   OH250691   4.953   3.540  13.893  0.5252 -0.4016  0.6821
 9759TIP3    H150692   4.882   3.543  13.957 -1.0605 -1.9241 -0.9448
 9759TIP3    H250693   4.909   3.541  13.808  2.5776  1.2128 -0.4199
 9760TIP3   OH250694   6.117   0.937  16.124 -0.1412 -0.3970  0.6424
 9760TIP3    H150695   6.206   0.968  16.137 -1.5862  3.9041  1.0348
 9760TIP3    H250696   6.097   0.955  16.033 -1.3087  0.7226  1.0961
 9761TIP3   OH250697   4.942   3.207  16.902  0.0395  0.0229 -0.2532
 9761TIP3    H150698   5.011   3.180  16.842 -0.2796  1.1112 -1.1377
 9761TIP3    H250699   4.983   3.272  16.958  0.2168 -0.6707  0.4321
 9762TIP3   OH250700   6.646   2.526   4.519  0.8110  0.1506  0.0925
 9762TIP3    H150701   6.613   2.449   4.566 -1.2009  0.4046 -0.8799
 9762TIP3    H250702   6.735   2.501   4.494 -0.1910 -2.3360 -1.2019
 9763TIP3   OH250703   3.700   5.124  13.229  0.1140 -0.2713 -0.0111
 9763TIP3    H150704   3.752   5.062  13.281  0.6216 -0.8067 -1.1318
 9763TIP3    H250705   3.673   5.074  13.153  1.2782  1.1166 -1.3873
 9764TIP3   OH250706   0.261   2.205  13.486  0.4686 -0.1480  0.0916
 9764TIP3    H150707   0.335   2.183  13.429 -1.2943  0.2224 -2.4395
 9764TIP3    H250708   0.189   2.152  13.453 -1.4956  2.6332 -0.3160
 9765TIP3   OH250709   4.594   5.167  15.615  0.2548 -0.2018 -0.9151
 9765TIP3    H150710   4.638   5.150  15.698  1.2602 -1.1365 -1.6189
 9765TIP3    H250711   4.520   5.107  15.614  0.8426 -0.9359 -1.1385
 9766TIP3   OH250712   0.267   2.710  16.208  0.7405  0.1864  0.0477
 9766TIP3    H150713   0.202   2.777  16.229  0.6588  0.1347 -0.0421
 9766TIP3    H250714   0.236   2.670  16.127 -0.0725 -1.0460  0.9373
 9767TIP3   OH250715   5.338   2.502   3.247  0.6690  0.1951  0.3185
 9767TIP3    H150716   5.347   2.557   3.324 -0.3374 -1.0579  1.3569
 9767TIP3    H250717   5.425   2.500   3.208  0.7561  2.3287  0.3781
 9768TIP3   OH250718   2.384   6.076   3.336 -0.8280  0.1170  0.1195
 9768TIP3    H150719   2.410   6.163   3.305  2.5317 -0.8317  0.0399
 9768TIP3    H250720   2.369   6.087   3.430 -2.5328  1.1961 -0.2618
 9769TIP3   OH250721   1.699   0.911   2.511 -0.8282 -0.5982 -0.2637
 9769TIP3    H150722   1.700   0.965   2.589  1.3544  0.4913 -0.9837
 9769TIP3    H250723   1.647   0.834   2.534 -1.1548  0.2483  1.8576
 9770TIP3   OH250724   4.824   6.019  17.155  0.7328  0.0827  0.2518
 9770TIP3    H150725   4.787   6.020  17.067  1.2692 -0.4715  0.0154
 9770TIP3    H250726   4.804   6.106  17.190 -0.1995  0.0208 -0.1078
 9771TIP3   OH250727   4.297   1.551  15.123  0.4077 -0.1577 -0.2358
 9771TIP3    H150728   4.295   1.541  15.027  1.7462  1.1210 -0.4072
 9771TIP3    H250729   4.390   1.555  15.145  0.0889  0.3811  1.0363
 9772TIP3   OH250730   0.848   2.929   1.562 -0.4087 -0.6936 -0.3572
 9772TIP3    H150731   0.915   2.893   1.504 -0.1017 -1.9652  0.7684
 9772TIP3    H250732   0.884   3.012   1.592 -0.4022 -0.2108 -1.6822
 9773TIP3   OH250733   6.705   2.012  11.765  0.3249  0.2323 -0.1785
 9773TIP3    H150734   6.753   1.975  11.839  0.0832 -1.4344 -0.8312
 9773TIP3    H250735   6.741   2.100  11.754  1.6638 -0.1945  0.7473
 9774TIP3   OH250736   6.752   0.725  11.637 -0.1869  0.6185  0.3760
 9774TIP3    H150737   6.721   0.805  11.595 -2.2522  0.2674  1.2181
 9774TIP3    H250738   6.829   0.753  11.687  0.2078  1.6991 -0.7974
 9775TIP3   OH250739   4.198   5.327  12.652 -0.6055 -0.1797 -0.0925
 9775TIP3    H150740   4.166   5.264  12.588  0.3956  0.5135 -1.3103
 9775TIP3    H250741   4.289   5.301  12.667 -0.2570  0.8474 -0.4345
 9776TIP3   OH250742   2.778   3.874   0.457  0.0268 -0.1145 -0.3965
 9776TIP3    H150743   2.830   3.878   0.377 -0.5458 -1.5477 -0.8518
 9776TIP3    H250744   2.832   3.825   0.519 -0.1673 -0.3325 -0.3988
 9777TIP3   OH250745   1.527   3.217  11.066  0.1056  0.5596  0.4608
 9777TIP3    H150746   1.603   3.214  11.008  0.2747 -1.4928  0.7237
 9777TIP3    H250747   1.459   3.262  11.015  0.3658 -0.8546 -1.2035
 9778TIP3   OH250748   4.196   1.797  13.532  0.3156  0.5539 -0.6261
 9778TIP3    H150749   4.123   1.756  13.578  1.7268 -1.0055  0.2602
 9778TIP3    H250750   4.220   1.734  13.464  0.9626  0.9793 -0.7978
 9779TIP3   OH250751   6.266   0.074   6.090 -0.3776 -0.0121  0.0259
 9779TIP3    H150752   6.261   0.157   6.138 -0.4059 -1.7307  3.0763
 9779TIP3    H250753   6.190   0.025   6.120  1.3607 -2.3870  0.6260
 9780TIP3   OH250754   0.130   3.329   4.898  0.0540 -0.2957 -0.3652
 9780TIP3    H150755   0.186   3.337   4.976  0.3195 -0.8687 -0.4962
 9780TIP3    H250756   0.187   3.292   4.831 -0.8937 -2.4371 -0.0352
 9781TIP3   OH250757   4.506   2.424  13.192  0.6050  0.5132  0.2026
 9781TIP3    H150758   4.596   2.446  13.167  0.4660 -0.2914 -0.9961
 9781TIP3    H250759   4.481   2.494  13.253  0.7583  2.8085 -2.2691
 9782TIP3   OH250760   6.621   1.554   2.799  0.3414 -0.5811  0.0661
 9782TIP3    H150761   6.693   1.538   2.861  0.5043  0.1804  0.0872
 9782TIP3    H250762   6.656   1.527   2.714  1.4393  1.7735 -0.2714
 9783TIP3   OH250763   5.266   3.923  16.328 -0.3940 -0.2904 -0.1617
 9783TIP3    H150764   5.193   3.877  16.287 -0.5667 -0.3017  0.1645
 9783TIP3    H250765   5.343   3.871  16.306 -0.2804  0.5235 -1.7857
 9784TIP3   OH250766   5.098   2.278  14.569  0.1618 -0.3129 -0.8220
 9784TIP3    H150767   5.179   2.327  14.580  0.1035 -0.4614  0.2637
 9784TIP3    H250768   5.098   2.253  14.476  0.7911  0.6693 -1.0957
 9785TIP3   OH250769   1.049   2.052   0.084  0.6179 -0.1029 -0.0544
 9785TIP3    H150770   0.957   2.070   0.064  0.2255 -0.1171  1.6286
 9785TIP3    H250771   1.046   1.969   0.133  1.4852  0.1253  0.3775
 9786TIP3   OH250772   0.269   0.345   2.235 -0.2344  0.2397  0.1174
 9786TIP3    H150773   0.212   0.301   2.172 -0.5242  0.3349  0.3095
 9786TIP3    H250774   0.334   0.280   2.259 -0.6191 -0.0651  0.3453
 9787TIP3   OH250775   6.539   0.343  10.894 -0.5613 -0.1900 -0.7548
 9787TIP3    H150776   6.593   0.385  10.827  0.0734 -1.2066 -0.8883
 9787TIP3    H250777   6.538   0.405  10.966  0.0589  0.2221 -1.0975
 9788TIP3   OH250778   2.370   0.015   3.713 -0.4538 -0.1103 -0.1794
 9788TIP3    H150779   2.291  -0.012   3.666  0.1418  0.1512 -1.3404
 9788TIP3    H250780   2.439   0.013   3.647  1.0091 -2.6880  1.3492
 9789TIP3   OH250781   5.187   2.650  14.855 -0.7349 -0.1744  0.3488
 9789TIP3    H150782   5.138   2.598  14.918 -0.4301  0.1855  0.8805
 9789TIP3    H250783   5.273   2.662  14.894 -0.1721 -0.9077 -0.6460
 9790TIP3   OH250784   6.710   4.773   1.735  0.5520  0.0299 -0.5261
 9790TIP3    H150785   6.789   4.804   1.780  0.3128 -1.6250  1.1198
 9790TIP3    H250786   6.720   4.803   1.645  3.0330 -0.0831 -0.3291
 9791TIP3   OH250787   5.754   1.800  15.791 -0.6025  0.4340  0.0534
 9791TIP3    H150788   5.768   1.856  15.867 -1.2739  1.2992 -0.4541
 9791TIP3    H250789   5.820   1.731  15.799  1.0375  1.9727  0.0246
 9792TIP3   OH250790   6.283   3.613  16.976 -0.4618  0.3488 -0.3830
 9792TIP3    H150791   6.342   3.646  17.044 -1.0810 -0.5787  0.6244
 9792TIP3    H250792   6.212   3.678  16.973 -0.7120  0.1055  0.2460
 9793TIP3   OH250793   4.496   1.312  17.207  0.0254  0.0685  0.0686
 9793TIP3    H150794   4.467   1.299  17.297 -0.0973  0.9199  0.1566
 9793TIP3    H250795   4.559   1.242  17.191 -2.4120 -2.1373 -0.2787
 9794TIP3   OH250796   5.129   0.591  17.025 -0.0140 -0.1416 -0.1412
 9794TIP3    H150797   5.132   0.573  16.931  0.9824 -0.3470 -0.0671
 9794TIP3    H250798   5.106   0.684  17.030 -0.9646 -0.3387 -0.5663
 9795TIP3   OH250799   4.764   5.794  13.937 -0.0563 -0.1844  0.1355
 9795TIP3    H150800   4.817   5.852  13.882  1.3306 -2.4199 -0.9797
 9795TIP3    H250801   4.804   5.799  14.024 -1.4562  2.3621  0.6725
 9796TIP3   OH250802   1.516   4.143  15.275  0.6022  0.2357  0.9600
 9796TIP3    H150803   1.538   4.051  15.284  0.1750  0.2430  2.1418
 9796TIP3    H250804   1.589   4.181  15.226 -0.5193 -1.2569 -1.9803
 9797TIP3   OH250805   3.472   2.665  10.878 -0.0487 -0.6309 -0.3949
 9797TIP3    H150806   3.440   2.617  10.802  0.6230  0.9864 -1.7202
 9797TIP3    H250807   3.468   2.757  10.853 -0.1055 -0.0478  1.6426
 9798TIP3   OH250808   1.897   0.301  14.459  0.2347 -0.0131 -0.1514
 9798TIP3    H150809   1.980   0.301  14.412  0.5656  0.8083  0.4202
 9798TIP3    H250810   1.842   0.239  14.411 -0.4684  2.9976 -3.3605
 9799TIP3   OH250811   4.139   3.611  17.196 -0.7800 -0.7312  0.7310
 9799TIP3    H150812   4.068   3.613  17.260 -0.4821  0.1061  1.0431
 9799TIP3    H250813   4.181   3.696  17.204  0.0760 -1.1069  0.3360
 9800TIP3   OH250814   5.279   1.429   1.415 -0.4825  0.3987 -0.6105
 9800TIP3    H150815   5.238   1.448   1.331  0.0692 -0.4927 -1.0935
 9800TIP3    H250816   5.208   1.437   1.479 -0.8686  1.2231 -1.1374
 9801TIP3   OH250817   5.729   0.075  14.162  0.3989  0.4464  0.0625
 9801TIP3    H150818   5.822   0.056  14.155  0.8776  2.0457  1.6675
 9801TIP3    H250819   5.724   0.147  14.224 -2.0028 -0.4652  0.9968
 9802TIP3   OH250820   3.600   4.957   2.815 -0.1844 -0.5762  0.6175
 9802TIP3    H150821   3.583   4.933   2.724 -0.6162 -0.6163  0.7082
 9802TIP3    H250822   3.657   4.887   2.848 -1.8507 -1.7684  1.0269
 9803TIP3   OH250823   0.817   1.452  13.728 -0.5951  0.2897  0.4198
 9803TIP3    H150824   0.771   1.494  13.801  1.2222  0.2430  1.6551
 9803TIP3    H250825   0.856   1.374  13.767 -1.0047 -0.6583 -1.0289
 9804TIP3   OH250826   1.423   2.838   5.990 -0.1226 -0.1492  0.3676
 9804TIP3    H150827   1.456   2.882   6.068 -0.1938 -1.5644  1.2174
 9804TIP3    H250828   1.439   2.900   5.919  0.2844  1.0067  1.4407
 9805TIP3   OH250829   6.469   1.502  10.817  0.1186  0.4143  0.1352
 9805TIP3    H150830   6.501   1.588  10.844  2.0978  0.1937 -1.4577
 9805TIP3    H250831   6.462   1.507  10.722 -0.1496 -1.0553  0.0636
 9806TIP3   OH250832   3.537   1.449  14.718 -0.3330 -0.3613 -0.0263
 9806TIP3    H150833   3.586   1.526  14.746 -2.0415  0.0762  1.9457
 9806TIP3    H250834   3.481   1.480  14.647 -0.6802  0.1068  0.4491
 9807TIP3   OH250835   2.760   0.056  12.485  0.0593  0.0066  0.3730
 9807TIP3    H150836   2.830   0.043  12.421 -1.2172 -0.1076 -1.0236
 9807TIP3    H250837   2.800   0.109  12.553  1.7164 -0.6611 -0.0520
 9808TIP3   OH250838   2.882   0.287   3.491 -0.7706 -0.0625  0.0739
 9808TIP3    H150839   2.918   0.341   3.562 -0.5958 -0.2754  0.1452
 9808TIP3    H250840   2.887   0.343   3.413 -0.7356  0.0812  0.1793
 9809TIP3   OH250841   5.044   1.717   2.112  0.3735  0.0200  0.2449
 9809TIP3    H150842   4.980   1.690   2.178  1.6167  1.3145  2.0438
 9809TIP3    H250843   5.077   1.635   2.075 -2.1299 -0.6742 -0.5719
 9810TIP3   OH250844   4.772   2.284   0.509  0.0381  0.5367 -0.0998
 9810TIP3    H150845   4.845   2.239   0.466  0.8388  1.9484 -0.2511
 9810TIP3    H250846   4.797   2.376   0.507 -1.7885  1.0354 -0.2011
 9811TIP3   OH250847   6.170   2.959  13.657  0.0056  0.1177 -0.2802
 9811TIP3    H150848   6.195   2.910  13.736  0.4563 -0.6744 -0.9147
 9811TIP3    H250849   6.175   3.051  13.684  0.1918 -0.1456  0.6092
 9812TIP3   OH250850   1.516   2.343  13.186 -0.2785 -0.5828  0.2626
 9812TIP3    H150851   1.479   2.373  13.269 -0.2016  0.6767 -0.1586
 9812TIP3    H250852   1.441   2.340  13.126  0.3024  2.3017 -0.6872
 9813TIP3   OH250853   3.759   1.421   6.501 -0.1197 -0.2926  0.1556
 9813TIP3    H150854   3.681   1.403   6.553 -2.4392  1.4186 -2.5440
 9813TIP3    H250855   3.786   1.509   6.527  1.4110 -1.1753  1.6321
 9814TIP3   OH250856   5.350   6.712   3.713 -0.8403 -0.5152 -0.2452
 9814TIP3    H150857   5.288   6.641   3.697 -0.1689 -1.0828 -0.4041
 9814TIP3    H250858   5.390   6.690   3.797 -1.3605  0.2245  0.1980
 9815TIP3   OH250859   3.636   2.883  15.385  0.1107 -0.1876 -0.1590
 9815TIP3    H150860   3.680   2.886  15.470 -1.3974  2.9463  0.5764
 9815TIP3    H250861   3.611   2.791  15.375  1.8641 -0.9380  1.9771
 9816TIP3   OH250862   2.161   2.929   4.872  0.5795  0.2836  0.3564
 9816TIP3    H150863   2.254   2.926   4.852  0.5951  0.7331  0.3661
 9816TIP3    H250864   2.155   2.901   4.964  0.9389  2.5714  1.0993
 9817TIP3   OH250865   5.098   3.572  14.744 -0.6099 -0.3945 -0.2371
 9817TIP3    H150866   5.191   3.553  14.739 -0.4234  0.4449 -0.1069
 9817TIP3    H250867   5.060   3.527  14.669 -0.1561 -1.0577 -0.0681
 9818TIP3   OH250868   6.583   4.398  14.593  0.1446 -0.2914  0.0331
 9818TIP3    H150869   6.657   4.364  14.544  0.9683 -0.8736  1.6375
 9818TIP3    H250870   6.591   4.493  14.589  1.1348 -0.3561  0.4171
 9819TIP3   OH250871   4.993   1.522   1.747 -0.4013  0.8872  0.1806
 9819TIP3    H150872   5.069   1.463   1.751  0.0045  1.3551 -0.5894
 9819TIP3    H250873   5.030   1.610   1.757 -1.0362  1.0056  1.5835
 9820TIP3   OH250874   2.257   3.655   2.200 -0.1541  0.5108  0.7083
 9820TIP3    H150875   2.165   3.676   2.186  0.4139  0.7088 -3.2499
 9820TIP3    H250876   2.256   3.562   2.224 -1.2971  0.1337 -0.7107
 9821TIP3   OH250877   6.733   0.599   3.723 -0.3565  0.2446 -0.1515
 9821TIP3    H150878   6.689   0.551   3.793  0.4511  1.2265  1.0575
 9821TIP3    H250879   6.684   0.680   3.714 -1.8033 -0.8555 -2.2929
 9822TIP3   OH250880   3.827   2.413   1.694 -0.0370  0.8509 -0.0024
 9822TIP3    H150881   3.917   2.399   1.666 -0.1628  0.5749 -0.2748
 9822TIP3    H250882   3.795   2.326   1.717  0.2387  1.1496  1.5450
 9823TIP3   OH250883   6.237   4.193  11.713 -0.1945  0.3929 -0.2530
 9823TIP3    H150884   6.289   4.274  11.709  0.1599  0.1204 -1.6832
 9823TIP3    H250885   6.299   4.126  11.740 -0.8472  0.8608  2.5021
 9824TIP3   OH250886   5.714   6.149   1.478  0.0374  0.6251  0.2473
 9824TIP3    H150887   5.790   6.122   1.427  0.4529 -0.0389  1.1974
 9824TIP3    H250888   5.649   6.081   1.464  0.2620  0.2831  0.8324
 9825TIP3   OH250889   0.918   2.102   0.870  0.2426  0.2988 -0.7003
 9825TIP3    H150890   0.908   2.034   0.936  0.0285  0.9972 -0.0078
 9825TIP3    H250891   0.862   2.074   0.797 -1.5217  0.7694  0.4219
 9826TIP3   OH250892   0.532   4.700   4.343  0.0263 -0.4604  0.2354
 9826TIP3    H150893   0.445   4.731   4.318  0.0958 -0.4559  0.0009
 9826TIP3    H250894   0.538   4.718   4.437 -0.0951 -0.1509  0.1829
 9827TIP3   OH250895   0.380   4.586  11.810  0.5001 -0.4612 -0.0464
 9827TIP3    H150896   0.310   4.541  11.857  0.8275 -1.3101 -0.3692
 9827TIP3    H250897   0.458   4.571  11.863  0.6632 -0.5132 -0.3010
 9828TIP3   OH250898   5.564   2.067   3.546  0.1309 -1.0869 -0.3782
 9828TIP3    H150899   5.630   1.998   3.551  1.4822  0.1776 -0.3376
 9828TIP3    H250900   5.590   2.120   3.471  0.5509  0.7837  1.0367
 9829TIP3   OH250901   2.581   5.113  11.115  0.2312 -0.3413  0.4085
 9829TIP3    H150902   2.529   5.066  11.049 -0.8823  0.2221  0.8650
 9829TIP3    H250903   2.518   5.133  11.185  0.1875  3.3840 -0.5584
 9830TIP3   OH250904   3.459   4.875  13.596 -0.5300  0.0329 -0.0504
 9830TIP3    H150905   3.372   4.891  13.631  0.4363 -0.9351  2.9459
 9830TIP3    H250906   3.518   4.919  13.657  1.0918  1.3972 -2.4871
 9831TIP3   OH250907   1.083   2.456  16.807 -0.3307 -0.2617 -0.5449
 9831TIP3    H150908   0.991   2.454  16.835 -0.0933 -1.9582  0.1864
 9831TIP3    H250909   1.092   2.379  16.751  0.4936  0.2628 -1.1359
 9832TIP3   OH250910   2.361   6.663  16.244  0.2580  0.1140 -0.1799
 9832TIP3    H150911   2.422   6.617  16.301  1.3408  0.2591 -1.1890
 9832TIP3    H250912   2.336   6.741  16.293 -0.1230 -0.6022  0.7700
 9833TIP3   OH250913   0.042   2.272   6.670  0.1549 -0.7358 -0.0320
 9833TIP3    H150914  -0.041   2.228   6.686 -0.1964 -1.1525 -2.7062
 9833TIP3    H250915   0.100   2.241   6.740 -1.9238 -0.3903  1.8776
 9834TIP3   OH250916   2.511   0.867   2.240  0.6300 -0.0016  0.0295
 9834TIP3    H150917   2.448   0.855   2.169  0.8945  2.2788 -0.6379
 9834TIP3    H250918   2.557   0.783   2.245 -1.8459 -1.4261 -0.0285
 9835TIP3   OH250919   1.887   4.483   6.213  0.2360 -0.1793 -0.0775
 9835TIP3    H150920   1.843   4.458   6.132  0.4107  0.1375 -0.2695
 9835TIP3    H250921   1.823   4.535   6.260 -0.8737 -2.6516  1.2424
 9836TIP3   OH250922   5.663   3.518   3.031  0.0361  0.4121 -0.2044
 9836TIP3    H150923   5.741   3.561   3.064  0.2408 -1.3322  1.6758
 9836TIP3    H250924   5.695   3.454   2.969 -0.0569  1.0034 -0.8691
 9837TIP3   OH250925   1.120   4.736  17.213  0.3989 -0.0837 -0.3733
 9837TIP3    H150926   1.112   4.726  17.118  3.3724 -2.0715 -0.4919
 9837TIP3    H250927   1.148   4.827  17.225  0.3378  0.0814 -1.4215
 9838TIP3   OH250928   2.936   1.991  16.828 -0.0529 -0.2979  0.4265
 9838TIP3    H150929   2.968   1.913  16.783  0.4087  0.1181  0.0125
 9838TIP3    H250930   2.911   2.051  16.757  0.3751  0.2441  0.7283
 9839TIP3   OH250931   3.549   5.252   3.424  0.2576 -0.1129  0.2954
 9839TIP3    H150932   3.589   5.180   3.473  0.8629  0.5861  0.8390
 9839TIP3    H250933   3.460   5.258   3.458  0.4094 -0.1852  0.7003
 9840TIP3   OH250934   3.624   3.552   0.980 -0.2590 -0.0613 -0.2173
 9840TIP3    H150935   3.547   3.506   0.946  0.4052 -0.4230 -1.2559
 9840TIP3    H250936   3.590   3.607   1.050 -1.5432  0.1537 -0.9982
 9841TIP3   OH250937   0.997   4.747  12.153 -0.5600 -0.4896 -0.5437
 9841TIP3    H150938   0.920   4.788  12.192 -0.1425 -0.6037  0.4174
 9841TIP3    H250939   0.964   4.705  12.073 -1.1197  1.0667 -1.1435
 9842TIP3   OH250940   4.858   2.783  11.861 -0.1484  0.0191 -0.2813
 9842TIP3    H150941   4.852   2.878  11.849  1.2730  0.2034  0.2919
 9842TIP3    H250942   4.852   2.770  11.955 -2.7337 -0.6901 -0.5097
 9843TIP3   OH250943   6.353   2.269   5.140 -0.2065  0.5584 -0.1012
 9843TIP3    H150944   6.262   2.259   5.110 -0.2551  1.2781 -0.1810
 9843TIP3    H250945   6.391   2.182   5.128 -1.0932  0.0660  0.6076
 9844TIP3   OH250946   4.614   2.750   5.013 -0.1714 -0.2971 -0.1963
 9844TIP3    H150947   4.652   2.768   4.927 -0.5041 -2.1802 -0.7516
 9844TIP3    H250948   4.680   2.698   5.059 -0.8159 -1.0104 -0.0611
 9845TIP3   OH250949   2.633   4.900   0.734  0.4586  0.5199 -0.2827
 9845TIP3    H150950   2.660   4.865   0.649  1.8797 -0.3305  0.4873
 9845TIP3    H250951   2.663   4.834   0.797 -3.0217 -0.2141  0.7159
 9846TIP3   OH250952   5.396   4.159   0.014  0.4787 -0.2840  0.1217
 9846TIP3    H150953   5.373   4.143   0.106  0.9930  2.1948  0.7144
 9846TIP3    H250954   5.491   4.163   0.013  0.4200  1.2672 -0.2281
 9847TIP3   OH250955   0.677   1.005  16.722  0.0145  0.0736  0.3565
 9847TIP3    H150956   0.590   0.965  16.726  0.0155 -0.1528 -1.4600
 9847TIP3    H250957   0.675   1.074  16.788 -1.7180  0.3938 -0.0165
 9848TIP3   OH250958   6.769   1.144  13.441  0.7735  0.1847 -0.1958
 9848TIP3    H150959   6.860   1.131  13.468  0.5288 -0.9905  0.0959
 9848TIP3    H250960   6.768   1.116  13.349  0.9710  1.3822 -0.5680
 9849TIP3   OH250961   4.640   4.149  17.053  0.1453  0.3660 -0.4078
 9849TIP3    H150962   4.683   4.198  17.124  1.4380  0.7817 -1.4394
 9849TIP3    H250963   4.596   4.077  17.097  2.0705 -0.1807  0.7020
 9850TIP3   OH250964   5.995   5.643   0.518 -0.3923 -0.1422 -0.0415
 9850TIP3    H150965   6.046   5.627   0.598  1.5339  2.7165 -0.6486
 9850TIP3    H250966   6.060   5.672   0.454 -1.9983 -1.9240 -2.5522
 9851TIP3   OH250967   2.757   0.921   2.113 -0.4594 -0.1766  0.0990
 9851TIP3    H150968   2.689   0.879   2.166 -0.8324  1.0188  0.5935
 9851TIP3    H250969   2.814   0.964   2.177  0.3745 -0.6176 -0.3508
 9852TIP3   OH250970   3.603   0.037  13.215 -0.2211  0.3341 -0.6638
 9852TIP3    H150971   3.685   0.072  13.180  1.0136 -0.5493  1.2638
 9852TIP3    H250972   3.621   0.022  13.308 -2.6531  0.3514 -0.1502
 9853TIP3   OH250973   3.078   6.686   0.142  0.4582 -0.2331 -0.3151
 9853TIP3    H150974   3.167   6.697   0.174  0.1385  1.0491  0.1613
 9853TIP3    H250975   3.073   6.594   0.117  2.0988 -0.1693 -0.9479
 9854TIP3   OH250976   6.196   3.375   3.270 -0.2050  0.3105 -0.2454
 9854TIP3    H150977   6.224   3.466   3.280  2.1407 -0.4491  0.2255
 9854TIP3    H250978   6.155   3.353   3.354  0.0091  0.6574 -0.0512
 9855TIP3   OH250979   5.151   2.525   3.526 -0.0656  0.3377 -0.0519
 9855TIP3    H150980   5.243   2.546   3.508 -0.2319 -0.3131 -1.7634
 9855TIP3    H250981   5.138   2.441   3.484 -0.6939 -0.9588  2.6659
 9856TIP3   OH250982   2.072   4.385   2.308 -0.1118 -0.0009 -0.8621
 9856TIP3    H150983   2.059   4.293   2.329  0.3771 -0.0930 -0.9366
 9856TIP3    H250984   2.167   4.393   2.293  0.0369  0.7659  0.3733
 9857TIP3   OH250985   5.357   4.559  14.456  0.4531 -0.6395 -0.4864
 9857TIP3    H150986   5.366   4.467  14.433  0.0303 -0.3975 -1.6583
 9857TIP3    H250987   5.263   4.575  14.455  0.5038 -0.2937  0.1120
 9858TIP3   OH250988   6.022   3.691  16.321 -0.5640 -0.0804  0.1012
 9858TIP3    H150989   6.010   3.597  16.307  0.5951 -0.0112 -1.4960
 9858TIP3    H250990   5.968   3.732  16.254  1.3509  0.3275 -1.2386
 9859TIP3   OH250991   4.243   4.692   4.419  0.0860 -0.3439  0.0629
 9859TIP3    H150992   4.157   4.659   4.443 -0.2406 -0.1435 -0.8032
 9859TIP3    H250993   4.297   4.613   4.410 -0.1189 -0.4975  0.1859
 9860TIP3   OH250994   0.528   5.806  16.694  0.0513 -0.0670  0.0133
 9860TIP3    H150995   0.549   5.719  16.659 -1.3111 -0.4685  0.1601
 9860TIP3    H250996   0.550   5.866  16.623 -2.3290 -0.8400 -1.4388
 9861TIP3   OH250997   5.688   1.154  14.592  0.1772 -0.2196  0.4034
 9861TIP3    H150998   5.690   1.181  14.500  3.2059 -0.1696  0.4444
 9861TIP3    H250999   5.628   1.079  14.594 -2.6402  1.8856 -0.9623
 9862TIP3   OH251000   5.829   5.736  10.991 -0.7709  0.5117  0.0673
 9862TIP3    H151001   5.857   5.806  11.050 -2.0492  0.0627  1.2248
 9862TIP3    H251002   5.792   5.782  10.915  1.7567  1.0932 -0.8420
 9863TIP3   OH251003   2.180   5.473  12.849 -0.5780 -0.0338  0.4822
 9863TIP3    H151004   2.265   5.438  12.822 -0.3864  0.9321 -0.1818
 9863TIP3    H251005   2.123   5.396  12.856  0.1915 -0.6177  0.3348
 9864TIP3   OH251006   4.949   5.727   0.472 -0.0816 -0.2027  0.1740
 9864TIP3    H151007   5.026   5.686   0.433  0.1783 -1.7928  2.2665
 9864TIP3    H251008   4.879   5.664   0.459 -0.2012 -0.3378  1.4059
 9865TIP3   OH251009   2.109   3.964  15.293 -0.3682 -0.0338 -0.0086
 9865TIP3    H151010   2.187   3.910  15.292  1.2367  2.1232  2.2299
 9865TIP3    H251011   2.086   3.977  15.201  2.6357  0.3439 -0.7325
 9866TIP3   OH251012   0.380   4.933  14.984 -0.0445 -0.2024 -0.3531
 9866TIP3    H151013   0.346   4.860  15.037  0.2449  1.4919  2.2382
 9866TIP3    H251014   0.461   4.899  14.946  1.0444 -0.6867  2.2829
 9867TIP3   OH251015   0.093   2.926  16.478  0.6161  0.1805 -0.4880
 9867TIP3    H151016   0.021   2.980  16.511  1.8817  2.1346 -0.8343
 9867TIP3    H251017   0.054   2.875  16.408 -0.8352 -0.0465  0.4620
 9868TIP3   OH251018   2.404   0.033  12.192 -0.1707  0.2893 -0.1526
 9868TIP3    H151019   2.475  -0.013  12.148 -0.0083  0.4982 -0.1110
 9868TIP3    H251020   2.448   0.104  12.239 -0.4212  0.4947 -0.2300
 9869TIP3   OH251021   6.125   1.600   5.009  0.2202 -0.0066  0.7297
 9869TIP3    H151022   6.182   1.529   4.981  2.2453  1.9126 -0.1307
 9869TIP3    H251023   6.184   1.672   5.031 -1.8429  1.9860 -0.0308
 9870TIP3   OH251024   1.972   4.717   2.816  0.3889  0.1502 -0.0722
 9870TIP3    H151025   2.048   4.668   2.849  0.5889 -0.9864 -2.1518
 9870TIP3    H251026   1.993   4.736   2.725 -2.0253 -0.5743 -0.8066
 9871TIP3   OH251027   1.792   3.989   4.871 -0.0536  0.6332  0.1598
 9871TIP3    H151028   1.782   4.001   4.776  1.1947  1.4229  0.1097
 9871TIP3    H251029   1.832   3.903   4.880  1.5236  1.3082 -0.1588
 9872TIP3   OH251030   5.370   0.139   4.033  0.6634  0.2913 -0.3623
 9872TIP3    H151031   5.310   0.168   3.965  0.4621 -0.8058 -0.6563
 9872TIP3    H251032   5.404   0.056   4.002 -0.7091 -1.0510  1.6302
 9873TIP3   OH251033   6.457   2.845  13.146 -0.1776 -0.6407 -0.3289
 9873TIP3    H151034   6.481   2.805  13.230 -0.7713  0.5665  0.4384
 9873TIP3    H251035   6.540   2.867  13.105  0.1057 -0.3638  0.3838
 9874TIP3   OH251036   2.207   5.586   2.802 -0.3064  0.1997 -0.2501
 9874TIP3    H151037   2.199   5.541   2.886 -1.6108 -0.1358 -0.5457
 9874TIP3    H251038   2.252   5.524   2.745  2.0401  1.0299  0.6305
 9875TIP3   OH251039   5.092   0.409   1.369 -0.7245 -0.5639  0.3570
 9875TIP3    H151040   5.064   0.320   1.350 -0.9863 -0.6157  0.9623
 9875TIP3    H251041   5.037   0.436   1.442  0.8130 -0.6751  1.5873
 9876TIP3   OH251042   4.950   2.631  15.306  0.1391  0.0739 -0.3782
 9876TIP3    H151043   4.996   2.547  15.304 -0.0823 -0.0903  0.9911
 9876TIP3    H251044   4.872   2.616  15.253 -0.6899 -1.0821  1.1268
 9877TIP3   OH251045   5.828   5.821  11.399 -0.1535 -0.4375  0.1391
 9877TIP3    H151046   5.779   5.739  11.401  0.8408 -1.0300  1.2229
 9877TIP3    H251047   5.919   5.794  11.413 -0.0301  0.9902  2.2545
 9878TIP3   OH251048   6.632   3.583   6.091  0.1019 -0.2857 -0.3058
 9878TIP3    H151049   6.539   3.606   6.091  0.6314  2.0265 -0.3972
 9878TIP3    H251050   6.648   3.545   6.177 -0.9254 -0.7178 -0.2997
 9879TIP3   OH251051   2.674   6.608  11.311  0.1085 -0.0703  0.3764
 9879TIP3    H151052   2.718   6.548  11.251  0.4667  1.6985 -1.1871
 9879TIP3    H251053   2.586   6.571  11.323  0.8460 -1.7120  0.6632
 9880TIP3   OH251054   4.087   3.005  12.984  0.3496 -0.6867 -0.2269
 9880TIP3    H151055   4.095   3.009  12.889 -0.2541 -0.5408 -0.2705
 9880TIP3    H251056   4.172   2.973  13.014  0.1883 -1.7282 -0.8791
 9881TIP3   OH251057   1.700   4.870  12.802 -0.1986  0.3130 -0.6410
 9881TIP3    H151058   1.656   4.803  12.749  0.3184 -0.4054 -0.1548
 9881TIP3    H251059   1.647   4.876  12.881  0.6001 -0.5970 -0.0268
 9882TIP3   OH251060   0.581   0.937  11.181  0.1183 -0.2670 -0.1925
 9882TIP3    H151061   0.647   0.871  11.162  0.8892  0.3523  0.2957
 9882TIP3    H251062   0.593   1.004  11.113  0.5592  0.2511  0.3845
 9883TIP3   OH251063   0.235   0.923   6.006 -0.1324 -0.2614  0.3786
 9883TIP3    H151064   0.177   0.908   5.931 -1.9026  1.9829  1.2521
 9883TIP3    H251065   0.228   0.843   6.058  0.6282 -1.5939 -1.4754
 9884TIP3   OH251066   4.767   5.720  17.131  0.0954 -0.0982 -0.0817
 9884TIP3    H151067   4.819   5.800  17.145  1.1665 -0.8018 -0.0284
 9884TIP3    H251068   4.770   5.674  17.215 -0.6025 -0.1519 -0.0835
 9885TIP3   OH251069   2.781   1.444   2.743  0.0050 -0.2801 -0.3837
 9885TIP3    H151070   2.749   1.372   2.797  0.5391  0.8296  1.4679
 9885TIP3    H251071   2.867   1.466   2.780  0.3766  0.5381 -1.6709
 9886TIP3   OH251072   3.794   3.678  11.188 -0.0154  0.4168 -0.2654
 9886TIP3    H151073   3.758   3.592  11.206  0.0458  0.4483  0.0162
 9886TIP3    H251074   3.821   3.712  11.274 -1.3412  1.3067 -0.1883
 9887TIP3   OH251075   1.811   1.186   3.413 -0.1023 -0.1725  0.1710
 9887TIP3    H151076   1.741   1.207   3.351  0.6751  0.7824 -0.4148
 9887TIP3    H251077   1.881   1.148   3.359  0.3217  0.0545  0.5493
 9888TIP3   OH251078   5.927   0.646   2.188  0.1773 -0.0500 -0.5702
 9888TIP3    H151079   5.911   0.614   2.100  0.8676 -0.1202 -0.6692
 9888TIP3    H251080   5.847   0.624   2.236  0.3467 -1.2480 -0.8235
 9889TIP3   OH251081   4.281   2.035  11.906 -0.1475  0.1579  0.0356
 9889TIP3    H151082   4.371   2.022  11.936  0.8785  0.3577 -2.7627
 9889TIP3    H251083   4.261   2.126  11.926  0.4625  0.2490  0.2191
 9890TIP3   OH251084   1.404   1.206   1.665 -0.3450  0.1482  0.0711
 9890TIP3    H151085   1.323   1.165   1.635 -0.7444 -0.4212  1.8740
 9890TIP3    H251086   1.388   1.228   1.757  0.7703  2.0413 -0.1547
 9891TIP3   OH251087   5.483   4.140  14.110 -0.1167 -0.0232 -0.0376
 9891TIP3    H151088   5.576   4.160  14.122  0.0713 -1.3917  0.9264
 9891TIP3    H251089   5.439   4.186  14.182 -0.0058 -0.5889  0.4022
 9892TIP3   OH251090   0.104   3.416  15.762 -0.1539 -0.6084 -0.0217
 9892TIP3    H151091   0.178   3.392  15.706  0.5572 -0.4407  0.8282
 9892TIP3    H251092   0.139   3.409  15.851 -1.7454 -2.4764  0.4744
 9893TIP3   OH251093   4.713   1.479  12.855  0.0640 -0.0095 -0.3146
 9893TIP3    H151094   4.648   1.542  12.822  1.7799  1.2125 -1.4707
 9893TIP3    H251095   4.765   1.530  12.917  0.3798 -0.7999  0.0771
 9894TIP3   OH251096   4.500   4.748  11.906  0.6138 -0.1024 -0.3214
 9894TIP3    H151097   4.440   4.770  11.978 -0.5128 -1.1405 -0.9156
 9894TIP3    H251098   4.547   4.829  11.889 -0.6358  0.7487  0.1564
 9895TIP3   OH251099   0.234   6.097   1.855  0.0566 -0.2433  0.0110
 9895TIP3    H151100   0.288   6.129   1.782 -0.9854 -2.4981 -1.8113
 9895TIP3    H251101   0.144   6.104   1.823 -0.4475 -0.8659  1.2520
 9896TIP3   OH251102   3.595   5.234   1.603  0.4488  0.1996  0.0424
 9896TIP3    H151103   3.650   5.239   1.525  1.4049  2.8805  0.8394
 9896TIP3    H251104   3.649   5.269   1.673 -1.6292  1.1991  1.1954
 9897TIP3   OH251105   1.133   1.615  14.187  0.2963  0.1732 -0.2242
 9897TIP3    H151106   1.217   1.637  14.228  0.5992  0.5012 -1.0227
 9897TIP3    H251107   1.140   1.648  14.098 -0.4182 -0.4304 -0.5096
 9898TIP3   OH251108   2.597   6.309  11.591 -0.1047 -0.4228  0.1187
 9898TIP3    H151109   2.528   6.353  11.541  1.5100 -0.6886 -2.4701
 9898TIP3    H251110   2.678   6.331  11.544  1.3021 -1.9692  1.7561
 9899TIP3   OH251111   4.350   0.328  16.153  0.7769 -0.0646  0.5909
 9899TIP3    H151112   4.364   0.269  16.226 -0.6538  0.1960  1.0981
 9899TIP3    H251113   4.260   0.360  16.164  1.3061  1.7346  0.0035
 9900TIP3   OH251114   1.314   3.245   4.744  0.0049  0.3199 -0.3404
 9900TIP3    H151115   1.266   3.168   4.713 -0.4540  0.6239 -0.3922
 9900TIP3    H251116   1.246   3.304   4.777  0.2498  1.2360 -1.4587
 9901TIP3   OH251117   5.747   1.215   5.979 -0.3363 -0.6844  0.2074
 9901TIP3    H151118   5.729   1.128   5.943  1.5760 -0.6660 -0.8949
 9901TIP3    H251119   5.842   1.218   5.986 -0.2628  1.9027 -1.2998
 9902TIP3   OH251120   6.212   4.718  15.985  0.0440 -0.1571  0.4367
 9902TIP3    H151121   6.120   4.700  16.002 -0.3552  1.9778  0.6121
 9902TIP3    H251122   6.250   4.731  16.072  0.5076 -0.9253  0.3571
 9903TIP3   OH251123   0.482   3.808   5.317 -0.0147 -0.5891  0.1784
 9903TIP3    H151124   0.455   3.895   5.286 -1.2870 -1.0678 -0.0730
 9903TIP3    H251125   0.558   3.786   5.263 -0.3348 -0.0787 -0.4863
 9904TIP3   OH251126   0.556   3.352  12.070 -0.2827  0.3530 -0.0542
 9904TIP3    H151127   0.490   3.413  12.103 -1.1767 -0.2907 -0.6246
 9904TIP3    H251128   0.631   3.408  12.047 -1.0076  1.2108 -0.3792
 9905TIP3   OH251129   5.009   2.297  16.430 -0.3936 -0.4201 -0.5378
 9905TIP3    H151130   4.990   2.320  16.521  0.4632  2.1055 -0.9772
 9905TIP3    H251131   5.073   2.227  16.437  1.5484  1.4231  0.8225
 9906TIP3   OH251132   2.011   4.356   5.674 -0.4194  0.2172  0.1208
 9906TIP3    H151133   2.014   4.319   5.762  1.5642  0.8732  0.3534
 9906TIP3    H251134   1.965   4.290   5.622 -3.7666  0.8587  2.0921
 9907TIP3   OH251135   4.131   2.909   2.092 -0.1138 -0.3807 -0.5678
 9907TIP3    H151136   4.104   2.992   2.133 -1.4251 -0.5642 -1.0601
 9907TIP3    H251137   4.049   2.864   2.072  0.5835 -1.5054 -0.9291
 9908TIP3   OH251138   2.303   5.073   4.073 -0.2749 -0.0416 -0.4324
 9908TIP3    H151139   2.291   5.016   3.996  0.8567 -1.9983  0.7925
 9908TIP3    H251140   2.370   5.028   4.125  1.3556  2.9282  0.1158
 9909TIP3   OH251141   5.625   2.201   5.460 -0.4252 -0.3939 -0.3118
 9909TIP3    H151142   5.672   2.143   5.400 -0.2850 -1.6898  1.0169
 9909TIP3    H251143   5.694   2.242   5.512 -0.7003 -2.5396  1.8596
 9910TIP3   OH251144   1.352   3.151  14.037 -0.2953 -0.3679 -0.2363
 9910TIP3    H151145   1.403   3.232  14.038 -0.3855 -0.3153  0.4711
 9910TIP3    H251146   1.262   3.180  14.021 -0.2129 -0.3982 -0.7612
 9911TIP3   OH251147   6.177   0.249   6.459 -0.1655  0.3312  0.6408
 9911TIP3    H151148   6.166   0.301   6.539  0.1655  0.9147  0.3171
 9911TIP3    H251149   6.245   0.295   6.411  0.9703 -1.0799  0.8796
 9912TIP3   OH251150   5.206   5.656  13.347 -0.2577 -0.0215 -0.5685
 9912TIP3    H151151   5.268   5.725  13.325  2.0822 -1.8637 -0.0035
 9912TIP3    H251152   5.136   5.700  13.396  1.4407  1.8638  0.2144
 9913TIP3   OH251153   5.417   0.205  13.618 -0.2219  0.1327 -0.3842
 9913TIP3    H151154   5.442   0.135  13.558  0.0796  1.0012 -1.2857
 9913TIP3    H251155   5.390   0.277  13.561 -2.1050  0.1893  0.5334
 9914TIP3   OH251156   6.067   6.158  14.614  0.5665  1.0664 -0.4761
 9914TIP3    H151157   6.064   6.253  14.625 -1.1569  0.7402  2.3128
 9914TIP3    H251158   5.991   6.125  14.662  0.5070 -1.6677 -2.3231
 9915TIP3   OH251159   2.324   0.871  11.668 -0.0927  0.0967  0.5844
 9915TIP3    H151160   2.408   0.914  11.650 -0.1651 -0.3262 -0.8290
 9915TIP3    H251161   2.258   0.933  11.637 -0.2931  0.1638  1.1336
 9916TIP3   OH251162   2.224   0.608   3.507 -0.3625  0.3948 -0.1330
 9916TIP3    H151163   2.159   0.595   3.437 -0.4780 -0.0649  0.0561
 9916TIP3    H251164   2.218   0.701   3.529 -0.9964  0.3436 -0.0806
 9917TIP3   OH251165   1.540   2.186   3.296  0.7303  0.1582 -0.6544
 9917TIP3    H151166   1.491   2.267   3.280  0.3874  0.2438  0.7309
 9917TIP3    H251167   1.624   2.216   3.330  0.0031 -0.0868  1.4234
 9918TIP3   OH251168   5.551   5.433  14.257  0.2831  0.5729 -0.6429
 9918TIP3    H151169   5.488   5.391  14.315  0.7092 -0.1156 -0.6680
 9918TIP3    H251170   5.511   5.516  14.234 -0.0500  0.6918  0.3509
 9919TIP3   OH251171   0.228   4.990   3.950 -0.9927 -0.2333 -0.1145
 9919TIP3    H151172   0.187   5.069   3.987  0.1774  1.2437 -1.8594
 9919TIP3    H251173   0.206   4.994   3.857  1.1476 -0.6293 -0.6641
 9920TIP3   OH251174   4.863   3.217   0.508  0.0058 -0.0307  0.2149
 9920TIP3    H151175   4.867   3.225   0.413 -1.3894 -1.2940  0.0338
 9920TIP3    H251176   4.794   3.277   0.536  0.5056  0.4417  0.4546
 9921TIP3   OH251177   2.182   0.925   5.037  0.0374 -0.3656 -0.3014
 9921TIP3    H151178   2.216   0.992   4.977 -0.4906 -0.2169 -0.4413
 9921TIP3    H251179   2.227   0.942   5.120  1.0988 -0.8464 -0.7657
 9922TIP3   OH251180   0.756   2.541  15.934 -0.0787 -0.4757  0.4307
 9922TIP3    H151181   0.752   2.510  16.025  1.7473 -0.6836  0.4655
 9922TIP3    H251182   0.725   2.631  15.938 -3.3183 -1.5377  0.6864
 9923TIP3   OH251183   1.493   2.119   0.202  0.4588  0.2337  0.2965
 9923TIP3    H151184   1.523   2.209   0.217  0.8163  0.2967 -0.7471
 9923TIP3    H251185   1.413   2.128   0.151  1.8717 -0.0958 -2.0304
 9924TIP3   OH251186   5.144   0.392  13.459  0.4670  0.1495 -0.5072
 9924TIP3    H151187   5.162   0.326  13.526  0.0860  1.7796  1.2445
 9924TIP3    H251188   5.230   0.427  13.436  0.3366  1.9480  1.6218
 9925TIP3   OH251189   2.653   2.921   4.050  0.8851  0.4736  0.2370
 9925TIP3    H151190   2.560   2.941   4.044  0.4635 -1.3432  0.5536
 9925TIP3    H251191   2.680   2.899   3.961  1.2282  1.8150 -0.0112
 9926TIP3   OH251192   6.377   3.972  10.966  0.4666  0.8042 -0.3967
 9926TIP3    H151193   6.315   4.039  10.937  2.4669  2.7449 -0.2947
 9926TIP3    H251194   6.394   3.994  11.058  0.1286 -0.6538  0.0259
 9927TIP3   OH251195   3.769   0.438   2.184 -0.4929 -0.2385  0.0334
 9927TIP3    H151196   3.746   0.365   2.242  1.5459 -0.1967  0.9171
 9927TIP3    H251197   3.859   0.419   2.156 -0.6161  0.9737 -1.2223
 9928TIP3   OH251198   0.660   2.067  11.761  0.1057  0.4180  0.1776
 9928TIP3    H151199   0.635   2.030  11.676  0.7730 -1.8498  0.9350
 9928TIP3    H251200   0.755   2.072  11.758  0.1581 -0.0022  0.9011
 9929TIP3   OH251201   0.673   4.756  11.862  0.2467  0.3018 -0.6293
 9929TIP3    H151202   0.652   4.662  11.859  1.7757 -0.2066  2.0685
 9929TIP3    H251203   0.769   4.758  11.857  0.2634  1.6521  0.2116
 9930TIP3   OH251204   6.198   4.596   3.375 -0.0864 -0.5308 -0.4935
 9930TIP3    H151205   6.189   4.660   3.446  1.6116 -1.5500  0.6647
 9930TIP3    H251206   6.264   4.535   3.406  0.3015 -1.2966 -2.7619
 9931TIP3   OH251207   0.954   3.550   3.823  0.0375 -0.2556 -0.0023
 9931TIP3    H151208   0.989   3.630   3.783  1.3820 -0.4054  0.8497
 9931TIP3    H251209   0.861   3.552   3.801  0.6429 -0.1120 -2.7647
 9932TIP3   OH251210   0.319   5.631  10.666 -0.8260  0.1752 -0.2180
 9932TIP3    H151211   0.321   5.718  10.704 -1.3296  0.2517 -0.3688
 9932TIP3    H251212   0.248   5.634  10.602  1.2407  0.6228 -2.5478
 9933TIP3   OH251213   0.432   4.776  11.295  0.4759 -0.1964 -0.3791
 9933TIP3    H151214   0.343   4.794  11.262  0.0938 -0.7800  0.3324
 9933TIP3    H251215   0.423   4.695  11.345  1.2987  0.0508  0.1697
 9934TIP3   OH251216   0.907   4.254   2.592  0.2030 -0.4096 -0.6124
 9934TIP3    H151217   0.990   4.286   2.625  0.1304 -0.3102 -0.5261
 9934TIP3    H251218   0.855   4.333   2.574 -1.3922 -0.4749  3.1961
 9935TIP3   OH251219   4.026   4.351  16.979  0.4481  0.1285  0.2666
 9935TIP3    H151220   4.004   4.431  16.932 -1.6203 -0.2258  0.6032
 9935TIP3    H251221   3.943   4.303  16.987  1.3428 -1.2785  1.5053
 9936TIP3   OH251222   2.336   1.860  11.403 -0.9131 -0.1993  0.6529
 9936TIP3    H151223   2.346   1.955  11.390 -1.3593 -0.3297 -0.7405
 9936TIP3    H251224   2.290   1.830  11.324  2.6610 -2.2015 -0.7932
 9937TIP3   OH251225   5.596   1.546   1.843  0.3137 -0.3504  0.0553
 9937TIP3    H151226   5.661   1.500   1.789  0.6446  0.4134 -0.2056
 9937TIP3    H251227   5.642   1.562   1.925  0.6306  0.6311 -0.3068
 9938TIP3   OH251228   2.103   5.496  14.408  0.0441  0.1836 -0.2100
 9938TIP3    H151229   2.134   5.538  14.489 -0.1572  1.4321 -0.7625
 9938TIP3    H251230   2.073   5.569  14.354  0.4174 -0.6276 -1.5208
 9939TIP3   OH251231   3.474   0.104   4.850 -0.4663 -0.3081 -0.1994
 9939TIP3    H151232   3.436   0.191   4.849  3.0583  1.3583  1.0592
 9939TIP3    H251233   3.478   0.080   4.943 -0.9827 -1.6332 -0.5011
 9940TIP3   OH251234   0.975   1.152  12.472 -0.5708 -0.2386 -0.1377
 9940TIP3    H151235   1.008   1.161  12.561 -1.7898 -1.6652  0.4782
 9940TIP3    H251236   1.042   1.102  12.426 -0.1972  0.0127  0.1375
 9941TIP3   OH251237   3.006   2.847  11.371 -0.1314  0.2019  0.2156
 9941TIP3    H151238   2.919   2.829  11.404 -0.0448 -0.9350 -0.1549
 9941TIP3    H251239   3.064   2.790  11.423  0.4275  1.1702  0.6717
 9942TIP3   OH251240   5.074   3.022   6.286  0.8755 -0.1667 -0.0005
 9942TIP3    H151241   5.096   2.978   6.368  1.3466  0.2461  0.1019
 9942TIP3    H251242   5.000   3.079   6.308  1.8724  0.9699  0.4753
 9943TIP3   OH251243   1.758   1.375   0.601  0.6010 -0.6670  0.1832
 9943TIP3    H151244   1.850   1.358   0.580  0.1666 -2.4469 -0.2765
 9943TIP3    H251245   1.721   1.410   0.520 -0.1737 -4.0595 -0.9808
 9944TIP3   OH251246   0.875   0.613   4.354  0.1767  0.6329 -0.2280
 9944TIP3    H151247   0.869   0.578   4.444 -1.7623  0.0709 -0.5490
 9944TIP3    H251248   0.967   0.635   4.344  0.7768 -0.9476  1.3106
 9945TIP3   OH251249   6.086   5.866  12.930 -0.1362  1.0310  0.1590
 9945TIP3    H151250   6.127   5.823  13.006  0.2815  2.0918  0.5362
 9945TIP3    H251251   6.126   5.953  12.928 -0.3829  1.1117 -1.0960
 9946TIP3   OH251252   0.373   1.237  14.570  0.4308 -0.2188  0.3508
 9946TIP3    H151253   0.350   1.325  14.540  0.3009 -0.1012  0.7861
 9946TIP3    H251254   0.468   1.240  14.582  0.7400 -0.8210 -1.8216
 9947TIP3   OH251255   5.483   3.814  16.793 -0.5178 -0.1293  0.4256
 9947TIP3    H151256   5.521   3.880  16.851  0.0108 -0.2666  0.2397
 9947TIP3    H251257   5.437   3.864  16.726  0.8485  0.0827 -0.3722
 9948TIP3   OH251258   0.837   2.872   1.821 -0.1180 -0.1245  0.5607
 9948TIP3    H151259   0.792   2.947   1.861  1.9542  1.3997  0.1320
 9948TIP3    H251260   0.840   2.894   1.727 -0.0931 -1.0707  0.3369
 9949TIP3   OH251261   1.983   2.636  13.372 -0.2177  0.1520 -0.3298
 9949TIP3    H151262   1.929   2.610  13.297 -0.5559 -1.1686  0.3500
 9949TIP3    H251263   1.926   2.622  13.448  1.0191 -1.0697  0.3817
 9950TIP3   OH251264   5.369   1.310  14.444 -0.0318 -0.1370  0.8602
 9950TIP3    H151265   5.458   1.326  14.412  0.8800 -0.9500  2.8554
 9950TIP3    H251266   5.338   1.235  14.393  1.1638 -1.0519  1.4532
 9951TIP3   OH251267   1.192   2.661  13.553  0.0984  0.2400  0.5935
 9951TIP3    H151268   1.211   2.725  13.484 -0.0065 -0.4825 -0.1235
 9951TIP3    H251269   1.096   2.657  13.556  0.0931  0.9186  1.3989
 9952TIP3   OH251270   5.446   5.477   6.420  0.1040 -0.0260  0.0472
 9952TIP3    H151271   5.484   5.428   6.494 -0.8163  0.2885  0.7416
 9952TIP3    H251272   5.500   5.453   6.345 -0.2149 -1.9877  0.4055
 9953TIP3   OH251273   2.192   1.167  14.259 -0.3202 -0.6041 -0.6074
 9953TIP3    H151274   2.112   1.169  14.311 -0.6194 -1.5324 -1.0073
 9953TIP3    H251275   2.262   1.153  14.322 -0.6269 -1.1980 -0.3938
 9954TIP3   OH251276   0.649   6.281  13.464 -0.0445  0.0710 -0.0171
 9954TIP3    H151277   0.575   6.221  13.454 -1.4323  1.4097  2.0376
 9954TIP3    H251278   0.726   6.224  13.457 -1.3377 -2.3504  3.5831
 9955TIP3   OH251279   5.876   4.762  12.886  0.3722  0.3351 -0.2467
 9955TIP3    H151280   5.809   4.700  12.913  1.5668 -1.5038 -1.4018
 9955TIP3    H251281   5.930   4.775  12.964 -0.7253  1.0729  0.4051
 9956TIP3   OH251282   1.652   6.600  10.488 -0.1786 -0.2724 -0.0519
 9956TIP3    H151283   1.708   6.527  10.514  0.5675  0.4759  0.4685
 9956TIP3    H251284   1.696   6.639  10.413 -0.9752 -0.8239 -0.8072
 9957TIP3   OH251285   3.586   0.665   2.916 -0.2364  0.0134  0.1552
 9957TIP3    H151286   3.628   0.626   2.993 -0.4053  2.9819  1.8092
 9957TIP3    H251287   3.492   0.665   2.939 -0.0200  3.6827  1.3387
 9958TIP3   OH251288   4.886   6.590  14.909  0.1208 -0.1713 -0.0462
 9958TIP3    H151289   4.968   6.604  14.862  1.9857  1.3510  3.4559
 9958TIP3    H251290   4.827   6.656  14.874  1.2921  0.6270 -0.5453
 9959TIP3   OH251291   3.947   4.248  15.408  0.0415 -0.3020  0.0348
 9959TIP3    H151292   3.988   4.213  15.487 -1.2319 -1.3212  0.2622
 9959TIP3    H251293   4.013   4.306  15.370  1.2072 -0.9424  1.0550
 9960TIP3   OH251294   0.380   5.740   3.233 -0.0696 -0.5711  0.4467
 9960TIP3    H151295   0.444   5.762   3.300 -0.1681  0.7114  0.1448
 9960TIP3    H251296   0.432   5.707   3.160  0.2798  0.7561  0.0903
 9961TIP3   OH251297   3.378   2.736  14.489  0.4942 -0.6035  0.0436
 9961TIP3    H151298   3.338   2.807  14.439  0.1850  0.6424  1.9821
 9961TIP3    H251299   3.466   2.728  14.453  0.5937  0.8975 -0.0879
 9962TIP3   OH251300   0.265   5.974  11.871  0.4183 -0.6537  0.0599
 9962TIP3    H151301   0.213   6.034  11.818  0.1875 -0.6571  0.2839
 9962TIP3    H251302   0.206   5.945  11.941  0.9553 -0.0452  0.7747
 9963TIP3   OH251303   2.266   4.123  16.466  0.1202 -0.1601  0.1646
 9963TIP3    H151304   2.174   4.120  16.492  0.2399  2.5464  0.9997
 9963TIP3    H251305   2.263   4.132  16.370 -0.4352 -1.1073  0.0793
 9964TIP3   OH251306   4.616   5.731  11.891 -0.3666  0.6508  0.4695
 9964TIP3    H151307   4.655   5.672  11.955  0.0467  1.4244  0.9389
 9964TIP3    H251308   4.689   5.785  11.861 -0.7495  0.9554  0.0873
 9965TIP3   OH251309   2.812   1.215  13.785 -0.2948 -0.5920  0.0881
 9965TIP3    H151310   2.749   1.173  13.726  0.2284 -0.4573 -0.5647
 9965TIP3    H251311   2.771   1.208  13.871 -1.5735  0.1894 -0.4414
 9966TIP3   OH251312   4.916   4.710  13.062 -0.2286  0.6320  0.2620
 9966TIP3    H151313   4.848   4.774  13.040  1.7405  2.6080 -0.2593
 9966TIP3    H251314   4.983   4.761  13.108 -0.5211 -1.8799  3.7422
 9967TIP3   OH251315   6.135   2.615   5.706  0.6127  0.2150  0.1799
 9967TIP3    H151316   6.070   2.651   5.767 -0.1101 -0.8392  0.0410
 9967TIP3    H251317   6.209   2.589   5.761  0.5945  0.6948  0.4272
 9968TIP3   OH251318   0.486   6.060  13.403  0.0910  0.5487 -0.0555
 9968TIP3    H151319   0.489   6.030  13.494  1.0247 -1.4982 -0.7279
 9968TIP3    H251320   0.394   6.058  13.380 -0.0127 -0.3163  0.4136
 9969TIP3   OH251321   1.815   5.683   0.583  0.3039  0.5254  0.0610
 9969TIP3    H151322   1.823   5.744   0.510  0.1768  3.0515  2.1037
 9969TIP3    H251323   1.848   5.731   0.659  1.0626 -2.2731  1.5746
 9970TIP3   OH251324   2.181   4.850   6.429  0.4002  0.2906 -0.1656
 9970TIP3    H151325   2.086   4.854   6.427  0.1579 -1.6443  3.3373
 9970TIP3    H251326   2.206   4.810   6.345 -2.0522 -1.8357  0.0728
 9971TIP3   OH251327   3.114   4.610  15.546  0.2462 -0.8675  0.0035
 9971TIP3    H151328   3.082   4.699  15.539  0.1970 -0.8092  0.9854
 9971TIP3    H251329   3.045   4.556  15.507 -0.1123 -0.5577  0.2091
 9972TIP3   OH251330   1.886   2.642  13.078 -0.0800  0.2388  0.1479
 9972TIP3    H151331   1.868   2.735  13.073 -0.5876  0.0515 -1.9209
 9972TIP3    H251332   1.820   2.601  13.021 -0.2179 -1.4271  1.4523
 9973TIP3   OH251333   5.391   3.836   3.163  0.4702  0.1048  0.0833
 9973TIP3    H151334   5.336   3.758   3.154 -1.8061  1.6257  0.4091
 9973TIP3    H251335   5.379   3.882   3.080  0.2967  1.0355  0.6193
 9974TIP3   OH251336   5.734   2.655   6.029 -0.5159 -0.6767 -0.7963
 9974TIP3    H151337   5.744   2.628   5.938 -0.1885 -0.4719 -0.8185
 9974TIP3    H251338   5.713   2.574   6.076 -0.5913 -0.7958 -1.0377
 9975TIP3   OH251339   3.750   6.337  15.021  0.1886 -1.0992 -0.2128
 9975TIP3    H151340   3.751   6.278  15.097  0.9234 -1.0728 -0.2002
 9975TIP3    H251341   3.751   6.279  14.945 -0.6118 -1.1278 -0.2129
 9976TIP3   OH251342   6.144   5.871  11.872  0.2628 -0.4241  0.7481
 9976TIP3    H151343   6.062   5.875  11.920  0.5759  1.5941  1.1464
 9976TIP3    H251344   6.125   5.913  11.788  1.3140  1.6104  1.4993
 9977TIP3   OH251345   2.750   3.240   5.072  0.2204 -0.0465 -0.6119
 9977TIP3    H151346   2.741   3.279   5.159 -1.9338 -0.6344 -0.5333
 9977TIP3    H251347   2.839   3.206   5.070  0.1742 -0.3884  1.5407
 9978TIP3   OH251348   4.629   5.759  12.807  0.5216  0.1454  0.0612
 9978TIP3    H151349   4.636   5.788  12.717 -0.9468  0.3366 -0.0137
 9978TIP3    H251350   4.535   5.762  12.826  0.8274  0.3528  1.6715
 9979TIP3   OH251351   6.502   2.546  13.967 -0.1999  0.5739  0.0096
 9979TIP3    H151352   6.508   2.486  13.893 -1.0454 -0.5177  0.8122
 9979TIP3    H251353   6.551   2.623  13.940 -1.0138  0.4362 -1.9340
 9980TIP3   OH251354   5.745   2.523  13.477 -0.4948  0.1719 -0.4192
 9980TIP3    H151355   5.807   2.562  13.415  0.1598 -0.0307  0.1072
 9980TIP3    H251356   5.672   2.584  13.479  0.6220  1.5060  0.5925
 9981TIP3   OH251357   0.767   0.970  10.700  0.0732 -0.1648  0.0335
 9981TIP3    H151358   0.836   1.023  10.740  0.0560  0.1996 -0.4009
 9981TIP3    H251359   0.803   0.946  10.614 -0.7143  0.8421 -0.5919
 9982TIP3   OH251360   5.269   4.145  14.847 -0.4719  0.2221 -0.3192
 9982TIP3    H151361   5.174   4.136  14.854 -0.3500 -1.2244 -0.3653
 9982TIP3    H251362   5.298   4.065  14.805  0.8827  0.1681  0.6731
 9983TIP3   OH251363   0.167   5.348   2.455  0.0215  0.3072  0.0577
 9983TIP3    H151364   0.080   5.389   2.451  0.0675  0.4427  0.4263
 9983TIP3    H251365   0.167   5.300   2.537 -0.0632 -0.5138 -0.4222
 9984TIP3   OH251366   5.721   6.505  14.176 -0.4667  0.1346  0.4723
 9984TIP3    H151367   5.649   6.565  14.196 -0.4262  0.7238 -1.0466
 9984TIP3    H251368   5.793   6.563  14.150  0.0339 -0.5121  0.4106
 9985TIP3   OH251369   0.983   4.702  16.407 -0.2785 -0.2580 -0.1313
 9985TIP3    H151370   0.915   4.635  16.415  0.1025 -0.5535  0.7857
 9985TIP3    H251371   0.937   4.782  16.382 -1.0180 -0.3791  0.8086
 9986TIP3   OH251372   5.926   0.573   4.017 -0.0669 -0.2731  0.4702
 9986TIP3    H151373   5.948   0.495   3.966  1.0755 -0.6513  1.4961
 9986TIP3    H251374   5.875   0.540   4.091  0.7072 -0.1154  1.0899
 9987TIP3   OH251375   0.375   3.886  16.189  0.3744 -0.3793  0.0173
 9987TIP3    H151376   0.448   3.943  16.212  1.1166 -0.7270 -1.4280
 9987TIP3    H251377   0.308   3.945  16.156  0.4532 -0.1770  0.2142
 9988TIP3   OH251378   2.942   1.973  14.301 -0.8477 -0.1249  0.0423
 9988TIP3    H151379   3.024   1.943  14.263  0.0060  2.0958  0.0228
 9988TIP3    H251380   2.898   2.018  14.229 -3.2328 -3.3576 -0.6106
 9989TIP3   OH251381   3.219   5.766   5.217  1.0182  0.2110 -0.2920
 9989TIP3    H151382   3.168   5.836   5.256  2.0370 -0.6035  2.5912
 9989TIP3    H251383   3.197   5.688   5.268  3.1593 -0.6707 -0.6495
 9990TIP3   OH251384   4.630   1.917   1.177  0.0780  0.4742 -0.1961
 9990TIP3    H151385   4.620   1.942   1.269 -2.3046  2.5280 -0.9489
 9990TIP3    H251386   4.658   1.998   1.134  1.1746 -0.4780 -1.2946
 9991TIP3   OH251387   1.164   0.863  13.867  1.1004 -0.0983 -0.5819
 9991TIP3    H151388   1.078   0.848  13.907  0.5299  0.7519 -1.4580
 9991TIP3    H251389   1.210   0.920  13.929  0.9899 -0.4655 -0.1630
 9992TIP3   OH251390   0.760   1.954   2.869 -0.2186  0.6466 -0.2104
 9992TIP3    H151391   0.680   1.930   2.822 -0.2999  3.0463 -1.3680
 9992TIP3    H251392   0.745   1.923   2.959 -1.4581 -1.0048 -0.9550
 9993TIP3   OH251393   1.297   5.406  15.459  0.2965  0.5717 -0.1738
 9993TIP3    H151394   1.342   5.475  15.411 -0.2922  1.6525  0.8229
 9993TIP3    H251395   1.325   5.325  15.416  1.2772  1.3980 -1.1059
 9994TIP3   OH251396   0.864   4.637  17.072  0.6319 -0.8783  0.1382
 9994TIP3    H151397   0.775   4.622  17.040  0.3590 -1.4951  1.1407
 9994TIP3    H251398   0.905   4.692  17.006 -0.1700 -1.4450 -0.8419
 9995TIP3   OH251399   3.318   4.125  13.625  0.1034  0.1694  0.1595
 9995TIP3    H151400   3.292   4.052  13.570  1.9043 -1.1351  0.9723
 9995TIP3    H251401   3.399   4.096  13.667  1.5115  3.0838 -0.3786
 9996TIP3   OH251402   3.993   2.317  12.898 -0.1611  0.3984 -0.1578
 9996TIP3    H151403   3.913   2.264  12.906  0.7357 -1.0181 -0.3617
 9996TIP3    H251404   3.999   2.364  12.981 -0.0961 -1.0696  0.6824
 9997TIP3   OH251405   3.227   4.258  13.318 -0.2536  0.2192 -0.1024
 9997TIP3    H151406   3.156   4.274  13.256  0.4096 -0.7298 -1.1242
 9997TIP3    H251407   3.301   4.310  13.284 -0.8125  2.3173  1.7052
 9998TIP3   OH251408   0.832   5.323  14.168 -0.1823 -0.6223 -0.0997
 9998TIP3    H151409   0.771   5.296  14.237  0.3352  1.0801  1.0546
 9998TIP3    H251410   0.916   5.285  14.195  0.2164  0.8025  0.7130
 9999TIP3   OH251411   5.733   6.175  15.668 -0.0023 -0.2782 -0.2368
 9999TIP3    H151412   5.773   6.230  15.735 -1.0086  2.2904 -1.6815
 9999TIP3    H251413   5.807   6.129  15.628  0.8125 -0.2655  1.2231
10000TIP3   OH251414   1.658   1.886   2.981  0.0476  0.0692 -0.7154
10000TIP3    H151415   1.702   1.834   2.914 -0.2081 -0.1762 -0.6950
10000TIP3    H251416   1.565   1.873   2.964 -0.0163  0.3530 -0.5798
10001TIP3   OH251417   4.574   5.117  16.861  0.4180  0.1917  0.3242
10001TIP3    H151418   4.536   5.037  16.826  2.1141 -0.4563 -0.0717
10001TIP3    H251419   4.557   5.112  16.955 -0.4736 -0.0793  0.1528
10002TIP3   OH251420   6.080   1.733   5.559 -0.0401  0.1963  0.2383
10002TIP3    H151421   6.172   1.744   5.582  0.5519 -0.1731 -1.8444
10002TIP3    H251422   6.045   1.675   5.627  1.7738 -1.3050 -0.0518
10003TIP3   OH251423   3.354   5.478   3.829  0.2486 -0.3815 -0.5965
10003TIP3    H151424   3.353   5.498   3.922 -0.8865  0.4525 -0.7756
10003TIP3    H251425   3.397   5.393   3.823 -1.5295 -1.4095  0.8827
10004TIP3   OH251426   3.563   3.065   0.356 -0.1878  0.2282 -0.3603
10004TIP3    H151427   3.616   2.988   0.334 -1.2395 -0.3039 -1.1015
10004TIP3    H251428   3.483   3.028   0.393  0.2372  1.0403  1.3715
10005TIP3   OH251429   5.836   0.720   3.451 -0.1241  0.1682  0.2637
10005TIP3    H151430   5.779   0.777   3.400 -0.2176 -1.2447 -1.2813
10005TIP3    H251431   5.848   0.765   3.534 -2.4653  1.0813  0.1338
10006TIP3   OH251432   4.473   0.378  11.347  0.5178 -0.4221  0.1043
10006TIP3    H151433   4.512   0.377  11.259 -1.8423  2.7983 -1.0858
10006TIP3    H251434   4.395   0.323  11.340  0.9315 -1.0676  0.5111
10007TIP3   OH251435   0.024   2.292  14.372 -0.7951 -0.4458  0.2864
10007TIP3    H151436   0.025   2.197  14.364 -0.5616 -0.2433 -2.5112
10007TIP3    H251437  -0.036   2.309  14.445 -2.2864 -2.6579 -0.3701
10008TIP3   OH251438   0.464   4.121   2.863 -0.1288  0.6692 -0.3997
10008TIP3    H151439   0.406   4.167   2.802  0.5678 -1.0437 -2.3955
10008TIP3    H251440   0.541   4.177   2.870 -0.3612  1.0429 -0.7931
10009TIP3   OH251441   4.898   2.204   3.066  0.3895  0.3414  0.5431
10009TIP3    H151442   4.837   2.131   3.061  0.2266  0.5469 -0.8711
10009TIP3    H251443   4.984   2.166   3.050  0.2274  0.5402 -0.8823
10010TIP3   OH251444   1.436   1.288   3.714 -0.2375 -0.3208 -0.0193
10010TIP3    H151445   1.507   1.224   3.719  0.6677  0.8129  1.8393
10010TIP3    H251446   1.478   1.368   3.682 -1.3698 -0.5947 -2.3490
10011TIP3   OH251447   2.641   4.205  13.789  0.3508 -0.4398 -0.2222
10011TIP3    H151448   2.595   4.271  13.841  0.3911 -0.9002  0.4048
10011TIP3    H251449   2.675   4.144  13.854  0.6666 -0.8486 -0.7767
10012TIP3   OH251450   3.879   6.781  12.916 -0.0790  0.0892 -0.7415
10012TIP3    H151451   3.887   6.734  12.833  0.2641 -1.6890  0.2803
10012TIP3    H251452   3.967   6.812  12.935 -0.3603  1.4540 -1.5640
10013TIP3   OH251453   3.800   5.995   1.813  0.4211  0.2344 -0.8744
10013TIP3    H151454   3.717   5.976   1.771  0.9161  0.3958 -1.9658
10013TIP3    H251455   3.825   6.081   1.779 -0.8365  1.9927  2.4429
10014TIP3   OH251456   0.079   1.329  16.548 -0.6945  0.2380  0.6018
10014TIP3    H151457   0.077   1.270  16.623  1.5366 -1.9832 -0.9979
10014TIP3    H251458   0.045   1.276  16.475  1.7843  0.7529 -0.9683
10015TIP3   OH251459   6.633   2.319   4.202 -0.2318 -0.8862 -0.6078
10015TIP3    H151460   6.554   2.369   4.224 -0.6663 -1.4102 -0.9844
10015TIP3    H251461   6.625   2.238   4.253  0.0337 -0.9704 -0.6991
10016TIP3   OH251462   4.897   4.287  11.329  0.1269 -0.0399  0.7179
10016TIP3    H151463   4.947   4.219  11.374 -0.3288 -1.0815 -0.3142
10016TIP3    H251464   4.811   4.285  11.372  0.3805  0.4813  1.2594
10017TIP3   OH251465   0.717   1.365  15.227 -0.9850  0.4424 -0.1979
10017TIP3    H151466   0.679   1.451  15.241  1.5549  1.3602  1.3471
10017TIP3    H251467   0.748   1.337  15.314  2.1013 -0.0896 -1.3782
10018TIP3   OH251468   3.329   6.058  11.524 -0.6221 -0.3562 -0.6980
10018TIP3    H151469   3.343   5.994  11.594  0.0479 -1.3454 -1.7171
10018TIP3    H251470   3.236   6.078  11.528 -0.6290 -0.5531  0.3362
10019TIP3   OH251471   0.642   2.742   1.617 -0.5426  0.6681  0.0162
10019TIP3    H151472   0.697   2.805   1.570 -0.5535  0.2743 -0.5342
10019TIP3    H251473   0.628   2.782   1.703 -1.5599  1.9776 -0.7398
10020TIP3   OH251474   1.704   2.451  13.851 -0.0013  0.2943 -0.5958
10020TIP3    H151475   1.656   2.492  13.923  2.0470  0.1543  0.8872
10020TIP3    H251476   1.743   2.524  13.804 -0.6836  0.3419 -1.0873
10021TIP3   OH251477   2.048   3.025  12.620 -0.3503  0.2254 -0.1151
10021TIP3    H151478   2.129   3.060  12.658 -0.5045  0.5346 -0.0720
10021TIP3    H251479   2.001   2.988  12.695 -0.3799  0.3003 -0.0971
10022TIP3   OH251480   1.394   3.602  11.950 -0.1862  0.0040  0.1870
10022TIP3    H151481   1.322   3.652  11.988  0.1708  0.5657  0.1407
10022TIP3    H251482   1.399   3.631  11.859 -0.2828 -0.4727  0.0275
10023TIP3   OH251483   2.441   3.933  16.368  0.1180  0.3268  0.0130
10023TIP3    H151484   2.379   3.994  16.407 -0.0035 -0.3218  0.8437
10023TIP3    H251485   2.523   3.981  16.363 -0.1379  0.7695  0.0632
10024TIP3   OH251486   4.338   0.624  11.262 -0.2696  0.2892  0.5050
10024TIP3    H151487   4.295   0.593  11.183  0.6905  0.7974 -0.2247
10024TIP3    H251488   4.391   0.550  11.292 -0.3401  0.2213  0.4602
10025TIP3   OH251489   6.089   3.509   4.141  0.4903  0.2783 -0.0497
10025TIP3    H151490   6.146   3.560   4.200  1.0147 -0.2749 -0.0724
10025TIP3    H251491   6.133   3.425   4.133 -1.2184 -0.7820  1.3117
10026TIP3   OH251492   4.195   1.646  14.846 -0.6705 -0.2283 -0.3709
10026TIP3    H151493   4.166   1.721  14.898 -1.4236  0.1189 -1.2770
10026TIP3    H251494   4.209   1.681  14.758  0.8096 -0.7649 -0.3747
10027TIP3   OH251495   0.410   3.619  16.611 -0.1865  0.2291  0.2590
10027TIP3    H151496   0.477   3.667  16.562 -0.1997  1.3514  1.2900
10027TIP3    H251497   0.327   3.649  16.573 -0.1462 -0.1352 -0.1186
10028TIP3   OH251498   3.776   0.892   3.036  0.7045 -0.1580  0.1439
10028TIP3    H151499   3.858   0.844   3.041  0.0870 -1.5292 -2.0900
10028TIP3    H251500   3.710   0.832   3.072  0.0392 -0.8245 -2.0513
10029TIP3   OH251501   0.493   4.969   4.968 -0.1667  0.6939 -0.5770
10029TIP3    H151502   0.520   4.975   5.060  0.7261  1.0105 -0.8497
10029TIP3    H251503   0.569   4.931   4.924 -0.9247 -0.3151 -1.0433
10030TIP3   OH251504   2.187   2.227   2.508  0.0086 -0.1458 -0.1697
10030TIP3    H151505   2.251   2.219   2.437 -0.6619  0.4501 -0.8414
10030TIP3    H251506   2.212   2.158   2.570  0.1852 -1.1341 -1.3099
10031TIP3   OH251507   4.712   3.086  16.411  0.2227 -0.5087 -0.2993
10031TIP3    H151508   4.753   3.066  16.495  1.1911 -2.0035 -1.1233
10031TIP3    H251509   4.766   3.156  16.374 -1.1896  1.3507  1.0515
10032TIP3   OH251510   0.844   4.654   3.123 -0.4659  0.9432 -0.0177
10032TIP3    H151511   0.806   4.731   3.080 -1.0667 -0.4473 -2.0049
10032TIP3    H251512   0.781   4.584   3.107  1.1692 -0.5156 -0.1502
10033TIP3   OH251513   5.664   5.044   5.913  0.1491  0.3865 -0.6560
10033TIP3    H151514   5.705   4.958   5.902  0.6912  0.5762 -0.1680
10033TIP3    H251515   5.736   5.101   5.938 -0.1464  1.0638 -1.3200
10034TIP3   OH251516   3.829   2.690  10.520 -0.0090 -0.0774  0.0884
10034TIP3    H151517   3.768   2.728  10.583 -2.3449 -2.2978 -0.7344
10034TIP3    H251518   3.912   2.733  10.538 -1.7758  2.9953  1.3109
10035TIP3   OH251519   2.631   3.100   5.769 -0.1520  0.3855 -0.1767
10035TIP3    H151520   2.565   3.134   5.830  0.5999 -1.3754  1.6727
10035TIP3    H251521   2.582   3.047   5.707 -0.6780  0.4464  0.1810
10036TIP3   OH251522   2.994   4.309  13.793  0.0748 -0.1832 -0.1485
10036TIP3    H151523   3.018   4.271  13.708  0.7078 -0.0477 -0.0300
10036TIP3    H251524   3.061   4.276  13.853 -0.1404  0.0539  0.2172
10037TIP3   OH251525   0.306   3.726  12.937  0.3211 -0.3843 -0.2947
10037TIP3    H151526   0.396   3.694  12.937 -0.3528 -2.6109 -4.0556
10037TIP3    H251527   0.262   3.675  13.005  1.5388 -0.3237  0.5557
10038TIP3   OH251528   5.211   3.282   5.698  0.0180 -0.7339  0.8522
10038TIP3    H151529   5.235   3.202   5.651  0.7224  0.1566 -0.3362
10038TIP3    H251530   5.195   3.346   5.629 -3.7158 -0.6739  1.6477
10039TIP3   OH251531   3.888   2.052  13.998 -0.4401  0.0750  0.1984
10039TIP3    H151532   3.932   2.076  14.080 -0.7381 -0.8798  0.6450
10039TIP3    H251533   3.869   1.959  14.008 -0.4172 -0.0604 -0.9929
10040TIP3   OH251534   0.016   5.445  13.598 -0.2058  0.4787  0.1867
10040TIP3    H151535   0.042   5.532  13.570  0.4079  0.4030  0.5219
10040TIP3    H251536  -0.078   5.441  13.580 -0.2784  1.2892  0.3822
10041TIP3   OH251537   2.867   5.384   5.637  0.7240 -0.1541 -0.1100
10041TIP3    H151538   2.882   5.327   5.712  0.9933  0.9016  0.6623
10041TIP3    H251539   2.772   5.385   5.627  0.8212 -2.2488 -1.3425
10042TIP3   OH251540   1.962   6.121   0.385 -0.0557 -0.1851  0.5384
10042TIP3    H151541   2.044   6.161   0.413  0.0525 -0.2644  0.3387
10042TIP3    H251542   1.899   6.143   0.454 -1.0300  3.7791 -1.4909
10043TIP3   OH251543   1.798   6.038   0.862 -0.5335  0.4514 -0.1058
10043TIP3    H151544   1.773   6.126   0.834  1.2392  1.4288  1.2765
10043TIP3    H251545   1.815   6.047   0.956  1.8971 -0.8431 -0.3834
10044TIP3   OH251546   0.962   2.262  13.909  0.5469  0.7847  0.3789
10044TIP3    H151547   0.996   2.184  13.864 -1.3723  0.4732 -0.5639
10044TIP3    H251548   0.935   2.320  13.838  1.2187  1.9990  1.0946
10045TIP3   OH251549   4.755   1.298  15.584  0.1527 -0.0830  0.7358
10045TIP3    H151550   4.763   1.393  15.573  2.8486 -0.0244  2.7643
10045TIP3    H251551   4.710   1.269  15.505 -0.7414  2.8876  0.0910
10046TIP3   OH251552   3.384   5.544   4.379  0.2854  0.5681  0.1078
10046TIP3    H151553   3.353   5.532   4.469 -0.5949 -0.5447 -0.3251
10046TIP3    H251554   3.467   5.590   4.387  0.6972 -0.4054  1.5465
10047TIP3   OH251555   6.611   5.545   3.629  0.0933  0.5074  0.1111
10047TIP3    H151556   6.629   5.451   3.619 -1.3432  0.3196 -0.8360
10047TIP3    H251557   6.528   5.549   3.676 -0.2506  1.2881 -0.5352
10048TIP3   OH251558   5.921   0.165   2.464 -0.2015  0.2717  0.6056
10048TIP3    H151559   5.950   0.120   2.543  1.5483  1.6382  0.7857
10048TIP3    H251560   5.831   0.135   2.450 -0.4935 -0.0688  3.0372
10049TIP3   OH251561   4.688   6.086  13.982  0.3139 -0.1908 -0.2082
10049TIP3    H151562   4.676   6.026  13.908 -0.7338 -1.0956  0.6772
10049TIP3    H251563   4.652   6.039  14.057  3.1432 -0.0809  1.2720
10050TIP3   OH251564   5.459   6.536   3.280  0.0856  0.4750 -1.1550
10050TIP3    H151565   5.403   6.459   3.292 -1.5850  1.8820  0.4247
10050TIP3    H251566   5.486   6.560   3.369  0.0241  2.0955 -1.5614
10051TIP3   OH251567   0.081   2.993   2.016 -0.3192 -0.3272 -0.1027
10051TIP3    H151568   0.137   3.048   1.961 -0.5745 -1.4931 -1.5305
10051TIP3    H251569   0.008   3.051   2.040  0.7206  0.7476  0.5534
10052TIP3   OH251570   5.542   1.599   3.453  0.8108  0.4912  0.9235
10052TIP3    H151571   5.507   1.682   3.421  2.8975  1.8142  1.9573
10052TIP3    H251572   5.618   1.623   3.506  2.1875 -2.1333  0.2752
10053TIP3   OH251573   1.682   3.126   0.816 -0.1062 -0.2086  0.2604
10053TIP3    H151574   1.718   3.040   0.838  0.3217  0.0790  0.6931
10053TIP3    H251575   1.715   3.144   0.728 -1.0083 -0.9236 -0.2324
10054TIP3   OH251576   6.395   2.992  12.832  0.5546 -0.1547  0.0040
10054TIP3    H151577   6.455   3.065  12.817 -0.2585  0.5292  0.0840
10054TIP3    H251578   6.314   3.033  12.861  0.6224 -1.1800  1.6806
10055TIP3   OH251579   5.897   4.837   3.099 -0.3847  0.1163  0.3267
10055TIP3    H151580   5.979   4.817   3.144 -0.2810  0.1781  0.1650
10055TIP3    H251581   5.881   4.760   3.043 -1.7164 -1.0175  2.2118
10056TIP3   OH251582   2.306   6.428   0.308  0.3396 -0.8464  0.1905
10056TIP3    H151583   2.319   6.395   0.397  0.2694  0.8205  0.8405
10056TIP3    H251584   2.392   6.461   0.282 -0.4248  1.9800  1.0540
10057TIP3   OH251585   4.397   5.903   1.567 -0.5961  0.4387 -0.1800
10057TIP3    H151586   4.349   5.986   1.558  0.4555  0.9243 -1.5027
10057TIP3    H251587   4.430   5.885   1.479  0.8340 -0.3882  0.5122
10058TIP3   OH251588   1.446   1.432  13.425 -0.2097 -0.0476  0.3909
10058TIP3    H151589   1.356   1.406  13.407 -0.0535  0.3715 -1.0915
10058TIP3    H251590   1.450   1.445  13.520 -1.9825  0.9382  0.3446
10059TIP3   OH251591   0.198   2.377   6.095  0.2342 -0.4120 -0.8118
10059TIP3    H151592   0.153   2.389   6.011  0.6656 -0.5671 -1.0684
10059TIP3    H251593   0.234   2.288   6.090  0.5039 -0.3152 -0.5750
10060TIP3   OH251594   0.014   2.654  11.983  0.2356 -0.8820  0.0128
10060TIP3    H151595   0.093   2.647  11.929  1.8393  0.8369  2.0364
10060TIP3    H251596  -0.020   2.565  11.988  1.1651 -1.3951 -2.1406
10061TIP3   OH251597   4.234   5.368   0.194 -0.3195  0.1949 -0.0244
10061TIP3    H151598   4.179   5.291   0.183  0.8998 -0.9583  1.7095
10061TIP3    H251599   4.196   5.434   0.136 -1.4159 -1.6824 -1.4677
10062TIP3   OH251600   1.071   3.005  13.817 -0.2987 -0.0808  0.3192
10062TIP3    H151601   1.117   3.086  13.842 -2.9407  1.1689  1.3501
10062TIP3    H251602   1.028   3.027  13.734 -1.9095 -0.0226  1.1428
10063TIP3   OH251603   3.782   4.211  17.056 -0.6099 -0.1091 -0.7343
10063TIP3    H151604   3.709   4.247  17.106  0.2877  0.9644 -0.1639
10063TIP3    H251605   3.760   4.119  17.044 -0.7484 -0.4359  1.7783
10064TIP3   OH251606   0.360   4.522  12.147  0.0335  0.3391  0.1720
10064TIP3    H151607   0.412   4.554  12.073  0.4816  0.9772  0.7567
10064TIP3    H251608   0.424   4.503  12.216 -0.4866  0.9823  0.8434
10065TIP3   OH251609   0.004   0.874   1.850 -0.4984 -0.3580  0.2857
10065TIP3    H151610   0.056   0.893   1.771 -0.4627  1.0327  0.6301
10065TIP3    H251611  -0.057   0.807   1.822 -0.6329  0.2735 -1.0041
10066TIP3   OH251612   2.342   6.597   1.622  0.4138  0.6971  0.5346
10066TIP3    H151613   2.256   6.594   1.579  1.0162  1.1954 -0.7262
10066TIP3    H251614   2.344   6.682   1.665  0.2959  0.7009  0.5332
10067TIP3   OH251615   6.764   0.451   0.941 -0.0740 -0.3823 -0.5308
10067TIP3    H151616   6.727   0.366   0.917  1.6073 -1.3596  0.2822
10067TIP3    H251617   6.744   0.460   1.034  0.4690 -0.2763 -0.4226
10068TIP3   OH251618   5.277   3.173   1.059 -0.0931  0.0906 -0.5417
10068TIP3    H151619   5.285   3.263   1.090 -0.5586  0.1110 -0.4788
10068TIP3    H251620   5.363   3.152   1.023  0.4966  0.0241  0.8684
10069TIP3   OH251621   1.514   4.140   2.522 -0.1888  0.7401 -0.0584
10069TIP3    H151622   1.501   4.053   2.484  0.9900 -0.2136  1.7045
10069TIP3    H251623   1.594   4.172   2.480  0.2718  0.3088  0.4843
10070TIP3   OH251624   0.536   0.592  13.704 -0.3555 -0.3990 -0.2436
10070TIP3    H151625   0.459   0.649  13.712  0.1963  0.2204  0.6307
10070TIP3    H251626   0.609   0.652  13.690  0.0728 -0.9568 -0.4082
10071TIP3   OH251627   3.269   6.380  13.272 -0.4008 -0.3844  0.5172
10071TIP3    H151628   3.267   6.345  13.183 -0.7912 -1.9584  1.1252
10071TIP3    H251629   3.182   6.418  13.285  0.0533  0.9101 -0.1793
10072TIP3   OH251630   3.082   2.373   1.896  0.0002  0.2500  0.2763
10072TIP3    H151631   3.076   2.337   1.808  0.1729  0.3235  0.2356
10072TIP3    H251632   3.063   2.298   1.953 -2.0513  0.6283  0.1320
10073TIP3   OH251633   2.284   3.965   0.488  0.2187  0.1695 -0.0343
10073TIP3    H151634   2.374   3.994   0.475  0.6848 -0.9420  0.6241
10073TIP3    H251635   2.278   3.883   0.439  0.4174 -1.2452  2.2521
10074TIP3   OH251636   0.915   2.349  15.037 -0.1986  0.2366  0.2283
10074TIP3    H151637   0.995   2.319  15.080  1.0746  1.4030 -1.2542
10074TIP3    H251638   0.903   2.438  15.070 -0.8212  0.1095  0.3463
10075TIP3   OH251639   6.774   1.875   5.086 -0.3045  0.1832  0.7148
10075TIP3    H151640   6.838   1.820   5.131  0.0711  0.0195 -0.0200
10075TIP3    H251641   6.815   1.898   5.003 -1.1632  0.1250  0.2608
10076TIP3   OH251642   2.792   2.807  16.835 -0.1319 -0.1352  1.0806
10076TIP3    H151643   2.760   2.734  16.887  0.6959 -2.8517 -2.1029
10076TIP3    H251644   2.887   2.798  16.837 -0.0748  0.1205 -0.3651
10077TIP3   OH251645   2.857   3.779   6.451 -0.2532  0.0010 -0.3675
10077TIP3    H151646   2.768   3.747   6.437 -1.0666  1.6399  0.8320
10077TIP3    H251647   2.912   3.721   6.398 -1.9914 -1.2178 -0.9002
10078TIP3   OH251648   5.489   3.525  12.945 -0.3674 -0.1233  0.6134
10078TIP3    H151649   5.477   3.442  12.992  1.0012 -1.2061 -0.8928
10078TIP3    H251650   5.565   3.566  12.987 -0.5053 -0.0383  0.7821
10079TIP3   OH251651   6.646   3.272   2.405 -0.1185  1.2006  0.1887
10079TIP3    H151652   6.649   3.253   2.499  0.8799  0.5906  0.0443
10079TIP3    H251653   6.553   3.285   2.386 -0.3084  1.5090  1.2977
10080TIP3   OH251654   3.981   6.217  16.224 -0.1886  0.0555  0.1523
10080TIP3    H151655   4.001   6.256  16.139  1.8181 -1.1018  0.0635
10080TIP3    H251656   3.946   6.289  16.276  2.8140  1.8949 -0.2239
10081TIP3   OH251657   0.540   4.636   4.906  0.0354 -0.3205 -0.0418
10081TIP3    H151658   0.511   4.619   4.996 -5.2861  2.0788 -1.1167
10081TIP3    H251659   0.576   4.724   4.908  0.0632 -0.3280 -0.1954
10082TIP3   OH251660   2.394   3.456  11.562 -0.1975 -0.1530  0.0631
10082TIP3    H151661   2.354   3.389  11.507 -0.4482  0.2447 -0.2405
10082TIP3    H251662   2.398   3.534  11.507 -0.0065  0.1138  0.4488
10083TIP3   OH251663   1.475   5.542   3.795 -0.4254 -0.4754  0.0744
10083TIP3    H151664   1.501   5.634   3.793  0.2325 -0.6749 -1.8085
10083TIP3    H251665   1.518   5.507   3.873  0.2670  0.5535  0.1662
10084TIP3   OH251666   2.284   5.739   6.298  0.1861 -0.1486  0.3686
10084TIP3    H151667   2.216   5.804   6.312  0.3837  0.0696  0.3225
10084TIP3    H251668   2.237   5.659   6.276 -0.0486  0.0481  0.1542
10085TIP3   OH251669   2.014   0.396   0.769  0.0765  0.1560  0.0851
10085TIP3    H151670   2.035   0.372   0.679 -0.9462  0.2159 -0.1732
10085TIP3    H251671   2.081   0.352   0.821  0.8703  0.3991 -0.7271
10086TIP3   OH251672   3.767   3.479   4.465  0.3229  0.1159 -0.5110
10086TIP3    H151673   3.797   3.437   4.385  1.5290  0.7323 -0.3994
10086TIP3    H251674   3.786   3.416   4.534  2.6322  1.0347 -0.2764
10087TIP3   OH251675   3.523   2.124  14.126 -0.1981 -0.3272 -0.1035
10087TIP3    H151676   3.528   2.031  14.103  0.4525 -0.5953  1.1165
10087TIP3    H251677   3.431   2.147  14.112 -0.4982 -1.3149  0.2330
10088TIP3   OH251678   3.163   2.327   0.059 -0.2713  0.1714  0.0553
10088TIP3    H151679   3.142   2.414   0.026  1.0823  0.3894 -0.2579
10088TIP3    H251680   3.171   2.338   0.154  0.8284  0.5956 -0.0771
10089TIP3   OH251681   5.458   1.794   5.162 -0.1884 -0.5568  0.0114
10089TIP3    H151682   5.522   1.839   5.107 -0.2075  0.9987  1.2310
10089TIP3    H251683   5.386   1.771   5.102  0.0367  0.6065 -0.7200
10090TIP3   OH251684   5.558   5.908  12.822  0.1808 -0.4689  0.1237
10090TIP3    H151685   5.534   5.986  12.772  1.6000 -1.0313 -1.5093
10090TIP3    H251686   5.650   5.921  12.843  0.2640 -1.4202  0.3734
10091TIP3   OH251687   1.520   3.134   6.397  0.1517 -0.1217 -0.0888
10091TIP3    H151688   1.429   3.166   6.392 -0.3805 -1.5882  0.0601
10091TIP3    H251689   1.527   3.070   6.326  1.0702 -0.0368 -0.0804
10092TIP3   OH251690   3.743   4.260   0.402 -0.3916  0.0198 -0.1630
10092TIP3    H151691   3.712   4.176   0.368 -1.1849  0.4736 -0.5719
10092TIP3    H251692   3.719   4.259   0.495 -0.6343 -0.0870 -0.2279
10093TIP3   OH251693   0.154   1.825  12.972  0.2166  0.0923  0.1128
10093TIP3    H151694   0.076   1.791  13.017  0.4904 -2.4264 -1.2132
10093TIP3    H251695   0.226   1.773  13.007  0.7677 -0.2065 -1.4088
10094TIP3   OH251696   5.455   2.828  16.209  0.2461  0.3227 -0.0504
10094TIP3    H151697   5.535   2.847  16.257  1.0874  0.4467 -1.4488
10094TIP3    H251698   5.425   2.913  16.179  0.7051  0.0876 -1.2181
10095TIP3   OH251699   2.087   0.722  11.984 -0.4952 -0.4381 -0.3045
10095TIP3    H151700   2.053   0.680  11.905 -1.0720 -0.9737  0.2193
10095TIP3    H251701   2.123   0.650  12.036  1.6614  0.1480 -0.9334
10096TIP3   OH251702   3.354   2.167   1.738 -0.3896  0.0741  0.4436
10096TIP3    H151703   3.355   2.099   1.671 -0.9385 -1.8653  2.3270
10096TIP3    H251704   3.268   2.158   1.780  0.1584  0.8467  1.7788
10097TIP3   OH251705   4.465   2.199  14.274 -0.4627  0.2291 -0.0387
10097TIP3    H151706   4.407   2.163  14.341  0.6740  1.5880  1.7311
10097TIP3    H251707   4.480   2.289  14.301  0.8746  0.4994 -1.5699
10098TIP3   OH251708   4.525   5.888   4.943 -0.2915  0.2708  0.4415
10098TIP3    H151709   4.617   5.864   4.930 -0.3394 -0.1241  0.8029
10098TIP3    H251710   4.479   5.846   4.871 -0.1669  0.6163  0.1585
10099TIP3   OH251711   3.363   0.357  13.309 -0.5205  0.3069  0.3921
10099TIP3    H151712   3.421   0.317  13.245 -0.4664 -0.1120  0.7033
10099TIP3    H251713   3.300   0.288  13.331  0.9033 -0.3432  2.5838
10100TIP3   OH251714   3.537   4.351   5.220 -0.2427  0.1727 -0.1564
10100TIP3    H151715   3.533   4.447   5.217 -1.4662  0.1674  0.7490
10100TIP3    H251716   3.491   4.323   5.142 -0.5938  0.3263 -0.0082
10101TIP3   OH251717   0.200   6.497  12.294  0.7704 -0.5900 -0.0310
10101TIP3    H151718   0.189   6.414  12.340  0.1838 -1.0730 -1.0361
10101TIP3    H251719   0.182   6.477  12.203 -0.6908  0.9294 -0.0991
10102TIP3   OH251720   5.116   3.935   0.597  0.4242 -0.3204  0.3542
10102TIP3    H151721   5.207   3.929   0.626  0.1416  0.3438  1.3848
10102TIP3    H251722   5.067   3.879   0.658 -0.0849  0.5937  0.7910
10103TIP3   OH251723   4.361   2.753  12.046  0.4015  0.5003 -0.4149
10103TIP3    H151724   4.358   2.789  11.958  0.1078  0.7257 -0.3124
10103TIP3    H251725   4.361   2.658  12.033  2.2716  0.5289 -0.7176
10104TIP3   OH251726   4.839   0.733   0.248  0.0196 -0.0813 -0.5152
10104TIP3    H151727   4.881   0.648   0.232  0.0943  0.3351 -2.7402
10104TIP3    H251728   4.745   0.715   0.238 -0.1791 -0.4396  1.7282
10105TIP3   OH251729   3.435   3.674  13.541  0.2202 -0.5066 -0.1939
10105TIP3    H151730   3.448   3.579  13.544 -1.1545 -0.7991 -2.5323
10105TIP3    H251731   3.513   3.707  13.496 -0.1405 -0.7218 -0.9854
10106TIP3   OH251732   2.372   3.842   5.215 -0.2527  0.3120 -0.0364
10106TIP3    H151733   2.368   3.923   5.267 -2.1508  0.0646  0.2059
10106TIP3    H251734   2.289   3.798   5.231  0.4452 -1.3249 -0.7946
10107TIP3   OH251735   0.601   3.980  15.539 -0.2617 -0.9685 -0.1826
10107TIP3    H151736   0.563   4.024  15.462  0.1001  0.1149  0.2560
10107TIP3    H251737   0.591   3.887  15.519 -1.0219 -0.7037 -1.1319
10108TIP3   OH251738   6.380   1.481   5.492 -0.1893  0.3067  0.3629
10108TIP3    H151739   6.442   1.547   5.523 -0.4319  0.1095  1.2682
10108TIP3    H251740   6.370   1.500   5.399  2.2222 -0.4363 -0.1013
10109TIP3   OH251741   4.405   0.337   3.363 -0.3809  0.2423 -0.3375
10109TIP3    H151742   4.445   0.418   3.331 -0.5233  0.7203  0.6754
10109TIP3    H251743   4.326   0.366   3.409  0.1309 -0.3644  0.9662
10110TIP3   OH251744   1.966   4.744   2.550 -0.3150 -0.1787 -0.2321
10110TIP3    H151745   1.997   4.834   2.547  1.1808 -0.6877 -0.3593
10110TIP3    H251746   1.886   4.745   2.496 -1.1278  1.3539  0.9382
10111TIP3   OH251747   2.844   0.171   2.870 -0.0732  0.5763 -0.7859
10111TIP3    H151748   2.811   0.137   2.953  1.9541  1.8977  0.6076
10111TIP3    H251749   2.897   0.100   2.835  2.1435  1.3238  0.9210
10112TIP3   OH251750   2.228   3.000  11.134  0.8750  0.0717  0.0678
10112TIP3    H151751   2.310   2.952  11.146  1.1751 -0.2818 -2.9153
10112TIP3    H251752   2.174   2.941  11.081 -2.2607 -0.7056  3.8529
10113TIP3   OH251753   1.569   2.841  14.967  0.0653  0.4127 -0.0287
10113TIP3    H151754   1.641   2.810  15.021  0.0877  0.4703 -0.0242
10113TIP3    H251755   1.595   2.929  14.939 -0.7053  1.0823  1.3073
10114TIP3   OH251756   1.471   6.783  14.536  0.2871  0.2477  0.8674
10114TIP3    H151757   1.401   6.719  14.525 -1.1631  1.7502  1.0304
10114TIP3    H251758   1.483   6.819  14.448  3.2539 -2.3710  0.1313
10115TIP3   OH251759   0.734   0.962  14.828  0.0236 -0.2261  0.1655
10115TIP3    H151760   0.765   0.980  14.740  1.0357  0.5789  0.6749
10115TIP3    H251761   0.751   1.043  14.876 -2.2136 -0.0024  0.6443
10116TIP3   OH251762   3.214   5.998   2.002 -0.2500  0.0360 -0.3861
10116TIP3    H151763   3.290   5.941   2.010 -0.8838 -0.8456 -0.5468
10116TIP3    H251764   3.216   6.053   2.080 -0.2663 -0.9874  0.3370
10117TIP3   OH251765   0.884   5.267   3.799 -0.2089 -1.0863  0.0397
10117TIP3    H151766   0.805   5.216   3.782 -1.6123  1.1911 -0.4138
10117TIP3    H251767   0.935   5.259   3.719 -0.0468 -2.3742  0.2494
10118TIP3   OH251768   0.194   0.571  13.071 -0.5628 -0.1466 -0.5890
10118TIP3    H151769   0.289   0.561  13.083 -0.7826 -0.2536  1.1243
10118TIP3    H251770   0.160   0.482  13.081 -0.7954 -0.2025 -1.7939
10119TIP3   OH251771   3.381   5.023  14.915  0.2976  0.1691  0.0760
10119TIP3    H151772   3.362   5.079  14.990  1.5068  0.8868 -0.1246
10119TIP3    H251773   3.475   5.036  14.899  0.3897 -1.1826 -0.5748
10120TIP3   OH251774   6.436   4.040  11.819 -0.1552  0.6558  0.5098
10120TIP3    H151775   6.484   4.072  11.743 -0.7517 -0.3507 -0.2853
10120TIP3    H251776   6.496   3.980  11.863 -0.5297 -0.2748 -0.2501
10121TIP3   OH251777   1.082   6.371  13.876 -0.1883  0.0644 -0.0435
10121TIP3    H151778   1.051   6.445  13.824 -1.8163  0.0904  0.9327
10121TIP3    H251779   1.012   6.355  13.939  2.2198  0.7775  2.9253
10122TIP3   OH251780   4.127   0.804   2.158  0.5589 -0.3941  0.2352
10122TIP3    H151781   4.205   0.751   2.175  0.8506  0.2316  0.8845
10122TIP3    H251782   4.133   0.828   2.066  0.3640 -1.5872 -0.0942
10123TIP3   OH251783   4.672   3.952   2.519  0.1504 -0.4034  0.1134
10123TIP3    H151784   4.741   3.996   2.569 -0.4526  0.2898  0.3438
10123TIP3    H251785   4.635   4.021   2.464  1.4308 -1.3586 -1.9952
10124TIP3   OH251786   5.163   5.170   5.778 -0.0397 -0.3908  0.2064
10124TIP3    H151787   5.231   5.111   5.812  0.7031  0.5021  0.2900
10124TIP3    H251788   5.097   5.173   5.847 -0.0971 -1.1563  0.1873
10125TIP3   OH251789   1.325   0.192   0.291  0.1428  0.4274 -0.1978
10125TIP3    H151790   1.383   0.219   0.220  1.5170  1.0376  1.1383
10125TIP3    H251791   1.376   0.127   0.340 -1.8261 -2.0916 -1.3594
10126TIP3   OH251792   3.581   4.124   2.181 -0.2526 -0.8391 -0.3445
10126TIP3    H151793   3.586   4.125   2.085  0.8122  0.8487 -0.2993
10126TIP3    H251794   3.496   4.162   2.201 -0.1513 -0.4678 -0.6102
10127TIP3   OH251795   6.426   3.569  15.507 -0.1436  0.1353  0.1473
10127TIP3    H151796   6.502   3.541  15.558 -0.0120 -0.0378 -0.1406
10127TIP3    H251797   6.368   3.493  15.509  0.0875 -0.0571 -0.3921
10128TIP3   OH251798   5.541   3.735   0.239  0.0836  0.4480 -0.3543
10128TIP3    H151799   5.455   3.773   0.257  0.1247 -0.2575  1.3746
10128TIP3    H251800   5.558   3.676   0.313  1.4888 -0.3960 -1.3164
10129TIP3   OH251801   4.786   3.082   4.032  0.2877 -0.3739  0.4936
10129TIP3    H151802   4.816   3.060   3.944 -1.1699 -1.6800  0.2877
10129TIP3    H251803   4.834   3.021   4.089  1.2545  0.4926  0.6358
10130TIP3   OH251804   4.750   6.017  10.719  0.0779  0.0721  0.5698
10130TIP3    H151805   4.839   5.985  10.702  0.3438  0.5284  1.1202
10130TIP3    H251806   4.711   5.951  10.776 -0.0788 -0.3361  0.0016
10131TIP3   OH251807   0.648   3.613   2.042  0.1495 -0.2441 -0.5433
10131TIP3    H151808   0.725   3.583   1.995 -0.0931  0.6902 -1.5392
10131TIP3    H251809   0.595   3.657   1.976 -1.2514 -0.8900  0.1213
10132TIP3   OH251810   5.689   4.224   4.646  0.5024 -0.1439 -0.4511
10132TIP3    H151811   5.785   4.219   4.639  0.6866  0.7395  1.1635
10132TIP3    H251812   5.660   4.241   4.556  1.8958 -0.0766 -0.9093
10133TIP3   OH251813   3.036   5.295  12.047 -0.8918 -0.3325  0.2414
10133TIP3    H151814   2.961   5.242  12.020  0.2842 -1.5027 -0.8146
10133TIP3    H251815   3.024   5.378  12.002 -1.8608 -0.2799  0.5689
10134TIP3   OH251816   0.481   4.579  16.764 -0.9734  0.1777 -0.5395
10134TIP3    H151817   0.542   4.506  16.772  0.3277  1.3823  0.8600
10134TIP3    H251818   0.501   4.617  16.678  0.5153  0.7781  0.0548
10135TIP3   OH251819   5.220   4.394  11.206  0.1950  0.2187 -0.0895
10135TIP3    H151820   5.183   4.481  11.214  0.6436  0.2990  1.1569
10135TIP3    H251821   5.296   4.405  11.148  0.0787  0.6024 -0.1698
10136TIP3   OH251822   6.708   0.121   6.041 -0.0256  0.0360 -0.6768
10136TIP3    H151823   6.694   0.216   6.048 -2.2289 -0.2519 -0.9253
10136TIP3    H251824   6.701   0.103   5.947  2.0214 -0.1668 -0.8232
10137TIP3   OH251825   3.215   4.250   1.464  0.4389  0.2894  0.7438
10137TIP3    H151826   3.281   4.310   1.428 -0.0945  0.0485 -0.6631
10137TIP3    H251827   3.172   4.212   1.387  0.2002 -1.2767  1.6200
10138TIP3   OH251828   5.147   4.972  12.452  0.0334  0.5124  0.4245
10138TIP3    H151829   5.091   4.975  12.375  1.0840 -0.1919 -0.3827
10138TIP3    H251830   5.180   5.062  12.461 -1.3793  0.9776  1.0347
10139TIP3   OH251831   3.912   2.927  14.037  0.6330 -0.1595 -0.7782
10139TIP3    H151832   3.892   3.010  13.996  0.4912  0.1599 -0.0757
10139TIP3    H251833   4.001   2.906  14.008  0.9863  0.6465 -0.3073
10140TIP3   OH251834   1.352   6.322  11.616 -0.2226 -0.1431 -0.3321
10140TIP3    H151835   1.311   6.406  11.594  1.9543  0.9362 -0.3298
10140TIP3    H251836   1.337   6.268  11.538 -1.7616  0.1749 -0.2827
10141TIP3   OH251837   6.352   1.899   3.828 -0.1640 -0.2217 -0.0102
10141TIP3    H151838   6.416   1.965   3.855 -0.2784 -0.5973  1.2005
10141TIP3    H251839   6.337   1.847   3.907 -2.7565  0.5159  0.0020
10142TIP3   OH251840   1.397   5.523  13.916 -0.0993  0.5481  0.3607
10142TIP3    H151841   1.421   5.545  13.826 -2.0500  2.0155  0.1852
10142TIP3    H251842   1.444   5.586  13.970 -0.1992  0.6876  0.2838
10143TIP3   OH251843   5.104   6.181   3.293  0.2193 -0.2380 -0.0282
10143TIP3    H151844   5.106   6.091   3.326  0.0823 -0.3548 -0.3323
10143TIP3    H251845   5.043   6.178   3.219  1.4222 -0.2396 -1.0390
10144TIP3   OH251846   5.136   2.565   0.481  0.9381  0.2628  0.0138
10144TIP3    H151847   5.175   2.559   0.568 -0.1860 -0.7126  0.4671
10144TIP3    H251848   5.185   2.503   0.428  2.0509  1.3301 -0.2259
10145TIP3   OH251849   0.318   2.464   2.117 -0.5080 -0.7018 -0.0817
10145TIP3    H151850   0.379   2.511   2.174 -0.2085  0.0508 -1.0123
10145TIP3    H251851   0.328   2.505   2.031 -1.0556 -1.7313 -0.6550
10146TIP3   OH251852   1.801   3.696   2.820 -0.3580 -0.6368 -0.3053
10146TIP3    H151853   1.847   3.714   2.902  0.8592  2.1568 -1.5352
10146TIP3    H251854   1.855   3.628   2.777  0.5086 -0.1507 -0.0059
10147TIP3   OH251855   0.597   2.492   0.425  0.2488 -0.2800  0.1640
10147TIP3    H151856   0.564   2.427   0.362 -0.9901  0.8976 -0.4088
10147TIP3    H251857   0.644   2.439   0.490  0.5312 -1.6257 -1.0833
10148TIP3   OH251858   1.460   3.943   3.059  0.8265  0.1732 -0.3899
10148TIP3    H151859   1.374   3.942   3.018  0.1547  0.4570  0.9884
10148TIP3    H251860   1.515   3.993   2.998  0.0593 -0.1543 -1.3542
10149TIP3   OH251861   4.033   2.892  14.481  0.6280 -0.4519 -0.6028
10149TIP3    H151862   4.090   2.817  14.500  1.2647 -0.2889 -1.8098
10149TIP3    H251863   4.056   2.957  14.548  0.0598 -1.3302  0.4655
10150TIP3   OH251864   3.807   4.687   1.867 -0.0407  0.3653  0.2820
10150TIP3    H151865   3.843   4.599   1.852  0.9037  0.9241 -0.8544
10150TIP3    H251866   3.884   4.744   1.861  0.0662  0.9369  4.9439
10151TIP3   OH251867   5.678   3.520   0.365 -0.0347  0.6312 -0.1849
10151TIP3    H151868   5.770   3.538   0.381 -0.1620  0.7956  0.3751
10151TIP3    H251869   5.676   3.473   0.282  0.7539 -1.3414  0.8817
10152TIP3   OH251870   4.199   3.409  13.171 -0.0119  0.2780  0.0094
10152TIP3    H151871   4.147   3.487  13.152  0.0057  0.4564  0.6704
10152TIP3    H251872   4.243   3.388  13.089  1.6121  2.1939  0.3431
10153TIP3   OH251873   5.145   2.409  15.964  0.2740 -0.4064 -0.3557
10153TIP3    H151874   5.080   2.392  16.031 -0.3220 -1.6678 -1.2283
10153TIP3    H251875   5.110   2.482  15.913  0.3142 -0.0286  0.1560
10154TIP3   OH251876   3.675   2.658  11.687  0.1943 -0.5958  0.3694
10154TIP3    H151877   3.722   2.624  11.763 -0.3097 -0.1493  0.8910
10154TIP3    H251878   3.683   2.753  11.695 -0.2631 -0.5360  0.1285
10155TIP3   OH251879   5.851   3.336   3.642 -0.1667  0.0658 -0.3537
10155TIP3    H151880   5.780   3.292   3.688 -0.6925  0.5281 -0.7169
10155TIP3    H251881   5.831   3.429   3.649  0.7097  0.2273  0.0371
10156TIP3   OH251882   0.986   2.148  12.535  0.2341  0.3760  0.5439
10156TIP3    H151883   0.974   2.101  12.453 -0.5048 -0.8181  1.3159
10156TIP3    H251884   0.905   2.197  12.547  0.6723  1.1940  0.1506
10157TIP3   OH251885   2.529   3.125   3.426  0.2781  0.1291 -0.5507
10157TIP3    H151886   2.457   3.088   3.375  1.3554 -1.4197 -0.9862
10157TIP3    H251887   2.582   3.173   3.362  1.2964 -1.3041 -0.8017
10158TIP3   OH251888   2.459   2.358  11.533  0.2072  0.7013 -0.0800
10158TIP3    H151889   2.485   2.424  11.598  0.3693  0.1252  0.4381
10158TIP3    H251890   2.539   2.308  11.517 -0.0173  0.3788 -0.1789
10159TIP3   OH251891   3.740   2.652   5.080 -0.2871  0.7320  0.2629
10159TIP3    H151892   3.729   2.704   5.160 -0.6422  2.0666 -0.6281
10159TIP3    H251893   3.785   2.573   5.108 -0.4615  1.1698  1.7950
10160TIP3   OH251894   6.191   0.802  14.482  0.2875 -0.5563  0.8125
10160TIP3    H151895   6.141   0.794  14.401  0.6300  1.6472  0.3346
10160TIP3    H251896   6.125   0.810  14.551 -0.0410  0.5083  0.3922
10161TIP3   OH251897   4.745   4.605  16.920 -0.0937 -0.0151 -0.3542
10161TIP3    H151898   4.765   4.699  16.921  0.7027 -0.1818  0.2366
10161TIP3    H251899   4.747   4.580  17.013 -1.2287 -0.4241 -0.4360
10162TIP3   OH251900   5.304   0.270  16.203  0.0093 -0.4894  0.0976
10162TIP3    H151901   5.297   0.174  16.205 -0.7487 -0.4341  0.5237
10162TIP3    H251902   5.213   0.300  16.208  0.1501  0.2412 -1.3881
10163TIP3   OH251903   1.926   3.228   3.333  0.0600 -0.4066 -0.0488
10163TIP3    H151904   1.930   3.262   3.422  1.0605  2.3207 -1.1047
10163TIP3    H251905   1.842   3.182   3.329 -0.0853 -0.3791  2.2189
10164TIP3   OH251906   3.869   0.389  15.473 -0.1111  0.5485  0.0312
10164TIP3    H151907   3.955   0.408  15.510  0.2143  0.1282 -0.5033
10164TIP3    H251908   3.821   0.348  15.545  0.4527 -0.0826  0.0540
10165TIP3   OH251909   2.462   3.417  14.793 -0.0787  0.4849 -0.4580
10165TIP3    H151910   2.419   3.351  14.847  2.5869 -1.2601 -0.3408
10165TIP3    H251911   2.504   3.475  14.855 -1.5487  1.7213 -0.5866
10166TIP3   OH251912   4.924   3.972  14.289 -0.4902 -0.0819  0.0684
10166TIP3    H151913   4.835   3.971  14.253 -0.5356  0.7074  0.1476
10166TIP3    H251914   4.959   3.886  14.267 -1.0113 -0.1249 -0.6342
10167TIP3   OH251915   5.213   3.874   5.044  0.0081 -0.0893 -0.1778
10167TIP3    H151916   5.293   3.885   4.991  0.0493  0.7100  0.0388
10167TIP3    H251917   5.207   3.780   5.058  1.7684 -0.0426  1.0956
10168TIP3   OH251918   0.791   5.710   4.342 -0.2742 -0.6758  0.2769
10168TIP3    H151919   0.881   5.731   4.320  0.1218 -1.2851  1.3009
10168TIP3    H251920   0.740   5.785   4.310  0.4026 -1.0162 -1.6562
10169TIP3   OH251921   2.263   2.261  13.344 -0.2630 -0.3839 -0.0496
10169TIP3    H151922   2.243   2.179  13.388  1.1701 -0.3846  0.6414
10169TIP3    H251923   2.179   2.305  13.333 -0.5920 -0.0984  3.2454
10170TIP3   OH251924   3.581   3.401  13.943 -0.4729 -0.4410  0.1030
10170TIP3    H151925   3.488   3.419  13.924 -0.0075  1.4080 -0.5263
10170TIP3    H251926   3.617   3.373  13.858  0.1015  1.2780 -0.2236
10171TIP3   OH251927   3.955   2.560   4.925 -0.2090  0.2597 -0.5449
10171TIP3    H151928   3.897   2.620   4.971  0.9069  1.3550 -0.5514
10171TIP3    H251929   3.915   2.474   4.938 -1.5917  0.9410 -0.1921
10172TIP3   OH251930   4.626   6.237  13.731 -0.1321  0.3215  0.2655
10172TIP3    H151931   4.580   6.284  13.662  0.2897 -0.1294 -0.3240
10172TIP3    H251932   4.557   6.190  13.778 -0.3352  0.0265 -0.3206
10173TIP3   OH251933   1.922   3.082   4.549  0.5281 -0.3832 -0.1228
10173TIP3    H151934   1.912   3.177   4.549  0.4214 -0.3652 -1.8714
10173TIP3    H251935   1.847   3.050   4.600  0.2442  0.4475 -0.0126
10174TIP3   OH251936   5.364   6.513  15.180  0.5379  0.7820 -0.7091
10174TIP3    H151937   5.453   6.542  15.161  0.4276  1.2193 -0.5703
10174TIP3    H251938   5.367   6.417  15.172  0.9056  0.8320 -1.1752
10175TIP3   OH251939   2.522   0.221  12.945 -0.1563  0.2913 -0.1435
10175TIP3    H151940   2.511   0.209  13.039 -2.3602 -0.0645 -0.4279
10175TIP3    H251941   2.521   0.316  12.933 -0.3502  0.3270  0.1447
10176TIP3   OH251942   1.797   6.443  12.108  0.3450  0.5249  0.1754
10176TIP3    H151943   1.841   6.368  12.148 -1.5325  0.3421  1.9437
10176TIP3    H251944   1.735   6.474  12.174 -1.2058  1.6410 -1.7278
10177TIP3   OH251945   4.031   6.660   4.439  0.2955  0.3492 -0.0143
10177TIP3    H151946   3.957   6.672   4.380  0.3358  0.3981 -0.0555
10177TIP3    H251947   3.993   6.624   4.519  0.4319 -1.1157 -0.5995
10178TIP3   OH251948   0.897   0.096   4.909  0.3025 -0.4061  0.0441
10178TIP3    H151949   0.883   0.005   4.883  0.8453 -0.0597 -1.5034
10178TIP3    H251950   0.835   0.111   4.980 -0.9033 -1.5107 -0.7676
10179TIP3   OH251951   1.624   3.335  14.392  0.3575 -0.5428 -0.1270
10179TIP3    H151952   1.597   3.404  14.331  2.0746  0.6756  0.4510
10179TIP3    H251953   1.591   3.254  14.353 -1.5818  0.5746 -0.8873
10180TIP3   OH251954   6.559   1.155  13.653 -0.1183  0.0287 -0.3056
10180TIP3    H151955   6.546   1.068  13.693 -0.3844 -0.9965 -2.5626
10180TIP3    H251956   6.626   1.141  13.586 -0.3933  1.5244 -0.9126
10181TIP3   OH251957   3.435   0.191   0.152  0.4469 -0.2072  0.2671
10181TIP3    H151958   3.530   0.191   0.140  0.3409 -2.2146 -0.8473
10181TIP3    H251959   3.408   0.104   0.123 -1.5756 -0.1425  1.8725
10182TIP3   OH251960   2.316   3.908  15.550 -0.2214 -0.0650 -0.1762
10182TIP3    H151961   2.222   3.910  15.537 -0.1588 -0.3785 -0.7030
10182TIP3    H251962   2.351   3.970  15.486  0.1126 -1.8554 -1.7793
10183TIP3   OH251963   1.329   4.383   0.119 -0.2753 -0.2103  0.3106
10183TIP3    H151964   1.349   4.293   0.145  1.3639  0.0309 -0.0892
10183TIP3    H251965   1.394   4.405   0.053  0.5687  1.9402  1.8083
10184TIP3   OH251966   0.084   5.403   5.373  0.0754  0.3377 -0.9756
10184TIP3    H151967   0.024   5.371   5.440  0.6818  0.1417 -0.5228
10184TIP3    H251968   0.170   5.398   5.414  0.2435  1.9878 -1.1129
10185TIP3   OH251969   0.905   5.052  15.414  0.0843  0.0398  0.4943
10185TIP3    H151970   0.839   4.991  15.449  0.1042 -0.5818 -0.5288
10185TIP3    H251971   0.915   5.026  15.322  2.1847 -0.2470  0.7809
10186TIP3   OH251972   4.391   5.738   1.991  0.6443  0.1122  0.2194
10186TIP3    H151973   4.424   5.802   1.928  1.8327  1.1826  1.8978
10186TIP3    H251974   4.338   5.790   2.052 -2.6173 -1.2695 -1.2725
10187TIP3   OH251975   4.144   2.593  10.747  0.5059  0.3877  0.4501
10187TIP3    H151976   4.111   2.642  10.672 -0.7959 -1.0372  0.0619
10187TIP3    H251977   4.094   2.626  10.821 -0.5261 -0.5017  0.1544
10188TIP3   OH251978   2.076   2.939   0.420  0.5119 -0.3713  0.6190
10188TIP3    H151979   2.011   2.960   0.353  1.3145 -1.0629 -0.3906
10188TIP3    H251980   2.159   2.968   0.382  0.9130 -0.2635  1.5542
10189TIP3   OH251981   5.594   3.098   6.703  0.8338  0.4756 -0.1423
10189TIP3    H151982   5.504   3.092   6.672  1.0796  1.3375 -1.0453
10189TIP3    H251983   5.647   3.079   6.626  1.4365 -1.1649  0.6499
10190TIP3   OH251984   6.586   5.159   3.390  0.1668 -0.4717 -0.3654
10190TIP3    H151985   6.620   5.249   3.393 -1.1681  0.0468 -0.2107
10190TIP3    H251986   6.562   5.146   3.298 -2.2677  0.3617  0.1160
10191TIP3   OH251987   3.603   6.226   5.573  0.6883 -0.0130 -0.0145
10191TIP3    H151988   3.677   6.287   5.570  1.3921 -0.9310 -1.9939
10191TIP3    H251989   3.567   6.227   5.485 -0.4567 -1.0739  0.4259
10192TIP3   OH251990   2.068   0.649   5.134  0.3507  0.1604  0.3730
10192TIP3    H151991   2.070   0.668   5.041  0.4884 -1.8282 -0.0505
10192TIP3    H251992   2.018   0.721   5.173  1.6768  1.8583 -1.0037
10193TIP3   OH251993   3.162   3.189  12.068  0.3666  0.4393  0.0840
10193TIP3    H151994   3.111   3.118  12.027  1.1146  0.6464 -1.2346
10193TIP3    H251995   3.215   3.225  11.997  0.7746  1.6430  0.9719
10194TIP3   OH251996   1.319   1.608   3.105  0.4190 -0.2232 -0.4447
10194TIP3    H151997   1.255   1.537   3.117 -1.3851  1.1556 -1.6477
10194TIP3    H251998   1.318   1.625   3.011  1.0745  1.1707 -0.2003
10195TIP3   OH251999   6.327   4.455  11.695  0.0603  0.2051 -0.1687
10195TIP3    H152000   6.261   4.523  11.684 -1.5608 -1.3364 -0.2950
10195TIP3    H252001   6.411   4.500  11.682 -1.0188  1.9268 -1.4136
10196TIP3   OH252002   5.483   3.527  15.329  0.4791 -0.3338 -0.3299
10196TIP3    H152003   5.541   3.476  15.272  1.7828  0.1074  0.5681
10196TIP3    H252004   5.432   3.462  15.376  0.9104 -0.7576 -0.4437
10197TIP3   OH252005   1.841   2.542   0.995 -0.3769 -0.5142 -0.1750
10197TIP3    H152006   1.919   2.595   1.007 -0.2135 -0.4866 -1.3328
10197TIP3    H252007   1.813   2.519   1.084  1.4212 -1.2201  0.2248
10198TIP3   OH252008   5.977   3.024   3.071 -0.0515  0.2699 -0.1553
10198TIP3    H152009   6.072   3.034   3.077 -0.0366 -0.5079  1.2196
10198TIP3    H252010   5.943   3.113   3.064  0.7863  0.5384 -0.8564
10199TIP3   OH252011   2.928   4.136  15.011  0.1609  0.0310 -0.0949
10199TIP3    H152012   2.921   4.231  15.003 -0.7697  0.1384  1.7190
10199TIP3    H252013   2.985   4.122  15.087  1.3749 -0.8680 -1.1555
10200TIP3   OH252014   2.321   5.804   0.013 -0.4634 -0.8241  0.3373
10200TIP3    H152015   2.253   5.798  -0.055 -0.2590  2.1376 -0.1686
10200TIP3    H252016   2.369   5.721   0.005 -1.9479 -1.5532 -1.5158
10201TIP3   OH252017   4.849   5.819  15.940 -0.2036  0.5077 -0.5330
10201TIP3    H152018   4.760   5.808  15.973 -0.2062 -0.3339 -0.8116
10201TIP3    H252019   4.860   5.914  15.931 -0.4175  0.7358  1.3163
10202TIP3   OH252020   5.300   0.622  12.970  0.1078 -0.1718 -0.3075
10202TIP3    H152021   5.332   0.621  12.879 -0.7514 -0.5448 -0.6110
10202TIP3    H252022   5.305   0.714  12.995  0.2262 -0.0436 -0.7845
10203TIP3   OH252023   6.181   6.417   0.086  0.0065 -0.8539  0.8922
10203TIP3    H152024   6.260   6.389   0.040  0.0938 -2.2883  1.8794
10203TIP3    H252025   6.143   6.484   0.029  1.2517 -1.0598 -0.2123
10204TIP3   OH252026   1.725   6.000   3.924  0.3199 -0.9268  0.2223
10204TIP3    H152027   1.744   6.081   3.970  2.2404 -1.1048 -0.2147
10204TIP3    H252028   1.640   6.015   3.882  1.4737  1.5169 -1.3412
10205TIP3   OH252029   2.220   0.292  15.160 -0.0038 -0.0484 -0.2561
10205TIP3    H152030   2.156   0.224  15.140 -1.4565  0.9978  0.7832
10205TIP3    H252031   2.179   0.373  15.129  0.2068  0.8077  1.6759
10206TIP3   OH252032   3.173   3.918   3.408  0.1444  0.0983 -0.0825
10206TIP3    H152033   3.082   3.916   3.438  0.8971 -1.2359  2.2805
10206TIP3    H252034   3.211   3.992   3.455  0.2145  0.8407 -1.3034
10207TIP3   OH252035   2.612   1.466  14.982  0.6491 -0.2596 -0.7194
10207TIP3    H152036   2.550   1.445  14.912  0.1597  2.1280 -1.0351
10207TIP3    H252037   2.688   1.410  14.964 -0.3152 -1.2214 -1.9105
10208TIP3   OH252038   5.189   1.911  11.143 -0.3987 -0.3993  0.3214
10208TIP3    H152039   5.095   1.896  11.151  0.0276 -3.0677  0.7618
10208TIP3    H252040   5.207   1.985  11.202 -1.9839 -0.7862  1.3141
10209TIP3   OH252041   5.679   6.295   5.786 -0.2020 -0.4180 -0.6872
10209TIP3    H152042   5.697   6.383   5.819 -0.8048 -1.0222  1.2997
10209TIP3    H252043   5.764   6.251   5.788 -0.5343 -1.0619  2.0212
10210TIP3   OH252044   3.646   6.559  11.302 -0.5361 -0.1502 -0.1213
10210TIP3    H152045   3.691   6.495  11.246  1.7077  0.3582  1.0428
10210TIP3    H252046   3.650   6.521  11.389  0.8437  1.5493  0.5940
10211TIP3   OH252047   3.411   1.084   5.735  0.0866  0.2324 -0.3882
10211TIP3    H152048   3.480   1.124   5.788 -0.7570 -0.1236  1.0333
10211TIP3    H252049   3.396   1.145   5.664  0.3338  1.3872  0.5300
10212TIP3   OH252050   2.481   2.912  11.208 -0.1883  0.7897  0.0243
10212TIP3    H152051   2.570   2.937  11.234 -0.0544  0.3797 -0.0473
10212TIP3    H252052   2.462   2.833  11.258  0.7503 -1.0342 -2.4561
10213TIP3   OH252053   6.730   1.882   3.437  0.6354  0.5885 -0.0605
10213TIP3    H152054   6.757   1.872   3.528 -1.5078  0.6299  0.5981
10213TIP3    H252055   6.724   1.793   3.403 -4.8667  0.0788  1.7712
10214TIP3   OH252056   2.260   0.778  11.173 -0.2256  0.5192  0.8337
10214TIP3    H152057   2.311   0.779  11.254 -0.4391  1.7291  0.9675
10214TIP3    H252058   2.170   0.794  11.201 -0.5661 -0.8263  0.5200
10215TIP3   OH252059   6.176   4.656  12.086 -0.1460  0.4742 -0.7636
10215TIP3    H152060   6.103   4.600  12.059 -0.6486  1.4707 -1.5140
10215TIP3    H252061   6.188   4.717  12.013  0.4892  1.2440 -0.0312
10216TIP3   OH252062   1.131   3.527   0.836 -0.1821 -0.2331  0.0479
10216TIP3    H152063   1.083   3.475   0.901 -0.1490 -1.0502 -0.5602
10216TIP3    H252064   1.185   3.586   0.887  1.4321 -2.3094  0.8387
10217TIP3   OH252065   6.517   6.289  10.696 -0.0007 -0.1470 -0.3589
10217TIP3    H152066   6.481   6.285  10.608  0.5600 -0.6824 -0.5655
10217TIP3    H252067   6.578   6.363  10.695 -0.2965  0.0967 -0.3072
10218TIP3   OH252068   4.296   1.656  16.444  0.2973 -0.2154  0.6815
10218TIP3    H152069   4.260   1.569  16.462 -1.9778  0.6653  0.5806
10218TIP3    H252070   4.266   1.710  16.517  2.8291  0.2252  1.4549
10219TIP3   OH252071   6.783   0.627   4.430 -0.5487  0.8011  0.1984
10219TIP3    H152072   6.721   0.688   4.470 -1.4227  0.1511 -0.1597
10219TIP3    H252073   6.854   0.619   4.494  0.4818  3.6160 -0.5123
10220TIP3   OH252074   1.020   0.660   0.135 -0.1197 -0.0433  0.4992
10220TIP3    H152075   1.021   0.585   0.194 -1.7961  0.7080  1.5513
10220TIP3    H252076   1.053   0.627   0.051 -0.7212 -1.8996  0.9873
10221TIP3   OH252077   2.040   6.516   2.051 -0.1734 -0.3054 -0.0603
10221TIP3    H152078   2.097   6.509   1.974 -0.5986  0.0943 -0.4181
10221TIP3    H252079   2.067   6.597   2.093 -0.8087  0.1449 -0.5087
10222TIP3   OH252080   6.021   2.515  12.028  0.0306 -0.4136  0.0050
10222TIP3    H152081   6.025   2.420  12.012 -0.5187 -0.8421  2.2386
10222TIP3    H252082   5.938   2.542  11.988  0.4897 -0.7609 -1.1918
10223TIP3   OH252083   3.731   6.719   2.265 -0.3601  0.4532 -0.4728
10223TIP3    H152084   3.786   6.730   2.188  0.3725 -1.6125 -0.2854
10223TIP3    H252085   3.789   6.738   2.339  0.0130 -1.3193 -0.2923
10224TIP3   OH252086   6.547   5.991   1.272 -0.1128  0.2183 -0.2871
10224TIP3    H152087   6.513   5.912   1.231 -0.7436  0.0047  0.6347
10224TIP3    H252088   6.500   6.062   1.227  1.0642  0.1254 -1.6917
10225TIP3   OH252089   4.714   4.678   2.602 -0.3738  0.2727 -0.4641
10225TIP3    H152090   4.626   4.676   2.640 -0.2770  1.0532 -0.1796
10225TIP3    H252091   4.744   4.588   2.608 -0.4066  0.3464  1.2235
10226TIP3   OH252092   1.748   5.370  17.109 -0.7586  0.2948  0.2183
10226TIP3    H152093   1.731   5.296  17.051  0.0868 -0.3166  0.7388
10226TIP3    H252094   1.806   5.427  17.058 -1.6815  0.7659 -0.3121
10227TIP3   OH252095   4.208   1.743  12.870 -0.0193 -0.0660  0.7413
10227TIP3    H152096   4.200   1.828  12.826  0.6755  0.0761  0.8906
10227TIP3    H252097   4.120   1.705  12.864 -0.6478  1.1914  1.7621
10228TIP3   OH252098   1.094   3.924   4.864  0.0128 -0.1794 -0.1604
10228TIP3    H152099   1.100   3.904   4.770  0.7109 -2.5508  0.3569
10228TIP3    H252100   1.022   3.987   4.870 -1.4499 -1.6158 -2.0448
10229TIP3   OH252101   5.127   2.951   0.307  0.0455 -0.2963  0.1446
10229TIP3    H152102   5.213   2.929   0.271 -0.7474 -1.5649 -1.0270
10229TIP3    H252103   5.136   3.042   0.336  1.7830 -0.4203  0.0620
10230TIP3   OH252104   5.619   0.795   1.309 -0.0042  0.1480 -0.0843
10230TIP3    H152105   5.546   0.738   1.285  0.5592 -1.0589  0.9974
10230TIP3    H252106   5.697   0.751   1.274  0.5472 -0.3193  1.6697
10231TIP3   OH252107   2.405   0.582   2.051 -0.2401 -0.8468 -0.1741
10231TIP3    H152108   2.356   0.518   2.102  1.3647  0.3803  3.0249
10231TIP3    H252109   2.344   0.654   2.037 -0.4936 -0.9080  0.6034
10232TIP3   OH252110   0.475   5.795   1.323  0.5136  0.8037  0.5437
10232TIP3    H152111   0.405   5.853   1.294  0.3249 -0.1758 -1.0561
10232TIP3    H252112   0.431   5.711   1.337  1.0074  0.7168  1.5505
10233TIP3   OH252113   3.400   1.962  13.174  0.3615 -0.4459  0.5908
10233TIP3    H152114   3.438   1.903  13.239  2.6702  1.0511  0.6717
10233TIP3    H252115   3.453   1.949  13.096  0.9058  1.4875  0.6162
10234TIP3   OH252116   4.747   3.023   6.000  0.4723 -0.2057 -0.1364
10234TIP3    H152117   4.675   2.971   6.036  0.7705 -0.6194 -0.1385
10234TIP3    H252118   4.784   2.969   5.930  1.8503 -0.7236  0.9625
10235TIP3   OH252119   5.668   2.835   0.103 -0.0961  0.0435 -0.0582
10235TIP3    H152120   5.648   2.907   0.044  1.4364  0.3812 -0.1994
10235TIP3    H252121   5.764   2.833   0.106 -0.0529 -2.9243 -1.2595
10236TIP3   OH252122   5.774   2.858   1.401  0.2913  0.5173  0.3903
10236TIP3    H152123   5.860   2.816   1.395  0.3128  0.6682 -0.5168
10236TIP3    H252124   5.730   2.814   1.474  0.6889 -0.3978  0.0885
10237TIP3   OH252125   6.522   0.062   2.833 -0.3942 -0.1921 -0.4816
10237TIP3    H152126   6.527   0.032   2.743 -0.3305 -1.0305 -0.2054
10237TIP3    H252127   6.613   0.071   2.861 -0.4097  0.7993 -0.7352
10238TIP3   OH252128   4.203   5.564   3.225 -0.4668  0.6505 -0.0437
10238TIP3    H152129   4.274   5.499   3.219  0.7243  1.8369  1.0860
10238TIP3    H252130   4.145   5.529   3.293 -0.4223  0.2059 -0.2280
10239TIP3   OH252131   6.126   4.741  16.376  0.0730 -0.5530 -0.4789
10239TIP3    H152132   6.213   4.729  16.337  0.3548 -0.1053  0.0070
10239TIP3    H252133   6.123   4.678  16.448 -0.2301 -0.9829 -0.8660
10240TIP3   OH252134   4.328   2.537  14.153 -0.2809 -0.2781 -0.5655
10240TIP3    H152135   4.266   2.606  14.178  1.1709  1.1555 -0.8567
10240TIP3    H252136   4.351   2.558  14.062  1.0755 -0.4652 -0.2662
10241TIP3   OH252137   6.507   2.686   5.248  0.1188  0.5839 -0.0473
10241TIP3    H152138   6.420   2.721   5.232  0.2023  0.5649 -0.5408
10241TIP3    H252139   6.500   2.641   5.333  0.1374  2.1981  0.8210
10242TIP3   OH252140   6.373   0.859  12.369  0.2840  0.0354 -0.0177
10242TIP3    H152141   6.439   0.929  12.363  1.4337 -1.0809 -0.6860
10242TIP3    H252142   6.346   0.859  12.460  0.7349  0.9490  0.1227
10243TIP3   OH252143   0.513   2.429   3.884  0.4226  0.5286 -0.0479
10243TIP3    H152144   0.420   2.404   3.892  1.1182 -1.9442  0.7121
10243TIP3    H252145   0.555   2.352   3.846  2.6526  0.5556  2.2477
10244TIP3   OH252146   4.639   3.504   6.049 -0.4532  0.5264  0.2310
10244TIP3    H152147   4.604   3.416   6.067 -1.4166  1.3189  2.3047
10244TIP3    H252148   4.561   3.556   6.027  0.1490  0.8283 -1.2791
10245TIP3   OH252149   1.820   2.237  12.934 -0.6119  0.1791  0.4154
10245TIP3    H152150   1.806   2.147  12.905  3.1228 -0.5363  0.5966
10245TIP3    H252151   1.869   2.229  13.016  0.0348  2.3675  0.2989
10246TIP3   OH252152   6.300   6.501  11.882 -0.3997 -0.1008 -0.1667
10246TIP3    H152153   6.308   6.499  11.977  0.1691  0.4003 -0.1993
10246TIP3    H252154   6.253   6.421  11.860  0.2782 -0.6757  0.4605
10247TIP3   OH252155   0.286   0.745  15.246 -0.1883  0.2877  0.2372
10247TIP3    H152156   0.241   0.770  15.165  0.4652  0.1816 -0.1616
10247TIP3    H252157   0.302   0.828  15.291 -3.0946  0.1357  1.6225
10248TIP3   OH252158   2.787   0.521   0.459 -0.1851  0.0042  0.2767
10248TIP3    H152159   2.726   0.595   0.466  0.1822  0.4077 -0.6033
10248TIP3    H252160   2.767   0.466   0.534 -1.7321  0.0555 -0.0865
10249TIP3   OH252161   1.339   2.263  14.138 -0.1657  0.0696  0.4466
10249TIP3    H152162   1.302   2.296  14.219  0.2726  0.1139  0.6324
10249TIP3    H252163   1.352   2.342  14.084 -1.7194 -0.1105 -0.1950
10250TIP3   OH252164   0.325   5.852  14.187 -0.6123  0.2366 -0.2260
10250TIP3    H152165   0.397   5.892  14.235  0.2150  0.8080 -1.8792
10250TIP3    H252166   0.248   5.904  14.209 -0.8906 -1.4106  2.8833
10251TIP3   OH252167   4.509   3.573  13.842  0.4014  0.0856 -0.3286
10251TIP3    H152168   4.583   3.556  13.900 -0.3777 -2.2634  0.0553
10251TIP3    H252169   4.433   3.572  13.900 -0.0604  1.0716 -0.9172
10252TIP3   OH252170   2.381   2.447  16.080 -0.6974 -0.0060  0.4104
10252TIP3    H152171   2.466   2.484  16.104 -0.4941  0.6897 -1.3004
10252TIP3    H252172   2.318   2.512  16.111 -0.6603 -0.7093  2.0353
10253TIP3   OH252173   0.985   0.287  11.645 -0.0173 -0.4259  0.3077
10253TIP3    H152174   0.931   0.357  11.608 -0.7829 -1.2363 -0.1322
10253TIP3    H252175   1.008   0.318  11.732 -1.7488 -0.3469  0.7485
10254TIP3   OH252176   0.353   6.754  15.160 -0.0387  0.0845 -0.8527
10254TIP3    H152177   0.423   6.813  15.131 -0.8004  1.0521 -0.7266
10254TIP3    H252178   0.272   6.802  15.144 -0.6023 -0.3546  0.5736
10255TIP3   OH252179   4.398   1.596  13.126 -0.2933  0.2934  0.2637
10255TIP3    H152180   4.309   1.586  13.160  0.2317  0.0861  1.6088
10255TIP3    H252181   4.422   1.686  13.147 -0.6010  0.7106 -1.1319
10256TIP3   OH252182   0.431   3.857  12.704 -0.2465 -0.4510  0.8226
10256TIP3    H152183   0.369   3.812  12.761 -1.4076 -0.1426 -0.1946
10256TIP3    H252184   0.380   3.883  12.627  0.6167  1.7037  0.9238
10257TIP3   OH252185   4.715   3.371   0.652 -0.1073 -0.8035 -0.1460
10257TIP3    H152186   4.769   3.450   0.647  1.9380 -2.1939 -0.6366
10257TIP3    H252187   4.629   3.399   0.619  0.5174  1.2512 -0.1245
10258TIP3   OH252188   2.845   3.059   0.814  0.0527 -1.0136  0.7504
10258TIP3    H152189   2.756   3.040   0.842 -0.7222 -0.9122 -1.5755
10258TIP3    H252190   2.843   3.053   0.718  1.9021  1.6110  0.4682
10259TIP3   OH252191   3.399   0.140  16.665 -0.1868 -0.1753  0.5530
10259TIP3    H152192   3.346   0.143  16.744  0.2020  0.8120  0.7745
10259TIP3    H252193   3.370   0.215  16.613 -1.6288 -1.7708 -1.0081
10260TIP3   OH252194   3.386   4.592   0.797  0.2309 -0.1034 -0.1702
10260TIP3    H152195   3.477   4.579   0.769  0.3391 -0.4327  0.3171
10260TIP3    H252196   3.360   4.507   0.832  0.6186  0.6898  2.1541
10261TIP3   OH252197   4.117   2.182   5.784  0.3948  0.0744  0.0626
10261TIP3    H152198   4.175   2.191   5.860  0.0495 -2.1531  0.6332
10261TIP3    H252199   4.158   2.236   5.716  2.8323 -0.9584  0.6370
10262TIP3   OH252200   4.182   1.799  15.395  0.1562 -0.3575 -0.1357
10262TIP3    H152201   4.194   1.708  15.365 -0.7083 -1.2370  2.0442
10262TIP3    H252202   4.104   1.829  15.348  0.8005 -0.5146 -1.3322
10263TIP3   OH252203   2.159   6.168   4.787 -0.1495  0.5691  0.1897
10263TIP3    H152204   2.127   6.093   4.838  0.5463  0.0973 -0.0732
10263TIP3    H252205   2.226   6.132   4.730 -1.7983  0.8725 -1.9798
10264TIP3   OH252206   5.051   3.285   3.184 -0.1366  0.1800  0.2161
10264TIP3    H152207   5.112   3.220   3.220  0.0614  0.9727  1.3529
10264TIP3    H252208   4.965   3.255   3.211 -0.2897 -1.0634 -1.5812
10265TIP3   OH252209   1.601   3.686   4.941  0.5894 -0.0852 -0.5253
10265TIP3    H152210   1.688   3.705   4.905  0.7005 -0.3357 -0.3896
10265TIP3    H252211   1.606   3.595   4.968 -0.1613 -0.5349 -1.8393
10266TIP3   OH252212   0.133   2.552   1.799  0.1346 -0.1614  0.3160
10266TIP3    H152213   0.136   2.619   1.868 -0.4002 -0.9336  1.1019
10266TIP3    H252214   0.101   2.474   1.844 -2.3582 -0.0973 -1.2817
10267TIP3   OH252215   4.747   0.335   5.677 -0.0353 -0.1491  0.8772
10267TIP3    H152216   4.740   0.335   5.773 -1.0956  0.6700  0.8137
10267TIP3    H252217   4.691   0.263   5.648 -0.7422  0.4170  0.8194
10268TIP3   OH252218   6.150   5.777   3.735  0.3123  0.1920 -0.1936
10268TIP3    H152219   6.155   5.702   3.794  0.2273  0.1327 -0.2622
10268TIP3    H252220   6.089   5.837   3.777 -0.5321 -0.2891 -0.7148
10269TIP3   OH252221   1.348   3.579   4.242  0.3387  0.5034 -0.2341
10269TIP3    H152222   1.278   3.514   4.234  0.7965  0.2445 -2.5707
10269TIP3    H252223   1.318   3.652   4.187  1.3536  0.8835 -0.2873
10270TIP3   OH252224   2.946   5.855   2.002  0.3362 -0.7473  0.2557
10270TIP3    H152225   2.913   5.943   2.021 -0.7180 -0.6252 -1.9653
10270TIP3    H252226   3.022   5.869   1.947  0.1468 -1.2275 -0.1306
10271TIP3   OH252227   6.081   2.038   2.012 -0.3886 -0.3040  0.4928
10271TIP3    H152228   6.008   1.975   2.009 -0.4516 -0.2626  1.1356
10271TIP3    H252229   6.097   2.052   2.105  0.5971 -0.4801  0.3536
10272TIP3   OH252230   6.003   2.341  15.920 -0.5103  0.2029  0.4459
10272TIP3    H152231   6.007   2.355  15.825  0.7181  1.4345  0.6599
10272TIP3    H252232   6.049   2.258  15.934  1.7898  1.3901  0.2157
10273TIP3   OH252233   3.765   1.023   3.331  0.1058 -0.3641 -0.2700
10273TIP3    H152234   3.803   0.954   3.276  0.0305 -0.5053 -0.1475
10273TIP3    H252235   3.769   0.987   3.420 -0.0295 -0.2533 -0.2194
10274TIP3   OH252236   4.338   5.523   3.524 -0.0979  0.4000  0.4059
10274TIP3    H152237   4.379   5.604   3.551 -0.3549  0.5498  0.3521
10274TIP3    H252238   4.256   5.520   3.573  0.5924 -0.5427  1.5178
10275TIP3   OH252239   3.480   2.935  15.728 -0.4305 -0.3862 -0.0394
10275TIP3    H152240   3.519   2.894  15.806 -1.9605  1.6941  1.8484
10275TIP3    H252241   3.445   2.861  15.679 -0.4820 -1.6466  1.8060
10276TIP3   OH252242   6.768   0.988  14.640 -0.9405  0.1889 -0.0368
10276TIP3    H152243   6.760   0.943  14.556  0.2153  0.8691 -0.5198
10276TIP3    H252244   6.796   1.077  14.618 -0.2009  0.2527  1.0964
10277TIP3   OH252245   6.050   1.639  12.527  0.2823 -0.6236 -0.0704
10277TIP3    H152246   6.095   1.714  12.489 -0.7068 -0.9623 -1.9715
10277TIP3    H252247   6.120   1.579  12.553  1.0159  0.1857 -0.1549
10278TIP3   OH252248   4.525   2.106  12.693  0.4674 -0.5667 -0.0509
10278TIP3    H152249   4.564   2.132  12.610 -0.4100  0.5235 -0.1402
10278TIP3    H252250   4.555   2.017  12.707  0.5244 -0.8053 -1.6079
10279TIP3   OH252251   1.480   1.400   1.464  0.0187  0.1248 -0.0546
10279TIP3    H152252   1.511   1.482   1.503  0.4414 -0.5688  1.1188
10279TIP3    H252253   1.438   1.354   1.537  2.3808 -1.9807  0.0320
10280TIP3   OH252254   4.886   0.067   5.757 -0.3047  0.3107 -0.2558
10280TIP3    H152255   4.816   0.092   5.817  0.1726 -0.0433  0.4545
10280TIP3    H252256   4.958   0.128   5.777  0.8048 -1.5069  1.3705
10281TIP3   OH252257   3.196   5.515  14.924  0.0115  0.7154 -0.1480
10281TIP3    H152258   3.234   5.587  14.873  0.5737  0.2905 -0.3342
10281TIP3    H252259   3.251   5.440  14.904 -0.8233  0.1296 -0.2698
10282TIP3   OH252260   3.704   6.557   3.548  0.1697 -0.2274 -0.3004
10282TIP3    H152261   3.713   6.476   3.599 -0.6027 -1.0722 -1.4930
10282TIP3    H252262   3.787   6.603   3.562  0.3955 -0.9498  0.8435
10283TIP3   OH252263   2.435   0.852  11.354 -0.3056 -0.1469  0.0680
10283TIP3    H152264   2.470   0.871  11.441 -1.4719  1.3535  0.2279
10283TIP3    H252265   2.506   0.807  11.308  1.3113  1.5904  0.8350
10284TIP3   OH252266   5.387   3.124   1.363  0.1207  0.3959 -0.0206
10284TIP3    H152267   5.450   3.124   1.435 -1.3423  0.2296  1.3050
10284TIP3    H252268   5.419   3.190   1.302  3.1143 -1.6324 -0.7944
10285TIP3   OH252269   2.493   0.263  15.215  0.0865  0.7381  0.2864
10285TIP3    H152270   2.402   0.288  15.198 -0.1006  0.3177  0.6628
10285TIP3    H252271   2.490   0.213  15.296  0.2995 -1.4531 -1.0330
10286TIP3   OH252272   4.214   4.384   3.715 -0.3207  0.0026 -0.2075
10286TIP3    H152273   4.194   4.443   3.642  2.2984 -0.2519 -1.2016
10286TIP3    H252274   4.249   4.440   3.783  2.8438 -0.3661 -1.4147
10287TIP3   OH252275   5.163   3.318   5.995  0.8741 -0.3352 -0.0779
10287TIP3    H152276   5.258   3.328   6.005  0.9994 -1.8963  0.4450
10287TIP3    H252277   5.128   3.332   6.082  0.7420 -0.9875 -0.0257
10288TIP3   OH252278   5.159   3.107  16.723  0.0931  0.2293 -0.2414
10288TIP3    H152279   5.164   3.177  16.658 -2.2970 -0.4244 -1.2114
10288TIP3    H252280   5.206   3.034  16.682 -2.1918 -0.4833 -1.7289
10289TIP3   OH252281   5.862   0.389  13.842  0.1817  0.0691 -0.0548
10289TIP3    H152282   5.901   0.315  13.890 -0.0877 -0.4058 -0.5600
10289TIP3    H252283   5.847   0.456  13.909  2.5648  0.5573  0.0310
10290TIP3   OH252284   1.189   1.176   3.621 -0.5657 -0.2323 -0.3251
10290TIP3    H152285   1.147   1.155   3.705  0.1095 -1.0983 -0.1950
10290TIP3    H252286   1.281   1.189   3.643 -0.1441 -1.7814 -1.1240
10291TIP3   OH252287   2.073   4.971  15.336  0.1093  0.1089  0.1219
10291TIP3    H152288   2.115   5.010  15.413 -1.5329  2.0212  0.0751
10291TIP3    H252289   2.094   5.031  15.265 -1.0897  0.0648 -0.2773
10292TIP3   OH252290   4.465   3.078   3.751  0.2658 -0.1245 -0.0826
10292TIP3    H152291   4.386   3.030   3.730 -0.3684  0.7195  0.3550
10292TIP3    H252292   4.498   3.037   3.831  0.3549 -0.5703 -0.3475
10293TIP3   OH252293   6.491   6.044   2.434 -0.2294 -0.3818 -0.2251
10293TIP3    H152294   6.497   5.960   2.479 -0.6953 -0.8484 -1.0229
10293TIP3    H252295   6.582   6.070   2.418 -0.0542 -0.1412  1.1025
10294TIP3   OH252296   5.323   4.918  17.176 -0.7937 -0.0975 -0.2259
10294TIP3    H152297   5.413   4.935  17.207 -0.9389 -1.7927  1.2405
10294TIP3    H252298   5.269   4.978  17.227 -0.5668  0.4558 -0.6286
10295TIP3   OH252299   1.142   5.371  12.200 -0.4176  0.1859 -0.1468
10295TIP3    H152300   1.224   5.324  12.213 -0.8930 -1.1360 -1.7205
10295TIP3    H252301   1.159   5.460  12.231  2.0228  0.2844 -1.6576
10296TIP3   OH252302   5.700   6.508  15.700  0.3622  0.4940  0.1426
10296TIP3    H152303   5.737   6.427  15.735 -0.2934  0.2566  0.3067
10296TIP3    H252304   5.735   6.577  15.755  1.7832  0.4385 -0.6700
10297TIP3   OH252305   5.058   5.954  15.659  0.1391 -0.2026 -0.1322
10297TIP3    H152306   4.973   5.913  15.671 -0.9403  2.2072  0.7472
10297TIP3    H252307   5.120   5.881  15.655 -1.8941 -1.9496 -0.2337
10298TIP3   OH252308   2.540   2.184   2.386 -0.0545  0.1067 -0.4458
10298TIP3    H152309   2.543   2.090   2.407 -2.0350  0.5937  2.1502
10298TIP3    H252310   2.535   2.186   2.290 -0.3769 -2.4474 -0.5197
10299TIP3   OH252311   5.462   1.386   1.114 -0.7630 -0.1745 -0.2558
10299TIP3    H152312   5.498   1.469   1.085 -1.0052 -0.5027 -1.5805
10299TIP3    H252313   5.474   1.385   1.209  1.6278  0.2228 -0.5340
10300TIP3   OH252314   2.672   2.420  13.947  0.3432  0.0855  0.1202
10300TIP3    H152315   2.768   2.423  13.951  0.4268 -1.1234 -0.6731
10300TIP3    H252316   2.653   2.337  13.903 -1.0307  1.1176 -1.2731
10301TIP3   OH252317   6.671   4.521   1.789  0.3697 -0.5082  0.1713
10301TIP3    H152318   6.640   4.607   1.762  1.6206 -0.2289 -0.4610
10301TIP3    H252319   6.710   4.484   1.709  1.3389 -0.9585  0.8449
10302TIP3   OH252320   3.748   5.027   2.340 -0.0936 -0.2513  0.3640
10302TIP3    H152321   3.748   5.046   2.434  0.3380  0.1051  0.2939
10302TIP3    H252322   3.822   4.967   2.328  0.2018  0.1520  0.1638
10303TIP3   OH252323   5.265   4.349   2.454  0.0963  0.3244  0.0822
10303TIP3    H152324   5.208   4.280   2.487 -1.5121  1.3116 -0.5645
10303TIP3    H252325   5.260   4.341   2.359  0.2498  1.0330  0.0097
10304TIP3   OH252326   2.705   0.943   1.823 -0.5425  0.3705  0.5974
10304TIP3    H152327   2.612   0.930   1.805 -0.5078 -2.4993  2.1550
10304TIP3    H252328   2.710   0.951   1.919  0.7620  0.9219  0.4926
10305TIP3   OH252329   3.463   4.989  14.202 -0.5647  0.3172 -0.2434
10305TIP3    H152330   3.526   4.917  14.208 -0.4173  0.4639 -0.0259
10305TIP3    H252331   3.464   5.014  14.110 -1.9870 -1.1904 -0.6876
10306TIP3   OH252332   2.190   2.298   3.374 -0.5328  0.1212 -0.1697
10306TIP3    H152333   2.272   2.326   3.413  0.1675 -2.4508  0.3047
10306TIP3    H252334   2.159   2.374   3.325  2.4841  0.9178 -0.9448
10307TIP3   OH252335   1.618   5.528   5.285  0.8941 -0.0231 -0.3272
10307TIP3    H152336   1.703   5.493   5.258  0.5546  1.0843 -3.0182
10307TIP3    H252337   1.571   5.544   5.202 -1.8511 -0.3993  1.0916
10308TIP3   OH252338   5.673   6.096  16.481  0.1907  0.0745 -0.0280
10308TIP3    H152339   5.671   6.141  16.397 -1.2520  1.0113  0.4823
10308TIP3    H252340   5.719   6.014  16.464 -1.8013 -0.6530 -2.1958
10309TIP3   OH252341   3.783   3.325  17.178  0.4507  0.5906  0.0950
10309TIP3    H152342   3.746   3.270  17.108 -0.7032  1.6586 -0.1600
10309TIP3    H252343   3.810   3.263  17.245  1.3446 -0.4488 -1.1896
10310TIP3   OH252344   0.990   4.781  12.744  0.7126  0.2612  0.4139
10310TIP3    H152345   0.937   4.788  12.664  0.6182  0.6708  0.5117
10310TIP3    H252346   1.002   4.687  12.757 -0.0526  0.1634  0.4281
10311TIP3   OH252347   5.928   6.225   5.644  0.0110  0.7686  0.1802
10311TIP3    H152348   5.946   6.269   5.561  2.3037  0.4177  0.4437
10311TIP3    H252349   5.960   6.287   5.710  0.9560 -0.2082  0.6471
10312TIP3   OH252350   5.811   5.330  13.476 -0.4064  0.1300  0.1976
10312TIP3    H152351   5.877   5.312  13.409 -2.6018  1.2738 -2.3307
10312TIP3    H252352   5.834   5.417  13.509  0.1274 -0.0468  0.3094
10313TIP3   OH252353   4.515   6.334   3.509 -0.0765  0.0094  0.2422
10313TIP3    H152354   4.532   6.428   3.499  0.5730 -0.1780 -0.4422
10313TIP3    H252355   4.534   6.297   3.423  2.8830 -1.2287  1.3537
10314TIP3   OH252356   6.479   1.976   0.369  0.6877  0.3869  0.3941
10314TIP3    H152357   6.507   2.015   0.452 -0.0467 -1.0142  1.2991
10314TIP3    H252358   6.412   1.912   0.392 -3.1068  3.3708 -1.6854
10315TIP3   OH252359   5.986   5.624  15.060 -0.0944 -0.2302  0.0486
10315TIP3    H152360   5.959   5.626  15.151 -1.2460 -1.4122 -0.2595
10315TIP3    H252361   5.996   5.531  15.040 -1.4655 -0.0699 -1.4936
10316TIP3   OH252362   0.258   0.434  11.364 -0.1699  0.3218  0.2963
10316TIP3    H152363   0.274   0.404  11.275  3.4792 -3.2545  2.0086
10316TIP3    H252364   0.175   0.393  11.389 -0.1782 -0.2856 -0.7267
10317TIP3   OH252365   2.529   4.356  13.426  0.7240 -0.0125 -0.0035
10317TIP3    H152366   2.536   4.275  13.375  1.3306  1.2577 -2.0169
10317TIP3    H252367   2.566   4.424  13.368 -0.5669  1.8396  1.2893
10318TIP3   OH252368   1.762   2.030   3.169 -0.3140 -0.3398  0.4302
10318TIP3    H152369   1.708   2.015   3.248 -2.4597  1.9095 -0.5372
10318TIP3    H252370   1.716   1.982   3.100  0.0363 -0.0567  0.0035
10319TIP3   OH252371   0.604   4.762   5.218  0.0130  0.0606  0.7415
10319TIP3    H152372   0.518   4.729   5.192 -0.2871  1.4450 -0.0686
10319TIP3    H252373   0.619   4.723   5.304 -0.1047 -2.5704 -0.3706
10320TIP3   OH252374   5.151   2.181  14.285 -0.4094  0.2540 -0.3035
10320TIP3    H152375   5.058   2.205  14.285 -0.5142 -0.1574 -0.4481
10320TIP3    H252376   5.162   2.128  14.206 -0.3960 -1.0521  0.5602
10321TIP3   OH252377   2.683   0.419  12.746  0.0142 -0.7610  0.1194
10321TIP3    H152378   2.658   0.476  12.818  0.5946 -1.5074  0.9202
10321TIP3    H252379   2.779   0.420  12.746  0.0116 -0.2169 -1.0817
10322TIP3   OH252380   6.008   0.014   6.130  0.1963 -0.1791 -0.5041
10322TIP3    H152381   5.929  -0.040   6.130 -0.5339  0.8188 -2.8612
10322TIP3    H252382   6.012   0.051   6.219 -1.2915 -1.2221  0.0185
10323TIP3   OH252383   5.945   5.234   2.690 -0.2674  0.4038  0.2544
10323TIP3    H152384   5.888   5.231   2.613 -1.7587  1.1833  1.3230
10323TIP3    H252385   5.996   5.315   2.678 -0.6066  0.6071  0.1706
10324TIP3   OH252386   1.168   0.766   0.320  0.3738 -0.0476  0.6810
10324TIP3    H152387   1.086   0.746   0.275 -0.6848  1.6987  1.7764
10324TIP3    H252388   1.235   0.758   0.252 -0.9835  0.8966 -0.8032
10325TIP3   OH252389   5.593   6.483   4.557  0.4319  0.1440 -0.1103
10325TIP3    H152390   5.550   6.567   4.539  0.8057  0.3060 -0.2581
10325TIP3    H252391   5.605   6.483   4.652 -2.8735 -1.3587  0.3747
10326TIP3   OH252392   5.916   0.202  16.104  0.0831  0.3408 -0.5268
10326TIP3    H152393   5.914   0.128  16.043 -0.7804  0.6790 -0.9246
10326TIP3    H252394   5.866   0.173  16.180 -1.0825  0.8390 -1.0848
10327TIP3   OH252395   1.332   2.120  11.810 -0.2212  0.0545 -0.0289
10327TIP3    H152396   1.332   2.047  11.748 -1.3355  1.0272 -1.1809
10327TIP3    H252397   1.377   2.190  11.764 -0.0501  0.4296  0.7007
10328TIP3   OH252398   1.513   5.705  15.948  0.3557  0.4999 -0.2321
10328TIP3    H152399   1.453   5.657  16.005  1.6661  0.0231  0.7844
10328TIP3    H252400   1.461   5.728  15.871 -0.9870 -0.3173  0.4207
10329TIP3   OH252401   5.411   6.052   0.205 -0.0599  0.0716  0.0870
10329TIP3    H152402   5.398   6.000   0.126 -0.9519  0.8878 -0.3060
10329TIP3    H252403   5.497   6.023   0.238  0.8437  0.5336 -1.7877
10330TIP3   OH252404   4.221   1.787  14.603 -0.7454 -0.0633 -0.4809
10330TIP3    H152405   4.145   1.798  14.545  0.9960  1.7795 -2.5135
10330TIP3    H252406   4.296   1.787  14.544  1.1246  2.1232  1.8036
10331TIP3   OH252407   0.384   0.429  15.844 -0.0478  0.2726 -0.0151
10331TIP3    H152408   0.420   0.514  15.869 -2.8204  1.3173  0.5403
10331TIP3    H252409   0.295   0.448  15.816 -0.4025 -2.3498 -0.7621
10332TIP3   OH252410   0.909   1.654  16.328 -0.2736  0.2804  0.0939
10332TIP3    H152411   0.871   1.593  16.391 -0.9990  0.0779 -0.5262
10332TIP3    H252412   1.003   1.648  16.341 -0.2840 -1.6783 -0.6076
10333TIP3   OH252413   1.062   1.499   5.832  0.0475  0.7513 -0.1452
10333TIP3    H152414   1.069   1.553   5.753 -1.4950 -1.2161 -1.6876
10333TIP3    H252415   0.976   1.457   5.825  0.5888 -0.7634  1.7305
10334TIP3   OH252416   5.824   1.032   3.360  0.1334  0.1592  0.0674
10334TIP3    H152417   5.793   0.977   3.288  0.3918 -1.0719  0.8696
10334TIP3    H252418   5.752   1.032   3.423  0.9277 -1.0102  1.0067
10335TIP3   OH252419   2.158   6.619  16.762  0.6403  0.2322  0.3638
10335TIP3    H152420   2.245   6.615  16.801  1.4341 -0.0077 -1.3559
10335TIP3    H252421   2.121   6.532  16.774  0.9858  0.0863  0.3621
10336TIP3   OH252422   2.502   1.011   3.442 -0.1138 -0.0020 -0.0626
10336TIP3    H152423   2.501   1.090   3.497 -0.9194 -0.2564  0.2867
10336TIP3    H252424   2.537   0.943   3.499 -1.8383 -0.4852  0.4475
10337TIP3   OH252425   1.147   0.416   5.579  0.2462 -0.2260 -0.0097
10337TIP3    H152426   1.087   0.490   5.588 -0.2892 -0.7590  0.9327
10337TIP3    H252427   1.175   0.397   5.669  0.9565 -0.6960 -0.3268
10338TIP3   OH252428   1.212   3.948  10.853  0.2002  0.0106 -0.5408
10338TIP3    H152429   1.280   3.990  10.905  0.0534 -0.8836  0.3812
10338TIP3    H252430   1.259   3.896  10.787  0.3975 -0.0044 -0.3872
10339TIP3   OH252431   0.553   6.638   3.516 -0.5862  0.5758 -0.6783
10339TIP3    H152432   0.570   6.551   3.553  0.4746 -0.1088 -2.6965
10339TIP3    H252433   0.458   6.644   3.511 -0.6586 -0.5687 -0.7618
10340TIP3   OH252434   5.199   4.047  11.876  0.5802 -0.2647 -0.2800
10340TIP3    H152435   5.289   4.079  11.866  0.7086 -0.0361  1.4075
10340TIP3    H252436   5.187   3.984  11.805  2.1523 -0.4619 -0.3776
10341TIP3   OH252437   0.303   2.587   1.139 -0.0211 -0.0377 -0.7674
10341TIP3    H152438   0.381   2.554   1.094 -0.7406 -0.9407 -1.3620
10341TIP3    H252439   0.338   2.632   1.216  1.1091 -0.1644 -1.1951
10342TIP3   OH252440   2.489   6.018  13.376  0.2657 -0.7993  0.1373
10342TIP3    H152441   2.447   5.983  13.454  1.5088 -1.6566  0.4327
10342TIP3    H252442   2.467   5.956  13.306  0.0973 -0.6348  0.0413
10343TIP3   OH252443   1.311   1.066   4.763 -0.0262  0.4985  0.4908
10343TIP3    H152444   1.311   1.098   4.673  0.9687  4.2770  1.7620
10343TIP3    H252445   1.219   1.047   4.782 -0.4518  1.2406 -0.7981
10344TIP3   OH252446   4.554   6.264  10.786  0.6884 -0.3445  0.2513
10344TIP3    H152447   4.584   6.222  10.705  0.3743 -1.5492  0.7471
10344TIP3    H252448   4.622   6.328  10.806  0.9159 -0.2393 -0.8043
10345TIP3   OH252449   3.457   4.794  16.934 -0.4132 -0.1458  0.1674
10345TIP3    H152450   3.524   4.725  16.933  0.3743  0.6126  0.4705
10345TIP3    H252451   3.494   4.864  16.881  0.9673  2.0656  3.8443
10346TIP3   OH252452   5.416   6.604  15.872 -0.4718 -0.3470  0.6276
10346TIP3    H152453   5.500   6.636  15.839 -0.8710  1.9536  1.7640
10346TIP3    H252454   5.364   6.589  15.793 -0.0168  1.1299  0.0312
10347TIP3   OH252455   1.981   3.510  15.714 -0.0956 -0.2727 -0.2048
10347TIP3    H152456   1.973   3.443  15.646  0.0786 -1.4802  0.9436
10347TIP3    H252457   2.055   3.564  15.686 -0.1115 -0.6784 -1.0379
10348TIP3   OH252458   5.206   3.444  13.832 -0.4129  0.7601 -0.2033
10348TIP3    H152459   5.240   3.495  13.906  0.1844  1.7641 -1.1603
10348TIP3    H252460   5.111   3.451  13.840 -0.3898 -0.4574  1.3812
10349TIP3   OH252461   4.092   1.396  14.885 -0.0569 -0.3492 -0.9213
10349TIP3    H152462   4.106   1.491  14.890  1.5729 -0.6539  1.9539
10349TIP3    H252463   4.006   1.383  14.926  0.7588 -0.2869  0.8604
10350TIP3   OH252464   3.939   4.824   2.195  0.2476 -0.1934  0.3489
10350TIP3    H152465   4.007   4.891   2.201 -0.0387  0.0431  1.0102
10350TIP3    H252466   3.895   4.840   2.112  0.8236 -0.1792  0.0448
10351TIP3   OH252467   3.203   1.234  16.594  0.3412  0.1493 -0.3946
10351TIP3    H152468   3.268   1.183  16.545 -1.0714 -0.4163 -1.7142
10351TIP3    H252469   3.122   1.185  16.584 -0.2937  0.8500  1.2520
10352TIP3   OH252470   1.217   1.740  14.531 -0.2256  0.1826  0.8878
10352TIP3    H152471   1.218   1.766  14.623 -0.2385  0.5755  0.7759
10352TIP3    H252472   1.304   1.703  14.515  0.6839  2.5259  0.3586
10353TIP3   OH252473   3.668   5.674   0.514 -0.6066 -0.2323 -0.0484
10353TIP3    H152474   3.737   5.648   0.575 -2.0468  2.0200  2.7060
10353TIP3    H252475   3.708   5.741   0.459  0.1041 -0.7508 -0.1681
10354TIP3   OH252476   6.144   6.454   4.377  0.1081 -0.0597 -0.0256
10354TIP3    H152477   6.178   6.473   4.290  0.7122 -0.6602  0.0728
10354TIP3    H252478   6.170   6.363   4.394 -0.8124 -0.2477  0.3975
10355TIP3   OH252479   5.570   4.159  12.539  0.0554  0.2647  0.8023
10355TIP3    H152480   5.664   4.174  12.530  0.1583 -0.5208  0.4852
10355TIP3    H252481   5.531   4.203  12.464  0.2671 -0.2676  0.3767
10356TIP3   OH252482   5.609   4.268   6.005 -0.3567 -0.1631 -0.4786
10356TIP3    H152483   5.684   4.228   6.049 -0.1551  0.0460 -0.6304
10356TIP3    H252484   5.568   4.196   5.957 -1.2744 -0.6517  0.9950
10357TIP3   OH252485   3.433   5.485  13.577  0.0307  0.2958  0.2456
10357TIP3    H152486   3.343   5.476  13.548  0.4887  1.9047 -1.8291
10357TIP3    H252487   3.485   5.455  13.503  1.2017  0.9341  0.7882
10358TIP3   OH252488   0.435   0.586  11.831  0.3211  0.2888 -0.1799
10358TIP3    H152489   0.372   0.523  11.796  1.4418 -0.0717 -1.5269
10358TIP3    H252490   0.475   0.541  11.906  0.4104 -0.2244 -0.5366
10359TIP3   OH252491   0.073   3.210   0.958  0.3428 -0.3414 -0.3515
10359TIP3    H152492   0.168   3.212   0.947  0.5987 -1.3575  1.5284
10359TIP3    H252493   0.051   3.117   0.967 -0.9303 -0.1747 -1.5469
10360TIP3   OH252494   5.770   3.410  16.006  0.3760  0.6795  0.1933
10360TIP3    H152495   5.825   3.419  16.083 -2.0009  3.0670  1.6953
10360TIP3    H252496   5.819   3.351  15.948  2.8247 -0.0720  2.9167
10361TIP3   OH252497   3.518   1.947  15.827 -0.1565  0.4022 -0.1046
10361TIP3    H152498   3.600   1.932  15.874  0.1971  0.1845 -0.7848
10361TIP3    H252499   3.503   1.865  15.780  1.4006  1.8385 -3.2683
10362TIP3   OH252500   4.415   4.895  16.296 -0.1837  0.1081 -0.0425
10362TIP3    H152501   4.481   4.830  16.321 -0.6698 -0.6830 -0.7960
10362TIP3    H252502   4.427   4.966  16.358  2.4326  0.6647 -1.1470
10363TIP3   OH252503   0.319   3.103   0.981  0.4147  0.0551  0.4617
10363TIP3    H152504   0.316   3.066   1.069 -1.2169  3.1945  1.8228
10363TIP3    H252505   0.409   3.090   0.953  0.9860 -0.9524  2.6285
10364TIP3   OH252506   1.345   2.048  13.299  0.1636 -0.0710 -0.4032
10364TIP3    H152507   1.408   2.080  13.236 -0.4459  1.1205 -0.4286
10364TIP3    H252508   1.390   2.054  13.384 -0.5046  2.5614 -0.1714
10365TIP3   OH252509   1.640   6.680  17.072 -0.0961 -0.3990 -0.1647
10365TIP3    H152510   1.720   6.698  17.122 -0.6846 -1.3079  1.1535
10365TIP3    H252511   1.609   6.596  17.107 -0.6938 -0.9212 -1.8825
10366TIP3   OH252512   2.426   5.929  12.905  0.4355  0.1421  0.0157
10366TIP3    H152513   2.362   5.983  12.860  0.9123  0.4890 -0.2478
10366TIP3    H252514   2.482   5.991  12.952  1.7190 -0.0388 -1.2393
10367TIP3   OH252515   2.488   4.546  11.077 -0.3831 -0.4288 -0.6202
10367TIP3    H152516   2.417   4.508  11.025 -0.9029  0.4407 -0.5660
10367TIP3    H252517   2.505   4.630  11.035  0.5611 -0.5994 -0.5778
10368TIP3   OH252518   6.614   4.297   4.677 -0.1616  0.5608 -0.9691
10368TIP3    H152519   6.649   4.211   4.653  1.5796  1.0250 -0.1541
10368TIP3    H252520   6.643   4.311   4.767  0.1797  2.2996 -1.3165
10369TIP3   OH252521   1.403   3.958   1.486  0.3154 -0.0619 -0.4373
10369TIP3    H152522   1.367   3.883   1.438 -3.7669  0.4561  1.5676
10369TIP3    H252523   1.347   4.031   1.460  2.0801  1.5755  0.2656
10370TIP3   OH252524   6.393   2.250   0.824 -0.3095 -0.2111 -0.0992
10370TIP3    H152525   6.429   2.216   0.906 -0.8136  1.4699  0.8485
10370TIP3    H252526   6.302   2.271   0.844 -0.7256 -0.7229 -1.3780
10371TIP3   OH252527   6.546   3.990  12.762 -0.4855  0.6081  0.2806
10371TIP3    H152528   6.528   3.905  12.722 -2.1305  0.6780  0.8393
10371TIP3    H252529   6.579   4.044  12.690 -1.3935  0.0914 -0.5383
10372TIP3   OH252530   4.326   2.878  15.255  0.0468  0.4676  0.0100
10372TIP3    H152531   4.236   2.890  15.224  0.1556  0.3708 -0.3508
10372TIP3    H252532   4.351   2.964  15.290 -0.5562  0.2008  1.1029
10373TIP3   OH252533   4.478   6.624  11.593  0.5252 -0.4116 -0.1241
10373TIP3    H152534   4.487   6.529  11.599  2.8396 -0.3048 -1.4852
10373TIP3    H252535   4.391   6.638  11.557 -0.7099 -1.9270  2.1595
10374TIP3   OH252536   1.237   2.163  10.736  0.1441 -0.1998  0.5578
10374TIP3    H152537   1.215   2.069  10.734 -0.0561 -0.1819  1.8542
10374TIP3    H252538   1.332   2.165  10.729  0.1665 -0.5084  0.7392
10375TIP3   OH252539   5.246   5.540  12.576  0.0477 -0.4080 -0.2983
10375TIP3    H152540   5.324   5.522  12.629  0.7010  1.6402 -0.5298
10375TIP3    H252541   5.259   5.628  12.543 -2.3642 -0.0435 -0.3787
10376TIP3   OH252542   0.913   0.097  17.103  0.5411 -0.3016  0.7186
10376TIP3    H152543   1.006   0.078  17.119  0.4515 -1.9838 -0.6853
10376TIP3    H252544   0.868   0.014  17.119 -0.6877  0.4032  1.0071
10377TIP3   OH252545   5.669   1.505  12.680  0.1206  0.2333 -0.1856
10377TIP3    H152546   5.579   1.481  12.658  0.1838 -0.0970 -0.0783
10377TIP3    H252547   5.665   1.599  12.698  0.0141  0.4634 -1.3614
10378TIP3   OH252548   5.077   6.714   4.295  0.1556 -0.9207 -0.5581
10378TIP3    H152549   5.123   6.650   4.349  1.5994  0.4025 -0.1893
10378TIP3    H252550   4.985   6.700   4.314  0.6765  0.0804  2.8963
10379TIP3   OH252551   3.884   3.019  14.846 -0.4118 -0.4325 -0.1220
10379TIP3    H152552   3.838   3.035  14.763 -1.5619 -1.3530  0.3122
10379TIP3    H252553   3.878   3.101  14.893 -2.8990 -0.9303  0.5103
10380TIP3   OH252554   3.014   1.921  16.467 -0.8282  0.6120  0.1714
10380TIP3    H152555   2.981   2.004  16.501  3.6497  1.3871  3.0764
10380TIP3    H252556   2.986   1.856  16.532 -1.9889  0.2015 -0.7044
10381TIP3   OH252557   1.421   3.570   3.052  0.4514 -0.0402 -0.0577
10381TIP3    H152558   1.349   3.533   3.000  0.0108  0.2886  0.3278
10381TIP3    H252559   1.459   3.637   2.995 -1.6039  2.0763  0.9879
10382TIP3   OH252560   5.481   0.264  10.779  0.3790 -0.1808  0.1478
10382TIP3    H152561   5.496   0.231  10.690  0.1144 -0.2921  0.1438
10382TIP3    H252562   5.421   0.200  10.818 -0.0412  0.2301  0.1792
10383TIP3   OH252563   6.491   2.635  16.775  0.1852 -0.4870 -0.6115
10383TIP3    H152564   6.438   2.714  16.768  0.2632 -0.3666  0.2311
10383TIP3    H252565   6.567   2.660  16.827  0.2812 -1.0781 -0.4581
10384TIP3   OH252566   6.067   3.677   1.326  0.0343 -0.0354  0.0808
10384TIP3    H152567   6.108   3.648   1.408  0.2245  0.3763  0.1299
10384TIP3    H252568   6.130   3.652   1.258 -0.2013 -0.5326  0.0435
10385TIP3   OH252569   4.537   6.009   2.793  0.1616 -0.0885  0.2810
10385TIP3    H152570   4.616   5.975   2.751 -0.4656 -0.5554 -0.5204
10385TIP3    H252571   4.479   6.033   2.721 -0.3916  0.3643  0.8636
10386TIP3   OH252572   1.985   2.439  11.582  0.2943 -0.0799 -0.2136
10386TIP3    H152573   1.981   2.436  11.486 -0.1912 -0.0051 -0.1968
10386TIP3    H252574   2.067   2.395  11.604 -0.3626 -1.5214 -0.5841
10387TIP3   OH252575   3.680   0.218  15.585  0.5554 -0.0488 -1.0644
10387TIP3    H152576   3.693   0.134  15.541  0.1830  0.0130 -1.2924
10387TIP3    H252577   3.608   0.259  15.537  0.6821  0.3629 -0.8992
10388TIP3   OH252578   1.970   6.258  12.193  0.3127  0.2077 -0.1378
10388TIP3    H152579   1.984   6.164  12.208  2.9247  0.2472 -1.9969
10388TIP3    H252580   2.045   6.300  12.235 -0.0760  1.3442 -0.5722
10389TIP3   OH252581   0.857   5.041  11.972 -0.3089  0.4937 -0.6033
10389TIP3    H152582   0.855   5.032  12.067 -1.6947 -0.1147 -0.6773
10389TIP3    H252583   0.781   5.096  11.952  1.7293  3.2056 -1.1072
10390TIP3   OH252584   1.650   0.010   0.844 -0.1708 -0.3878 -0.3398
10390TIP3    H152585   1.743   0.011   0.866 -0.0178 -0.6312 -0.9657
10390TIP3    H252586   1.608   0.064   0.912  0.5963  0.8207 -0.8124
10391TIP3   OH252587   2.786   5.725   3.144  0.0679 -0.2604  0.1984
10391TIP3    H152588   2.812   5.657   3.206  0.4452 -0.6157 -0.3438
10391TIP3    H252589   2.692   5.710   3.129  0.6444 -2.1923 -1.7772
10392TIP3   OH252590   2.054   1.436  11.186 -0.1359  0.1188 -0.2136
10392TIP3    H152591   2.124   1.485  11.230  2.2959 -1.8628 -1.7806
10392TIP3    H252592   2.075   1.443  11.093 -2.4018 -0.0078 -0.7690
10393TIP3   OH252593   3.461   2.534  12.420 -0.2362  0.0844  0.1023
10393TIP3    H152594   3.393   2.598  12.400 -1.4167 -1.4657 -0.8946
10393TIP3    H252595   3.500   2.514  12.335  0.2971 -0.3378  0.4452
10394TIP3   OH252596   2.545   5.696   4.303 -0.2537 -0.0426  0.1060
10394TIP3    H152597   2.588   5.670   4.385  1.0407  0.5447 -0.3771
10394TIP3    H252598   2.613   5.739   4.252 -0.9870 -0.6075 -1.3960
10395TIP3   OH252599   2.617   6.595  12.710  0.1966 -0.1831 -0.1858
10395TIP3    H152600   2.604   6.509  12.750  1.0136  0.7710  2.1820
10395TIP3    H252601   2.540   6.646  12.736  0.8781  0.5371  0.4502
10396TIP3   OH252602   1.134   2.378  17.149 -0.2369  0.2037 -0.1366
10396TIP3    H152603   1.139   2.463  17.106  0.0120  0.3691  0.2144
10396TIP3    H252604   1.065   2.389  17.215  2.2372  1.2559  2.3605
10397TIP3   OH252605   3.632   3.939   4.858 -0.2647 -0.5107  0.3865
10397TIP3    H152606   3.661   4.024   4.825  0.3146 -0.3623  1.2448
10397TIP3    H252607   3.536   3.943   4.852 -0.1689 -0.5944 -1.4757
10398TIP3   OH252608   0.101   5.285  13.311  0.3583  0.2260 -0.2299
10398TIP3    H152609   0.068   5.344  13.379  1.1413  0.0315  0.3150
10398TIP3    H252610   0.033   5.288  13.243  0.4733  1.9197 -0.3101
10399TIP3   OH252611   4.632   2.862   4.228 -0.1444  0.3953  0.0129
10399TIP3    H152612   4.583   2.937   4.264 -1.1440  0.6961 -1.8924
10399TIP3    H252613   4.571   2.789   4.235  0.5784 -0.1062  1.2193
10400TIP3   OH252614   4.099   1.499  13.514  0.2332 -0.2469  0.1296
10400TIP3    H152615   4.083   1.550  13.593  1.8749  0.9533 -0.2894
10400TIP3    H252616   4.150   1.424  13.544 -1.3683 -1.1914  0.5898
10401TIP3   OH252617   1.013   3.170   5.455  0.6264 -0.0243  0.6570
10401TIP3    H152618   1.017   3.162   5.550 -0.4596  0.6490  0.7736
10401TIP3    H252619   0.976   3.257   5.440  2.9059  0.8090 -0.4125
10402TIP3   OH252620   5.341   0.942  15.602 -0.0177  0.1381  0.6555
10402TIP3    H152621   5.330   0.963  15.695  0.8715  1.5577  0.4622
10402TIP3    H252622   5.261   0.894  15.579 -0.5188  0.2897  2.0106
10403TIP3   OH252623   6.699   0.191  14.624  0.6850  0.1382  0.6013
10403TIP3    H152624   6.630   0.253  14.600  1.2382  0.7162  0.4540
10403TIP3    H252625   6.698   0.189  14.720 -0.3654 -0.8240  0.5729
10404TIP3   OH252626   5.710   1.978  14.442 -0.5829 -0.1314  0.0435
10404TIP3    H152627   5.660   1.898  14.427 -0.9025  0.1613 -0.4534
10404TIP3    H252628   5.674   2.041  14.380  2.3378 -0.7732 -2.4831
10405TIP3   OH252629   4.950   6.386  15.148 -0.2986 -0.2547  0.2948
10405TIP3    H152630   4.960   6.465  15.096 -1.1242  0.2179  0.8316
10405TIP3    H252631   4.880   6.337  15.105  0.1765 -0.6761 -0.0071
10406TIP3   OH252632   2.836   4.033   2.661 -0.1981 -0.2996 -0.0465
10406TIP3    H152633   2.740   4.034   2.669 -0.1247 -0.7417  0.9399
10406TIP3    H252634   2.867   4.008   2.748  0.7886 -0.9833 -0.5867
10407TIP3   OH252635   6.352   3.344  16.731  0.0333 -1.0031  0.3054
10407TIP3    H152636   6.271   3.394  16.724  0.5162 -0.1684  0.6717
10407TIP3    H252637   6.353   3.290  16.652 -0.3840 -0.2775 -0.2093
10408TIP3   OH252638   6.009   4.138  11.876 -0.2952  0.1523  0.3999
10408TIP3    H152639   6.061   4.102  11.947 -0.3772  0.7379  0.7547
10408TIP3    H252640   6.072   4.182  11.819 -0.2874  0.0689  0.3433
10409TIP3   OH252641   0.219   6.776   0.913  0.0847  0.3014 -0.6470
10409TIP3    H152642   0.287   6.729   0.865 -0.4416 -0.9645 -0.1746
10409TIP3    H252643   0.138   6.730   0.891 -0.1718 -0.2171  1.3719
10410TIP3   OH252644   3.828   6.679   1.562 -0.4369  0.3563  0.1151
10410TIP3    H152645   3.802   6.713   1.476  0.6909 -0.5989 -0.6168
10410TIP3    H252646   3.753   6.629   1.593 -0.5853  0.1117 -0.6408
10411TIP3   OH252647   2.459   0.113   3.105 -0.0249  0.4726 -0.2219
10411TIP3    H152648   2.415   0.076   3.181 -0.1992  3.6344  1.2755
10411TIP3    H252649   2.388   0.140   3.046  0.0919 -0.9385 -1.0354
10412TIP3   OH252650   3.634   0.074   3.458  0.5796 -0.1302  0.4049
10412TIP3    H152651   3.596   0.007   3.514  1.8223 -1.1110  0.1073
10412TIP3    H252652   3.682   0.025   3.391 -1.0880  1.0021 -1.6977
10413TIP3   OH252653   5.285   0.908   3.323 -0.5141 -0.0729  0.3055
10413TIP3    H152654   5.234   0.926   3.401 -0.9337 -0.8541  0.2139
10413TIP3    H252655   5.223   0.871   3.261  0.0459 -0.5325  0.0068
10414TIP3   OH252656   0.885   5.957  15.151 -0.3570 -0.4362 -0.0234
10414TIP3    H152657   0.863   6.039  15.195 -0.0662 -0.2499 -0.2214
10414TIP3    H252658   0.871   5.890  15.217  0.4029 -0.1261  0.4548
10415TIP3   OH252659   2.529   6.098  13.922 -0.1464  0.0730  0.0221
10415TIP3    H152660   2.514   6.068  13.832  0.9109  1.0873 -0.4958
10415TIP3    H252661   2.620   6.078  13.939 -0.3746 -0.2148  0.9183
10416TIP3   OH252662   4.055   0.682  12.891 -0.1025  0.3523 -0.5119
10416TIP3    H152663   3.974   0.634  12.876 -0.3849  0.9166 -0.8142
10416TIP3    H252664   4.073   0.672  12.984 -0.2291 -0.2233 -0.5471
10417TIP3   OH252665   6.342   1.598   5.229  0.1105  0.5109 -0.0685
10417TIP3    H152666   6.304   1.672   5.276  1.3550  1.3494 -0.3521
10417TIP3    H252667   6.412   1.637   5.177 -0.6551 -0.5319 -1.9286
10418TIP3   OH252668   0.673   3.081   3.514  0.0371  0.4094  0.7431
10418TIP3    H152669   0.710   3.120   3.435 -0.8991  1.9533  1.0348
10418TIP3    H252670   0.642   3.156   3.565 -1.0572 -0.6755  1.7083
10419TIP3   OH252671   1.775   2.065   1.374 -0.5204 -0.1660  0.2558
10419TIP3    H152672   1.756   1.985   1.423  0.1394 -1.5286 -1.6217
10419TIP3    H252673   1.789   2.034   1.284 -2.9726  2.3952 -1.0644
10420TIP3   OH252674   4.514   3.651   0.029 -0.3756 -0.1012 -1.0770
10420TIP3    H152675   4.493   3.608  -0.054 -1.9155 -0.0610 -0.7206
10420TIP3    H252676   4.458   3.608   0.093  0.8246 -0.1440 -0.0492
10421TIP3   OH252677   3.645   0.602  14.701 -0.1346 -0.0348 -0.0594
10421TIP3    H152678   3.702   0.539  14.746  0.0135  0.0452 -0.1336
10421TIP3    H252679   3.690   0.686  14.711  0.8256 -0.3039 -1.9000
10422TIP3   OH252680   6.135   5.376  11.661  0.5350 -0.0290 -0.1770
10422TIP3    H152681   6.079   5.328  11.600  0.1134 -2.8709  2.3168
10422TIP3    H252682   6.075   5.439  11.702  0.5342  0.9832 -1.6666
10423TIP3   OH252683   1.008   0.855  14.920  0.3016 -0.4689 -0.0250
10423TIP3    H152684   0.925   0.902  14.914 -0.0542 -0.9850  0.7144
10423TIP3    H252685   0.995   0.793  14.992  1.1375 -0.9355 -0.2680
10424TIP3   OH252686   0.843   3.140   4.566  0.7752  0.3122 -0.0051
10424TIP3    H152687   0.809   3.182   4.487  2.4100  0.8762 -0.4286
10424TIP3    H252688   0.772   3.084   4.596  0.7550 -1.2984 -2.8867
10425TIP3   OH252689   3.576   5.119   5.794  0.2656 -0.0580 -0.2663
10425TIP3    H152690   3.595   5.203   5.836 -1.2558  0.9031 -1.4258
10425TIP3    H252691   3.498   5.087   5.840 -0.4534  0.2366 -1.2508
10426TIP3   OH252692   1.237   2.264  14.408 -0.1814 -0.4715 -0.3393
10426TIP3    H152693   1.172   2.331  14.431  2.6381  2.0227  0.7891
10426TIP3    H252694   1.251   2.215  14.489  0.4955  0.0390 -0.1450
10427TIP3   OH252695   2.116   4.646   6.186  0.4186  0.0912  0.5073
10427TIP3    H152696   2.115   4.628   6.092 -0.4565  0.0704  0.5128
10427TIP3    H252697   2.032   4.613   6.217 -0.1210  1.8100  0.9610
10428TIP3   OH252698   3.594   1.822  15.170 -0.0241  0.2634 -0.2835
10428TIP3    H152699   3.518   1.765  15.176  1.0188 -1.0292  0.6590
10428TIP3    H252700   3.561   1.909  15.195 -1.5162  0.0331 -1.3652
10429TIP3   OH252701   1.963   3.749  16.422 -0.3943 -1.0560  0.0947
10429TIP3    H152702   1.889   3.695  16.395  0.1895 -1.5857 -0.4766
10429TIP3    H252703   1.978   3.726  16.514 -1.4085 -0.3922  0.4314
10430TIP3   OH252704   2.864   3.759  15.410  0.7997  0.1513  0.2617
10430TIP3    H152705   2.877   3.679  15.461  0.8985 -1.3663 -2.1029
10430TIP3    H252706   2.786   3.741  15.357  0.9540  1.5374 -0.4629
10431TIP3   OH252707   1.885   6.728   1.783  0.0760  0.5876  0.8021
10431TIP3    H152708   1.936   6.785   1.727 -1.0275  0.8598  0.0680
10431TIP3    H252709   1.882   6.773   1.868  0.7354  0.7425  0.7393
10432TIP3   OH252710   0.184   4.865  16.480 -0.4531 -0.0884  0.0439
10432TIP3    H152711   0.216   4.806  16.548  0.2252 -1.1606 -1.1911
10432TIP3    H252712   0.230   4.948  16.497  0.2195 -0.5469  0.4868
10433TIP3   OH252713   5.462   4.272  14.975  0.8685  0.7921 -0.5863
10433TIP3    H152714   5.414   4.317  15.044  0.2929  0.6242 -0.8741
10433TIP3    H252715   5.394   4.242  14.914  1.3491  0.6979 -1.0783
10434TIP3   OH252716   2.323   6.516  12.527  0.2112  0.1610 -0.2509
10434TIP3    H152717   2.306   6.609  12.516  1.1652  0.3473 -0.1853
10434TIP3    H252718   2.289   6.476  12.447  0.8175  0.6998 -0.7848
10435TIP3   OH252719   5.206   5.981  11.524 -0.0691 -0.3141  0.3227
10435TIP3    H152720   5.162   6.054  11.566  0.5719  0.1211  0.2346
10435TIP3    H252721   5.266   5.947  11.590 -0.7346 -1.0962  0.5426
10436TIP3   OH252722   2.949   2.980  14.212  0.3587  0.4155  0.0183
10436TIP3    H152723   3.035   3.013  14.187  0.4274  0.8016  0.7601
10436TIP3    H252724   2.911   2.949  14.130  1.9588 -1.4955 -0.0602
10437TIP3   OH252725   0.239   2.132   3.568  0.9294  0.0228  0.1462
10437TIP3    H152726   0.243   2.222   3.601  0.3938  0.2314 -0.3425
10437TIP3    H252727   0.165   2.093   3.614 -0.9201  0.8451 -2.0626
10438TIP3   OH252728   5.104   1.453   0.675  1.1029 -0.0710  0.6580
10438TIP3    H152729   5.073   1.529   0.725  1.3722  0.7254 -0.3773
10438TIP3    H252730   5.044   1.382   0.700 -0.9640  1.1980 -0.5654
10439TIP3   OH252731   0.533   3.321   4.495  0.3387 -0.8797  0.2059
10439TIP3    H152732   0.538   3.337   4.589  0.9494  0.7221 -0.0822
10439TIP3    H252733   0.483   3.395   4.461  0.5580 -1.1890 -0.8014
10440TIP3   OH252734   5.882   6.053   5.079 -0.2091 -0.4608 -0.0030
10440TIP3    H152735   5.919   6.129   5.033 -0.9506 -0.1465 -0.0872
10440TIP3    H252736   5.800   6.085   5.116 -0.4055 -1.1587  0.1762
10441TIP3   OH252737   2.965   0.629   1.467  0.5509  0.1858  0.0546
10441TIP3    H152738   3.037   0.681   1.502  1.7997 -2.2870  1.2762
10441TIP3    H252739   2.893   0.645   1.527  0.1198  2.4583 -1.0190
10442TIP3   OH252740   5.826   5.379  16.182  0.0964 -0.2319  0.2518
10442TIP3    H152741   5.803   5.399  16.272 -0.3729 -1.6372  0.4657
10442TIP3    H252742   5.922   5.371  16.183  0.2039  1.0437  0.3421
10443TIP3   OH252743   0.967   5.311  13.730 -0.5218  0.2777 -0.0994
10443TIP3    H152744   0.922   5.386  13.690 -1.3934 -1.2475 -2.0716
10443TIP3    H252745   0.940   5.236  13.677  1.5559 -1.2118  0.8891
10444TIP3   OH252746   3.355   1.767   2.758 -0.3641  0.3379  0.2438
10444TIP3    H152747   3.412   1.690   2.750 -0.1101  0.6975 -1.6663
10444TIP3    H252748   3.315   1.758   2.844  1.5943 -0.5986  1.0943
10445TIP3   OH252749   3.207   6.309   4.256  0.4149  0.5065 -0.7719
10445TIP3    H152750   3.283   6.365   4.240  0.5489  0.2864 -0.9027
10445TIP3    H252751   3.190   6.317   4.350  0.2869  0.9561 -0.8324
10446TIP3   OH252752   3.861   4.937   0.974  0.6983 -0.2029 -0.2985
10446TIP3    H152753   3.893   5.026   0.981  1.8514 -0.4099 -2.5318
10446TIP3    H252754   3.767   4.943   0.995  0.9567  1.3390  0.4903
10447TIP3   OH252755   3.381   0.570   6.241 -0.2475 -0.3117  0.7796
10447TIP3    H152756   3.396   0.614   6.325  1.3284  1.8569 -0.5699
10447TIP3    H252757   3.430   0.488   6.248  1.1163  0.5349  1.4702
10448TIP3   OH252758   1.333   4.436   1.742  0.6568 -0.1348 -0.6514
10448TIP3    H152759   1.292   4.351   1.728 -1.9161  1.0356 -0.3680
10448TIP3    H252760   1.321   4.453   1.835  2.5162 -0.0995 -0.3843
10449TIP3   OH252761   3.733   2.290  14.184 -0.4309 -0.2018  0.0119
10449TIP3    H152762   3.676   2.226  14.141 -1.6797 -0.1693  1.5668
10449TIP3    H252763   3.687   2.373  14.174  0.5977  0.2648 -0.9410
10450TIP3   OH252764   5.790   5.707  13.862  0.5088 -0.7129  0.6005
10450TIP3    H152765   5.762   5.798  13.875  1.4851 -0.2205 -0.6479
10450TIP3    H252766   5.861   5.695  13.925  1.7135  0.0216 -0.6005
10451TIP3   OH252767   2.629   1.829   0.806  0.1593 -0.5126 -0.1887
10451TIP3    H152768   2.543   1.788   0.804  0.8152 -1.9887  0.8995
10451TIP3    H252769   2.676   1.783   0.875  1.3077  1.3408  0.2850
10452TIP3   OH252770   3.840   2.258  12.375  1.0603  0.3946  0.3767
10452TIP3    H152771   3.906   2.292  12.436  0.3333  1.1657  0.7399
10452TIP3    H252772   3.827   2.327  12.311 -0.8416  1.0855  1.4457
10453TIP3   OH252773   6.645   5.086   5.811  0.3247  0.3566  0.2209
10453TIP3    H152774   6.607   5.164   5.851  2.0974  2.2524 -1.6664
10453TIP3    H252775   6.735   5.083   5.845  0.5107 -0.4080 -0.3203
10454TIP3   OH252776   1.568   0.119  12.765 -0.3656 -0.2215  0.0409
10454TIP3    H152777   1.562   0.100  12.672 -0.3363  1.8725 -0.4186
10454TIP3    H252778   1.479   0.108  12.798 -0.1520 -2.1109  0.0093
10455TIP3   OH252779   4.353   3.615  14.545  0.4415 -0.1877  0.6905
10455TIP3    H152780   4.379   3.682  14.609 -1.2217 -0.1312  1.3267
10455TIP3    H252781   4.272   3.578  14.580 -0.1930 -0.5606 -1.0924
10456TIP3   OH252782   6.138   4.821   3.230  0.0434 -0.3502 -0.0737
10456TIP3    H152783   6.176   4.889   3.286 -1.6117 -0.5062  1.2928
10456TIP3    H252784   6.156   4.739   3.277  1.5710 -0.8287 -1.4548
10457TIP3   OH252785   2.951   1.823  11.965 -0.2938  0.3594 -0.1709
10457TIP3    H152786   2.930   1.898  11.909  3.1061  1.2935 -0.2933
10457TIP3    H252787   2.920   1.849  12.052  0.8784  1.9936 -0.1989
10458TIP3   OH252788   6.419   3.718   2.239  0.3707 -0.3342  0.1272
10458TIP3    H152789   6.419   3.706   2.334 -0.0192  1.9203  0.4368
10458TIP3    H252790   6.446   3.809   2.227 -3.1415  0.5352 -1.7285
10459TIP3   OH252791   5.264   4.545   4.182  0.2279 -0.3245 -0.1248
10459TIP3    H152792   5.185   4.507   4.221  0.6572  0.1830  1.2776
10459TIP3    H252793   5.259   4.638   4.205  1.7039 -0.4543  0.8172
10460TIP3   OH252794   2.941   4.628   3.653 -0.1831 -0.3144  0.7286
10460TIP3    H152795   2.853   4.609   3.622 -0.5165  1.3366  0.6394
10460TIP3    H252796   2.944   4.591   3.742  0.1301 -3.2708 -0.4349
10461TIP3   OH252797   1.903   5.549  16.992 -0.4831 -0.2924  0.2965
10461TIP3    H152798   1.991   5.559  17.029 -0.8879  1.8109  0.7660
10461TIP3    H252799   1.870   5.639  16.986 -2.9810 -1.1358  1.0663
10462TIP3   OH252800   3.974   5.745   1.578  0.3946  0.3937 -0.0366
10462TIP3    H152801   4.055   5.711   1.541  2.0034  1.9615  1.9183
10462TIP3    H252802   3.990   5.748   1.672 -1.0314  2.9745  0.1675
10463TIP3   OH252803   5.114   4.568   3.404 -0.2161 -0.0324  0.1616
10463TIP3    H152804   5.091   4.595   3.493  0.6125 -2.3937  1.1494
10463TIP3    H252805   5.194   4.516   3.416  2.3813  3.1332 -2.4696
10464TIP3   OH252806   4.742   2.022   3.295  0.0657 -0.0232  0.0821
10464TIP3    H152807   4.756   2.100   3.348 -0.1352  2.0253 -2.7647
10464TIP3    H252808   4.683   1.968   3.346  2.0538  0.5911  3.1425
10465TIP3   OH252809   5.285   4.959  11.031  0.0227 -0.2512  0.0505
10465TIP3    H152810   5.190   4.974  11.029  0.3552  1.8019 -1.0070
10465TIP3    H252811   5.294   4.873  11.073 -2.2638 -0.1876  0.7504
10466TIP3   OH252812   6.119   4.550  15.055  0.2934 -0.0502 -0.3579
10466TIP3    H152813   6.129   4.543  15.150 -0.4105 -0.7678 -0.3278
10466TIP3    H252814   6.182   4.488  15.019 -0.4350 -0.8387 -0.3086
10467TIP3   OH252815   3.142   0.075   2.956 -0.0158 -0.3421  0.4588
10467TIP3    H152816   3.139   0.036   3.043 -0.8518 -0.5500  0.3420
10467TIP3    H252817   3.074   0.142   2.957  0.0994 -0.2146  0.0277
10468TIP3   OH252818   3.003   4.491  11.321 -0.0734 -0.0732  0.4554
10468TIP3    H152819   3.070   4.453  11.377  0.9016  0.0817 -0.6012
10468TIP3    H252820   2.940   4.529  11.383  1.7704  1.4807  1.4562
10469TIP3   OH252821   2.778   1.824   5.813  0.0156 -0.5078 -0.6513
10469TIP3    H152822   2.828   1.889   5.863 -0.3412 -0.0907 -0.8311
10469TIP3    H252823   2.718   1.786   5.877 -1.0296  0.6297 -0.9470
10470TIP3   OH252824   0.936   4.864   2.575  0.0534  0.5449  0.1106
10470TIP3    H152825   1.015   4.822   2.541 -0.8434 -1.3443  0.2794
10470TIP3    H252826   0.884   4.884   2.498 -0.4607 -0.6292  0.1373
10471TIP3   OH252827   6.048   3.583   5.833 -0.7121  0.4959 -0.9604
10471TIP3    H152828   6.079   3.531   5.907 -0.2852  1.0755 -0.7187
10471TIP3    H252829   5.973   3.536   5.799  0.4181 -0.9428 -1.5275
10472TIP3   OH252830   3.656   2.105  11.429  0.3129 -0.5606  0.4689
10472TIP3    H152831   3.572   2.123  11.471  0.2666 -0.6521  0.4150
10472TIP3    H252832   3.693   2.031  11.477  0.6487 -0.1220  0.8865
10473TIP3   OH252833   4.246   0.711  16.095  0.2251  0.1300  0.3701
10473TIP3    H152834   4.220   0.671  16.178 -1.4652  1.4209  0.5001
10473TIP3    H252835   4.295   0.789  16.121  1.6344 -0.6431  0.1210
10474TIP3   OH252836   3.276   0.602  17.060 -0.6534  0.3426  0.0788
10474TIP3    H152837   3.321   0.554  16.990  0.8512  0.8678  0.6782
10474TIP3    H252838   3.192   0.557  17.069 -0.2919 -0.5997 -1.1061
10475TIP3   OH252839   3.773   1.076   1.617  0.0776  0.9717  0.5028
10475TIP3    H152840   3.696   1.095   1.562 -0.7396  0.2010  1.3666
10475TIP3    H252841   3.736   1.039   1.697  1.3645  0.5547  0.9053
10476TIP3   OH252842   5.009   6.543  17.111  0.2791  0.2409 -0.3415
10476TIP3    H152843   5.101   6.561  17.097  0.0952  1.6099  0.1770
10476TIP3    H252844   4.987   6.590  17.191 -0.6796 -0.7047 -0.0387
10477TIP3   OH252845   4.822   0.248   2.282 -0.5572  0.0756  0.5582
10477TIP3    H152846   4.861   0.165   2.254  1.2518  1.4076 -0.9301
10477TIP3    H252847   4.829   0.306   2.206  0.4254  2.3673  2.3325
10478TIP3   OH252848   4.365   6.383  15.174 -0.0662  0.1906  0.4569
10478TIP3    H152849   4.314   6.340  15.243 -1.5698  1.2795  0.0315
10478TIP3    H252850   4.349   6.330  15.096 -2.3080  1.7188 -0.1820
10479TIP3   OH252851   3.137   0.001  13.082  0.1559 -0.0175  0.1326
10479TIP3    H152852   3.230  -0.013  13.095  0.0182 -0.7407  0.3765
10479TIP3    H252853   3.114  -0.055  13.007  0.1471  1.0605 -0.6847
10480TIP3   OH252854   4.576   0.884  14.894 -0.5099 -0.1796  0.2557
10480TIP3    H152855   4.525   0.805  14.914 -2.8803  1.5584  1.3261
10480TIP3    H252856   4.615   0.909  14.978  0.9053 -0.6302 -0.2479
10481TIP3   OH252857   0.275   6.121  14.531  0.4562 -0.2093 -0.1647
10481TIP3    H152858   0.206   6.111  14.465  0.9934 -0.6982 -0.6509
10481TIP3    H252859   0.247   6.197  14.582 -1.5032 -1.6250  0.9312
10482TIP3   OH252860   1.408   3.105   0.696  0.6137 -0.5089 -0.4633
10482TIP3    H152861   1.394   3.196   0.722  0.8544 -0.6327  0.1123
10482TIP3    H252862   1.501   3.089   0.713  0.6753 -0.7275 -0.9868
10483TIP3   OH252863   2.977   3.630  10.350  0.8192 -0.4596  0.1039
10483TIP3    H152864   2.916   3.693  10.389 -1.2490 -1.0546 -2.0442
10483TIP3    H252865   2.955   3.547  10.393 -0.0169 -0.7088 -0.8003
10484TIP3   OH252866   3.699   0.797   4.811 -0.4733 -0.0322  0.4619
10484TIP3    H152867   3.740   0.803   4.725 -1.2580  1.1653  0.1606
10484TIP3    H252868   3.758   0.741   4.862  0.6963  0.3538 -0.4459
10485TIP3   OH252869   4.414   4.761  14.888  0.3205  0.3009  0.3724
10485TIP3    H152870   4.489   4.729  14.937 -0.1123  0.2254  0.9924
10485TIP3    H252871   4.423   4.857  14.891  0.9741  0.2791 -0.4857
10486TIP3   OH252872   6.232   0.830  15.681 -0.1985  0.3889 -0.2593
10486TIP3    H152873   6.238   0.912  15.631  1.3355  0.9949  0.8992
10486TIP3    H252874   6.201   0.857  15.767  2.0370 -0.0043  0.6872
10487TIP3   OH252875   6.037   6.566   6.429  0.1946 -0.7955 -0.4437
10487TIP3    H152876   6.020   6.647   6.381  0.1674  0.0481  0.9592
10487TIP3    H252877   6.098   6.518   6.373  0.5781  0.3979 -1.0816
10488TIP3   OH252878   2.862   5.630  17.235 -0.1720 -0.6025  0.3020
10488TIP3    H152879   2.801   5.556  17.236  0.3620 -1.0563 -0.3381
10488TIP3    H252880   2.890   5.638  17.144  0.0887  0.1283  0.4411
10489TIP3   OH252881   3.847   5.700  12.309 -0.2762  0.1029 -0.7657
10489TIP3    H152882   3.828   5.762  12.239 -0.3660  0.3729 -0.5052
10489TIP3    H252883   3.854   5.754  12.388  2.0845  0.0883 -0.9321
10490TIP3   OH252884   1.345   5.073   1.566  0.5966  0.3283 -0.2985
10490TIP3    H152885   1.255   5.040   1.566  0.1191  1.6019  0.3324
10490TIP3    H252886   1.373   5.068   1.475  0.8392 -2.5774 -0.1162
10491TIP3   OH252887   4.612   2.844   2.917  0.0118 -0.4127  0.2661
10491TIP3    H152888   4.547   2.904   2.954  1.4483  1.1956  0.2613
10491TIP3    H252889   4.597   2.848   2.823  1.2717  1.3713  0.1191
10492TIP3   OH252890   2.873   0.538  13.489  0.2371  0.0221  0.5610
10492TIP3    H152891   2.961   0.570  13.469  0.6330 -1.6335 -0.4272
10492TIP3    H252892   2.826   0.545  13.405  0.0476 -1.0727  0.5710
10493TIP3   OH252893   1.984   1.929  10.681 -0.4571  0.3327 -0.0926
10493TIP3    H152894   1.980   2.002  10.620  2.0019  1.8056  1.4337
10493TIP3    H252895   1.918   1.950  10.747 -0.9002  0.3231 -0.5257
10494TIP3   OH252896   3.425   6.410   6.661 -0.0509 -0.3814 -0.3481
10494TIP3    H152897   3.339   6.405   6.702 -0.2051 -1.4476 -0.7721
10494TIP3    H252898   3.409   6.398   6.568  0.4355  0.6293 -0.5619
10495TIP3   OH252899   3.924   6.417  12.113 -0.3215  0.1978 -0.5710
10495TIP3    H152900   3.890   6.328  12.123  1.8424 -0.6506 -0.4753
10495TIP3    H252901   4.016   6.410  12.139 -0.3610  2.6612  0.3092
10496TIP3   OH252902   2.848   5.593  16.096  0.1107 -0.0844 -0.3226
10496TIP3    H152903   2.753   5.583  16.095 -0.0242  1.1714 -2.3294
10496TIP3    H252904   2.879   5.523  16.154 -1.9470 -1.2141 -0.5434
10497TIP3   OH252905   6.485   2.137  14.509  0.7287 -0.8616  0.1547
10497TIP3    H152906   6.474   2.229  14.484 -0.6265 -0.9437  0.3999
10497TIP3    H252907   6.445   2.088  14.437 -1.5037 -1.1448  1.5373
10498TIP3   OH252908   5.264   3.997  13.427  0.5855  0.2358  0.3904
10498TIP3    H152909   5.249   3.919  13.480  2.7720  0.0510  0.8037
10498TIP3    H252910   5.302   3.963  13.346  0.9611  0.8322  0.3201
10499TIP3   OH252911   2.165   0.575   4.322  0.2373  0.1097 -0.1276
10499TIP3    H152912   2.118   0.581   4.239 -0.0704 -2.2954 -0.1739
10499TIP3    H252913   2.246   0.529   4.299  1.1424  1.3578  0.5342
10500TIP3   OH252914   6.649   6.137  16.770  0.3011  0.2616 -1.0629
10500TIP3    H152915   6.729   6.090  16.748  0.0721 -1.4878  1.5845
10500TIP3    H252916   6.581   6.069  16.773 -0.5563  1.1547  0.2294
10501TIP3   OH252917   1.385   0.621   4.388 -0.3779 -0.5236  0.0736
10501TIP3    H152918   1.457   0.574   4.344  0.3987  0.0829  0.6792
10501TIP3    H252919   1.306   0.577   4.357  0.2667 -1.4031 -0.3676
10502TIP3   OH252920   4.936   0.797  12.158 -0.6029 -0.0526  0.0355
10502TIP3    H152921   4.937   0.745  12.238 -1.8459  1.0158  0.7558
10502TIP3    H252922   4.854   0.847  12.162 -0.0969  0.9237 -1.3047
10503TIP3   OH252923   0.058   4.333  14.482  0.1522  0.4049  0.3812
10503TIP3    H152924   0.087   4.382  14.406  1.7808 -0.4678  0.4251
10503TIP3    H252925   0.099   4.378  14.557  0.6201 -0.2470  0.5231
10504TIP3   OH252926   5.119   4.047   4.250 -0.5387  0.6011 -0.0966
10504TIP3    H152927   5.089   4.054   4.341 -0.5275 -0.4975  0.0021
10504TIP3    H252928   5.150   3.956   4.242  0.1867  0.9208 -0.9783
10505TIP3   OH252929   2.345   6.385   3.997 -0.0836  0.0344 -0.0046
10505TIP3    H152930   2.250   6.377   3.994 -0.1278  0.8510 -1.0634
10505TIP3    H252931   2.363   6.428   4.080 -0.6678  0.3260 -0.0289
10506TIP3   OH252932   2.486   2.062   6.009 -0.7195 -0.4101 -0.6925
10506TIP3    H152933   2.484   2.004   6.086  1.8409 -0.5117 -0.6478
10506TIP3    H252934   2.528   2.142   6.040 -2.1632  0.6048 -1.3252
10507TIP3   OH252935   2.295   5.115  10.749 -0.6193  0.1698 -0.5937
10507TIP3    H152936   2.260   5.147  10.666 -2.2744 -0.8211 -0.2998
10507TIP3    H252937   2.252   5.030  10.763  2.8376 -1.7093 -0.8088
10508TIP3   OH252938   0.316   2.408  12.637 -0.5571  0.5958  0.6785
10508TIP3    H152939   0.300   2.315  12.652 -0.5087  0.2450 -1.2776
10508TIP3    H252940   0.410   2.418  12.647 -0.3604  0.1238 -0.5320
10509TIP3   OH252941   3.794   3.134  11.254 -0.0057  0.1635 -0.7184
10509TIP3    H152942   3.865   3.172  11.201  1.7286 -0.0259  1.3604
10509TIP3    H252943   3.739   3.209  11.277  3.7963  1.8682  3.9627
10510TIP3   OH252944   6.245   5.468  13.099  0.3070 -0.5414 -0.3500
10510TIP3    H152945   6.332   5.508  13.096 -0.3456  1.2314  2.7258
10510TIP3    H252946   6.204   5.494  13.017  2.5533 -1.1695 -1.7150
10511TIP3   OH252947   1.577   5.005   3.206  0.3421  0.5290 -0.4648
10511TIP3    H152948   1.583   5.009   3.110 -0.0918 -2.6839 -0.6871
10511TIP3    H252949   1.485   5.022   3.225  0.7476  2.8454 -0.4724
10512TIP3   OH252950   5.350   4.402  16.248 -0.0579 -0.1825  0.0869
10512TIP3    H152951   5.282   4.343  16.280  0.8513 -0.9384  0.6601
10512TIP3    H252952   5.326   4.420  16.157 -1.7611  0.6471  0.6764
10513TIP3   OH252953   4.522   0.540  13.662 -0.3406 -0.3991  0.0864
10513TIP3    H152954   4.469   0.619  13.667  0.1722 -0.1000  0.8760
10513TIP3    H252955   4.476   0.476  13.716 -0.9071 -0.7378 -0.7828
10514TIP3   OH252956   4.446   2.247   5.507  0.9174  0.3177  0.4299
10514TIP3    H152957   4.448   2.254   5.412  0.6884 -1.3241  0.2826
10514TIP3    H252958   4.536   2.259   5.535  1.3499 -1.3567 -0.1866
10515TIP3   OH252959   5.113   0.376   0.069  0.2738 -0.5288 -0.4639
10515TIP3    H152960   5.204   0.402   0.083 -0.6004  2.5251 -0.0915
10515TIP3    H252961   5.090   0.327   0.148  0.3509  2.3556  1.4274
10516TIP3   OH252962   6.217   1.629  15.328  0.2586  0.5242 -0.5039
10516TIP3    H152963   6.286   1.695  15.328  1.9703 -1.1829 -2.5007
10516TIP3    H252964   6.164   1.652  15.251 -0.1425  0.5761 -0.2079
10517TIP3   OH252965   0.128   5.799   3.228 -0.3100  0.2028 -0.0739
10517TIP3    H152966   0.118   5.892   3.207  0.5006  0.4290  0.5784
10517TIP3    H252967   0.221   5.787   3.246 -0.3358 -0.8225 -0.5599
10518TIP3   OH252968   4.507   0.146   4.831 -0.1910  1.0059  0.1723
10518TIP3    H152969   4.536   0.203   4.759  1.4496 -0.0653 -0.0450
10518TIP3    H252970   4.542   0.187   4.910 -0.4060  1.1670  0.1867
10519TIP3   OH252971   5.569   1.342  16.378  0.3603  0.4854 -0.2838
10519TIP3    H152972   5.641   1.352  16.440 -0.8387  1.7035  0.9686
10519TIP3    H252973   5.568   1.424  16.328  1.6443 -0.6905 -2.3175
10520TIP3   OH252974   3.186   2.440   2.931  0.0291 -0.1241  0.2813
10520TIP3    H152975   3.132   2.514   2.902  1.3337  0.7100 -0.0544
10520TIP3    H252976   3.123   2.376   2.965 -1.4225 -0.3119 -2.5558
10521TIP3   OH252977   5.919   5.057   5.240  0.1552  0.2399 -0.4295
10521TIP3    H152978   5.912   5.024   5.151 -1.3643  0.9630 -0.5951
10521TIP3    H252979   5.912   4.979   5.295  0.4376 -0.1298 -0.9073
10522TIP3   OH252980   4.623   6.432  15.929  0.0710 -0.4767  0.3764
10522TIP3    H152981   4.643   6.461  15.840 -1.0427  1.4136  0.7210
10522TIP3    H252982   4.571   6.353  15.917 -1.6610  0.8096 -0.7075
10523TIP3   OH252983   3.149   1.298  12.032  0.3100 -0.0901  0.0631
10523TIP3    H152984   3.074   1.243  12.011  1.8518 -1.4190 -2.2439
10523TIP3    H252985   3.120   1.387  12.014 -0.6786 -0.6093 -0.9804
10524TIP3   OH252986   0.417   0.254  13.630 -0.4138 -0.0929 -1.1604
10524TIP3    H152987   0.343   0.198  13.612 -1.7160  0.4026  2.2795
10524TIP3    H252988   0.380   0.342  13.638  0.6552  0.2908 -0.2245
10525TIP3   OH252989   3.087   2.884   0.908  0.2832 -0.2602  0.2280
10525TIP3    H152990   3.017   2.824   0.935 -0.4424  0.5454  0.1316
10525TIP3    H252991   3.099   2.866   0.814  0.3043 -0.4856  0.2721
10526TIP3   OH252992   4.977   3.564  11.630 -0.2636 -0.1314 -0.1267
10526TIP3    H152993   4.902   3.620  11.614 -0.7126 -1.1010 -1.4961
10526TIP3    H252994   5.010   3.542  11.543  3.1196  2.2373  0.4261
10527TIP3   OH252995   5.205   4.166   1.156  0.0350  0.0521 -0.4574
10527TIP3    H152996   5.148   4.155   1.233  0.1383  1.1330 -0.2092
10527TIP3    H252997   5.198   4.259   1.135  1.6847  0.1881 -0.4574
10528TIP3   OH252998   4.831   5.902  11.820  0.2748 -0.0181 -0.4373
10528TIP3    H152999   4.849   5.888  11.727  0.6132  0.9236 -0.5195
10528TIP3    H253000   4.802   5.993  11.826  1.7348  0.4066  0.5878
10529TIP3   OH253001   0.228   4.930  13.791 -0.3898  0.2944  0.4624
10529TIP3    H153002   0.205   4.873  13.865  0.4789 -0.5397  0.0959
10529TIP3    H253003   0.156   4.993  13.786 -0.5002  0.2942  1.9597
10530TIP3   OH253004   0.161   3.313   1.483 -0.3913 -0.6879  0.3620
10530TIP3    H153005   0.183   3.373   1.554 -1.2538  0.6628 -0.4821
10530TIP3    H253006   0.206   3.350   1.407  0.1434 -1.8585  0.1019
10531TIP3   OH253007   3.765   2.514   2.022 -0.2689  0.1852 -0.0523
10531TIP3    H153008   3.804   2.455   1.958 -0.8766  1.2799 -1.4419
10531TIP3    H253009   3.671   2.508   2.006 -0.4866 -0.1642  1.2985
10532TIP3   OH253010   5.874   1.099  16.966  0.2414  0.0934 -0.3414
10532TIP3    H153011   5.892   1.183  17.009 -1.0989 -0.1008  0.6246
10532TIP3    H253012   5.793   1.115  16.917 -0.2210 -0.7402  0.1420
10533TIP3   OH253013   6.123   3.652  15.893  0.1348  0.4529  0.0325
10533TIP3    H153014   6.206   3.675  15.852  0.5070  0.2764  0.6680
10533TIP3    H253015   6.059   3.710  15.854  0.4864  0.2976 -0.7754
10534TIP3   OH253016   5.191   5.220  12.973  0.7482  0.5127  0.1701
10534TIP3    H153017   5.168   5.254  13.059 -0.2452  2.7316 -0.9240
10534TIP3    H253018   5.235   5.294  12.929 -0.4579  0.0562 -1.8844
10535TIP3   OH253019   1.289   3.368   0.097  0.4045  0.0869 -0.2190
10535TIP3    H153020   1.319   3.368   0.188  1.6106 -0.5919 -0.6035
10535TIP3    H253021   1.207   3.417   0.099 -0.0483 -0.6928  1.3759
10536TIP3   OH253022   3.970   0.958  16.210  0.2246 -0.5670  0.3966
10536TIP3    H153023   3.982   0.899  16.135 -0.5810  0.1377 -0.2927
10536TIP3    H253024   3.984   0.902  16.286  1.9327 -1.0982 -0.2771
10537TIP3   OH253025   3.399   4.354  11.713 -0.4373  0.5745  0.1546
10537TIP3    H153026   3.333   4.383  11.650  1.2449  2.8893 -0.6172
10537TIP3    H253027   3.359   4.370  11.799 -2.2291 -1.3783 -0.2664
10538TIP3   OH253028   1.468   4.081   4.406 -0.3244 -0.1171  0.1831
10538TIP3    H153029   1.524   4.089   4.484 -0.1036 -1.0770  0.1198
10538TIP3    H253030   1.425   3.997   4.415  2.1095 -1.7241 -2.2819
10539TIP3   OH253031   5.620   2.206  17.198  0.5751 -0.8618 -0.1542
10539TIP3    H153032   5.701   2.170  17.163  1.0093  1.1100 -1.2577
10539TIP3    H253033   5.572   2.236  17.121 -0.5361 -0.6362  0.6103
10540TIP3   OH253034   5.789   2.697   3.094  0.4191  0.3996  0.0401
10540TIP3    H153035   5.846   2.623   3.117 -0.7924 -0.4592  0.3812
10540TIP3    H253036   5.804   2.761   3.163  1.0848  0.2443  0.0418
10541TIP3   OH253037   3.741   3.745  12.410  0.5488 -0.5512  0.2554
10541TIP3    H153038   3.737   3.721  12.503 -0.3357  0.4118  0.4779
10541TIP3    H253039   3.728   3.663  12.363  0.5860 -0.9805  0.9963
10542TIP3   OH253040   2.248   0.173  12.893  0.0628  0.0438 -0.4125
10542TIP3    H153041   2.330   0.192  12.937  0.4047 -2.0883 -0.0403
10542TIP3    H253042   2.187   0.151  12.964 -0.2456 -0.3897 -0.8058
10543TIP3   OH253043   4.013   4.200   1.750  0.0965  0.1487 -0.2374
10543TIP3    H153044   3.967   4.196   1.834  0.0627 -1.6777 -0.3217
10543TIP3    H253045   3.959   4.148   1.691  0.4019  0.9815 -1.2665
10544TIP3   OH253046   0.712   2.150   0.243 -0.3144 -0.1336 -0.4347
10544TIP3    H153047   0.749   2.225   0.289 -0.2200 -0.0902 -0.5834
10544TIP3    H253048   0.681   2.093   0.314  1.3226 -0.8366 -0.2437
10545TIP3   OH253049   2.224   0.201   0.835 -0.4559  0.6928  0.7574
10545TIP3    H153050   2.246   0.158   0.752  3.1878  3.3819  0.1660
10545TIP3    H253051   2.290   0.170   0.896 -2.6582 -0.6578  2.4974
10546TIP3   OH253052   4.182   1.614   1.559 -0.6434 -0.3579  0.3701
10546TIP3    H153053   4.234   1.692   1.578 -0.6997 -0.1520 -0.3319
10546TIP3    H253054   4.204   1.553   1.630  0.7624 -0.3762 -0.0493
10547TIP3   OH253055   5.311   6.423   3.919  0.0722 -0.6910 -0.0784
10547TIP3    H153056   5.260   6.439   3.999 -1.7706  1.0105 -1.5672
10547TIP3    H253057   5.253   6.372   3.863  0.8422 -0.6645 -0.9190
10548TIP3   OH253058   3.984   0.227   3.744  0.1699  0.1144  0.2219
10548TIP3    H153059   3.969   0.255   3.654  1.1526  3.1571  0.9359
10548TIP3    H253060   3.903   0.184   3.770 -1.7792  3.0699 -0.7486
10549TIP3   OH253061   2.306   4.825  10.786  0.2134  0.6978 -0.3964
10549TIP3    H153062   2.338   4.789  10.703 -0.8651 -1.7294  0.1756
10549TIP3    H253063   2.211   4.815  10.781  0.1336  0.6102  1.0967
10550TIP3   OH253064   0.882   0.891  10.431  0.6881  0.8530 -0.4654
10550TIP3    H153065   0.941   0.864  10.360  0.3720  1.7956 -1.1093
10550TIP3    H253066   0.812   0.827  10.429  0.7486  0.7944 -0.9296
10551TIP3   OH253067   4.626   4.651  13.410  0.6239 -0.1944  0.6156
10551TIP3    H153068   4.578   4.650  13.493 -0.2427 -0.0585  0.1193
10551TIP3    H253069   4.715   4.678  13.434  0.6478 -1.1392  1.6396
10552TIP3   OH253070   0.672   6.690   1.206  0.2570 -0.3387 -0.0091
10552TIP3    H153071   0.594   6.719   1.157  0.1965 -2.1622 -1.0348
10552TIP3    H253072   0.641   6.681   1.296 -0.7358 -1.1148 -0.4233
10553TIP3   OH253073   1.345   5.037   1.285  0.2073 -0.4511  0.1797
10553TIP3    H153074   1.319   5.129   1.284  2.7223  0.2905  0.0026
10553TIP3    H253075   1.401   5.027   1.208 -2.2732 -2.8427 -1.4074
10554TIP3   OH253076   4.781   0.862   4.015 -0.3084  1.0882  0.4538
10554TIP3    H153077   4.752   0.831   3.929 -0.9298  1.5347  0.5016
10554TIP3    H253078   4.876   0.849   4.014 -0.3874  0.5126 -0.0639
10555TIP3   OH253079   4.496   6.291  15.631  0.2102 -0.0391  0.5743
10555TIP3    H153080   4.576   6.238  15.641  0.7270  0.8459  1.2163
10555TIP3    H253081   4.524   6.380  15.651 -0.7170  0.4437 -0.2353
10556TIP3   OH253082   0.198   0.587   1.507 -0.1615  0.1450  0.2185
10556TIP3    H153083   0.200   0.682   1.510 -0.7519  0.2345 -1.4841
10556TIP3    H253084   0.204   0.559   1.598  2.3180  1.7409  0.5771
10557TIP3   OH253085   1.690   2.727   0.818 -0.2053 -0.5087 -0.1221
10557TIP3    H153086   1.753   2.672   0.863  0.6010 -0.6388 -1.3896
10557TIP3    H253087   1.742   2.795   0.776 -0.8523 -0.7839 -1.4208
10558TIP3   OH253088   0.292   6.596   4.216 -0.2238  0.0274 -0.1513
10558TIP3    H153089   0.344   6.571   4.292  1.7815  1.2926 -1.0469
10558TIP3    H253090   0.309   6.528   4.151  0.5299  0.5653 -0.5271
10559TIP3   OH253091   0.126   4.553  13.889 -0.0684  0.0058 -1.0567
10559TIP3    H153092   0.197   4.571  13.950  1.2168 -1.3755 -2.0853
10559TIP3    H253093   0.123   4.630  13.832  1.5663 -0.5203 -1.8855
10560TIP3   OH253094   1.554   4.018  14.754 -0.2744  0.3127  0.3843
10560TIP3    H153095   1.618   4.063  14.698  0.5509 -0.3136  0.8179
10560TIP3    H253096   1.469   4.043  14.718  0.2204  0.9770 -0.3350
10561TIP3   OH253097   6.554   5.850  14.632 -0.0238  0.5820  0.6857
10561TIP3    H153098   6.554   5.769  14.684 -0.7228 -0.0155 -0.2368
10561TIP3    H253099   6.639   5.849  14.588  0.2704  0.7189  1.2470
10562TIP3   OH253100   1.286   1.241   1.915  0.2583 -0.3393 -0.2879
10562TIP3    H153101   1.252   1.307   1.975  1.5325  3.1930 -3.2447
10562TIP3    H253102   1.266   1.158   1.957 -2.1727  1.8680  3.2073
10563TIP3   OH253103   3.620   0.367   2.908  0.5571 -0.8400 -0.3307
10563TIP3    H153104   3.627   0.461   2.891  0.9912 -0.1451  3.1616
10563TIP3    H253105   3.694   0.328   2.862  1.0516  0.6804 -0.8527
10564TIP3   OH253106   1.670   5.239  15.228 -0.0309  0.0705 -0.2792
10564TIP3    H153107   1.752   5.205  15.264 -0.0780  1.2241  0.9396
10564TIP3    H253108   1.669   5.331  15.254 -1.3600  0.2466 -0.9310
10565TIP3   OH253109   6.409   3.495  13.201 -0.2253 -0.2380 -0.6806
10565TIP3    H153110   6.474   3.424  13.197 -0.1188 -0.1284 -0.9639
10565TIP3    H253111   6.340   3.467  13.141  0.5825  0.6466 -2.0529
10566TIP3   OH253112   1.081   1.165  16.748 -0.2231 -0.0263  0.1720
10566TIP3    H153113   1.151   1.102  16.729 -0.6504 -0.7394  0.9051
10566TIP3    H253114   1.014   1.145  16.683 -0.7274 -0.9287  0.9579
10567TIP3   OH253115   5.400   6.524  12.682  0.1244  0.3176 -0.0773
10567TIP3    H153116   5.479   6.505  12.733 -1.3820  0.2579  2.2858
10567TIP3    H253117   5.381   6.616  12.701  0.5023  0.7839 -1.8904
10568TIP3   OH253118   1.837   0.482   3.880  0.4167  0.1698  0.0996
10568TIP3    H153119   1.845   0.387   3.881  1.0795  0.1976 -1.2886
10568TIP3    H253120   1.856   0.507   3.790  1.6647  1.7278  0.7658
10569TIP3   OH253121   2.686   4.441  12.624  0.2811  0.6943 -0.3492
10569TIP3    H153122   2.677   4.364  12.568  0.6239  0.3587  0.0497
10569TIP3    H253123   2.613   4.498  12.600 -2.2200 -1.4134  2.0086
10570TIP3   OH253124   6.715   1.373  11.342  0.0286 -0.0485 -0.1241
10570TIP3    H153125   6.775   1.386  11.269  0.0588  2.4031  0.2946
10570TIP3    H253126   6.628   1.376  11.302  0.1089 -0.9083 -0.3645
10571TIP3   OH253127   6.083   2.831  15.447 -0.3548 -0.2926 -0.1595
10571TIP3    H153128   6.174   2.819  15.418 -0.2363  0.3850 -0.0864
10571TIP3    H253129   6.031   2.816  15.368  0.0340  2.5458 -1.0078
10572TIP3   OH253130   4.080   0.894  15.299  0.0115  0.2121 -0.0759
10572TIP3    H153131   4.134   0.972  15.303 -0.5979  0.7882 -2.1790
10572TIP3    H253132   4.109   0.849  15.220 -2.4087  0.4575 -1.1698
10573TIP3   OH253133   5.018   0.932  11.413 -0.2777  0.1768  0.0914
10573TIP3    H153134   5.038   0.919  11.506 -1.8298  0.9171  0.5418
10573TIP3    H253135   4.978   0.850  11.385 -0.5184  0.2342  0.2715
10574TIP3   OH253136   0.087   4.390   1.372 -0.4709 -0.3178  0.1620
10574TIP3    H153137   0.122   4.441   1.298 -0.8951  1.3578  1.0829
10574TIP3    H253138   0.124   4.433   1.450  0.4206 -2.4090  0.9262
10575TIP3   OH253139   4.594   6.583  16.167  0.3311  0.2992 -0.1510
10575TIP3    H153140   4.540   6.643  16.115 -1.1954 -2.2798 -1.7061
10575TIP3    H253141   4.620   6.515  16.105  1.7495 -0.8077  1.6093
10576TIP3   OH253142   2.713   1.774   2.200  0.2388  0.0011 -0.8241
10576TIP3    H153143   2.696   1.844   2.137 -3.5833 -0.5916 -0.5405
10576TIP3    H253144   2.666   1.698   2.166  0.0014 -0.9629  1.5369
10577TIP3   OH253145   0.946   4.617   1.997 -0.3340 -0.5515  0.2576
10577TIP3    H153146   0.884   4.594   1.928  0.4790 -0.8691 -0.3680
10577TIP3    H253147   0.890   4.639   2.072 -1.1885 -1.7924  0.0081
10578TIP3   OH253148   2.906   6.388  12.048 -0.2641  0.0788 -0.4079
10578TIP3    H153149   2.970   6.361  12.113 -0.6487  0.0802 -0.0293
10578TIP3    H253150   2.942   6.356  11.965  1.6379  2.5355 -0.5885
10579TIP3   OH253151   1.154   1.257  14.063  0.0407 -0.8160 -0.3420
10579TIP3    H153152   1.213   1.314  14.113 -0.4089 -1.7073  1.2428
10579TIP3    H253153   1.213   1.197  14.017  0.4435 -0.6921  0.0011
10580TIP3   OH253154   6.525   2.180  15.498  0.1568  0.0102 -0.1192
10580TIP3    H153155   6.568   2.112  15.550 -0.1279  0.4543  0.7139
10580TIP3    H253156   6.593   2.212  15.438 -0.1246 -2.0444 -1.5612
10581TIP3   OH253157   6.552   5.163   3.782 -0.8524  0.2232 -0.4977
10581TIP3    H153158   6.488   5.142   3.713 -0.6139  0.9953 -0.9706
10581TIP3    H253159   6.499   5.204   3.851 -0.8618  1.0230 -0.9627
10582TIP3   OH253160   3.987   4.720   4.950  0.4105 -0.3751 -0.2584
10582TIP3    H153161   3.931   4.796   4.931  0.6602 -0.3743 -1.0237
10582TIP3    H253162   4.004   4.725   5.044 -0.4345 -0.0703 -0.1154
10583TIP3   OH253163   0.181   1.947   3.275 -0.2411  0.1164  0.1088
10583TIP3    H153164   0.207   1.916   3.188 -0.9647 -0.8286  0.2156
10583TIP3    H253165   0.086   1.941   3.274 -0.2949  0.8779  0.6918
10584TIP3   OH253166   0.237   6.760  17.182  0.1366 -0.0546  0.3448
10584TIP3    H153167   0.173   6.716  17.126  0.1965 -0.7729  0.8340
10584TIP3    H253168   0.207   6.850  17.187  0.6656  0.2539 -1.6434
10585TIP3   OH253169   3.051   4.473  15.806  0.1584 -0.6356  0.5890
10585TIP3    H153170   3.083   4.464  15.717  2.1935 -1.8508  1.4075
10585TIP3    H253171   3.130   4.495  15.857 -1.0834  0.6688  1.9863
10586TIP3   OH253172   0.620   0.564   2.381  0.0029  0.2197  0.0086
10586TIP3    H153173   0.613   0.519   2.465  1.8411  1.7469  1.0235
10586TIP3    H253174   0.654   0.497   2.321 -0.2811 -0.5817  0.7328
10587TIP3   OH253175   5.024   4.862  13.849 -0.5991  0.2891  0.6178
10587TIP3    H153176   5.106   4.812  13.856 -0.0603  0.6900 -1.9992
10587TIP3    H253177   4.955   4.798  13.865  0.1597 -0.8007 -0.3685
10588TIP3   OH253178   0.283   2.475   3.175  0.4816  0.0749  0.6154
10588TIP3    H153179   0.312   2.386   3.157 -0.3246 -0.4052  1.6559
10588TIP3    H253180   0.342   2.507   3.243 -0.2150 -0.2208  1.3594
10589TIP3   OH253181   5.154   1.726  13.166  0.3068  0.5829 -0.0168
10589TIP3    H153182   5.105   1.654  13.206  3.1100 -1.1260  0.4831
10589TIP3    H253183   5.099   1.755  13.094 -0.7921 -2.3041 -0.4293
10590TIP3   OH253184   1.065   1.076  16.054  0.6301 -0.4563 -0.3995
10590TIP3    H153185   1.080   1.030  16.136  0.4407  0.3094  0.0678
10590TIP3    H253186   1.010   1.151  16.077  0.1838 -0.4945 -1.2953
10591TIP3   OH253187   4.247   6.123   0.875 -0.1008 -0.3337 -0.0860
10591TIP3    H153188   4.230   6.144   0.783 -1.3610  0.2000  0.2643
10591TIP3    H253189   4.240   6.207   0.921 -0.4798 -0.7561  0.6377
10592TIP3   OH253190   5.823   0.132   5.757  0.2415  0.2817 -0.1160
10592TIP3    H153191   5.897   0.089   5.801 -0.3725 -1.8151 -1.0680
10592TIP3    H253192   5.752   0.130   5.821 -0.2744 -1.6427 -0.7103
10593TIP3   OH253193   1.262   0.983   2.985  0.1986 -0.1187  0.1332
10593TIP3    H153194   1.251   1.026   3.069  0.8624  0.1603  0.0852
10593TIP3    H253195   1.188   0.923   2.978 -0.3377  0.4925  0.5244
10594TIP3   OH253196   4.480   1.788  13.347  0.0549  0.3309 -0.4388
10594TIP3    H153197   4.484   1.707  13.398 -1.0166  1.0737  0.8439
10594TIP3    H253198   4.570   1.803  13.319  0.6714 -0.1062  1.2256
10595TIP3   OH253199   5.722   6.381   3.591 -0.0905 -0.0040  0.5067
10595TIP3    H153200   5.782   6.399   3.663  1.0081  2.1506 -0.9059
10595TIP3    H253201   5.699   6.288   3.602  2.2294 -0.4452  2.0047
10596TIP3   OH253202   4.723   0.104  13.776  0.0038  0.1549  0.1797
10596TIP3    H153203   4.744   0.012  13.762  1.3312  0.7464 -1.9241
10596TIP3    H253204   4.659   0.125  13.708 -2.3673  0.1540  2.3055
10597TIP3   OH253205   3.273   3.683  12.594 -0.4208  0.2250 -0.4055
10597TIP3    H153206   3.223   3.609  12.561  0.7113 -0.1961 -1.1885
10597TIP3    H253207   3.246   3.756  12.538  1.3486 -0.4447 -2.1691
10598TIP3   OH253208   2.133   0.007   3.517 -0.0250  0.4187  0.3192
10598TIP3    H153209   2.066  -0.052   3.551 -0.0480  0.6862  0.7463
10598TIP3    H253210   2.118   0.090   3.563  0.9888  0.2971  0.9108
10599TIP3   OH253211   1.883   4.488  12.764  0.1835 -0.3430  0.1757
10599TIP3    H153212   1.831   4.467  12.686  1.0564 -2.3333  0.0896
10599TIP3    H253213   1.944   4.415  12.772  2.0091  1.2500  1.1002
10600TIP3   OH253214   0.773   2.000  15.155 -0.0895 -0.3393  0.1863
10600TIP3    H153215   0.710   2.060  15.195  0.3721 -0.6412  1.4126
10600TIP3    H253216   0.821   1.965  15.230  2.9885  1.4902 -0.8664
10601TIP3   OH253217   2.410   4.182   2.137  1.1428 -0.4024 -0.2072
10601TIP3    H153218   2.337   4.138   2.094 -0.6492  2.2091  0.0190
10601TIP3    H253219   2.452   4.233   2.068  3.0260 -2.1759 -0.4135
10602TIP3   OH253220   6.506   4.882  13.734  0.5666  0.3551 -0.2293
10602TIP3    H153221   6.569   4.863  13.804  1.0648  1.0961 -0.4722
10602TIP3    H253222   6.423   4.846  13.767  1.0043 -0.1967  0.3010
10603TIP3   OH253223   2.525   2.222   0.907 -0.0387 -0.0497 -0.3225
10603TIP3    H153224   2.528   2.176   0.824 -0.7392  0.1587 -0.4681
10603TIP3    H253225   2.525   2.315   0.883 -1.3670  0.0036 -0.1383
10604TIP3   OH253226   3.441   0.838   3.515 -0.0726  0.1619 -0.0760
10604TIP3    H153227   3.451   0.815   3.607  0.1773 -2.4438 -0.7316
10604TIP3    H253228   3.529   0.827   3.478 -0.7289 -1.3528 -1.1824
10605TIP3   OH253229   6.780   4.950  17.086 -0.1170 -0.7320 -0.3149
10605TIP3    H153230   6.728   4.871  17.072  1.7969 -2.1269  0.2610
10605TIP3    H253231   6.866   4.929  17.051  0.4588  1.0497 -0.0263
10606TIP3   OH253232   2.448   0.414  10.565 -0.0632 -0.0590  0.1123
10606TIP3    H153233   2.480   0.503  10.580  0.8280  0.0306 -2.0998
10606TIP3    H253234   2.504   0.360  10.621 -1.2439  0.8058  2.2260
10607TIP3   OH253235   6.298   4.381   0.257 -0.0219  0.5478  0.0210
10607TIP3    H153236   6.252   4.411   0.179  3.9519 -0.7274 -3.0054
10607TIP3    H253237   6.333   4.461   0.296 -0.9324  1.0872 -0.2447
10608TIP3   OH253238   5.787   4.553   4.771  0.0828  0.4110 -0.3791
10608TIP3    H153239   5.772   4.462   4.744 -1.5608  0.0589  1.6110
10608TIP3    H253240   5.815   4.547   4.862 -2.6693  2.0033  0.6543
10609TIP3   OH253241   2.264   4.950  16.755  0.0993  0.3185 -0.1363
10609TIP3    H153242   2.223   4.866  16.735  2.2504 -1.0518  1.0393
10609TIP3    H253243   2.195   5.000  16.799 -0.7948 -1.3560  0.4164
10610TIP3   OH253244   1.047   5.774   3.255 -0.3944  0.0006 -0.6466
10610TIP3    H153245   1.108   5.730   3.195  0.3063  2.0202 -1.4781
10610TIP3    H253246   1.100   5.792   3.333 -0.8482 -1.1588 -0.0664
10611TIP3   OH253247   5.989   1.666   3.203  0.3212 -0.6988 -0.0842
10611TIP3    H153248   5.943   1.663   3.287 -1.8399  0.5219 -1.1826
10611TIP3    H253249   6.079   1.642   3.224  0.4513  2.0875  3.0504
10612TIP3   OH253250   5.202   2.186  15.483  0.1762  0.0440  0.6110
10612TIP3    H153251   5.275   2.125  15.483 -0.8979 -1.2678  1.0055
10612TIP3    H253252   5.128   2.135  15.516 -0.9552  1.3015  0.0704
10613TIP3   OH253253   0.931   2.068   2.078 -0.3914  0.2102 -0.3921
10613TIP3    H153254   0.934   2.141   2.140 -0.2723 -0.6289  0.6076
10613TIP3    H253255   1.004   2.012   2.104 -0.3660 -0.1722 -1.2781
10614TIP3   OH253256   0.429   1.447   0.595 -0.2940 -0.2362  0.1011
10614TIP3    H153257   0.515   1.448   0.551  1.3665 -2.6484  3.1378
10614TIP3    H253258   0.442   1.498   0.675 -1.7349 -0.5319  0.5391
10615TIP3   OH253259   2.107   4.486  11.478 -0.0741  0.5083  0.6208
10615TIP3    H153260   2.152   4.548  11.420 -0.6546 -0.2113 -0.6193
10615TIP3    H253261   2.150   4.403  11.461 -0.6186  0.1854  0.8175
10616TIP3   OH253262   4.261   2.995   4.421  0.3275  0.2260  0.1289
10616TIP3    H153263   4.279   3.007   4.327 -0.6977 -0.5662 -0.1737
10616TIP3    H253264   4.180   2.945   4.424  0.3960  0.1731  1.4510
10617TIP3   OH253265   6.554   6.276   5.442  0.1825  0.3208  0.1647
10617TIP3    H153266   6.496   6.221   5.495  2.4196 -1.5875  0.7019
10617TIP3    H253267   6.534   6.251   5.351  0.8868 -1.1079  0.3851
10618TIP3   OH253268   5.910   1.173  16.073  0.7983  0.6488 -0.0202
10618TIP3    H153269   5.895   1.192  15.981  1.1140  1.5205  0.1054
10618TIP3    H253270   5.970   1.098  16.073 -2.1945 -1.9033 -0.5242
10619TIP3   OH253271   1.493   6.578  15.847 -0.1399  0.1716  0.0454
10619TIP3    H153272   1.440   6.503  15.821  0.1472 -0.7967  2.1603
10619TIP3    H253273   1.444   6.654  15.816 -0.8154 -0.8498 -1.4271
10620TIP3   OH253274   3.731   0.065   5.468 -0.0370 -0.1713  0.4283
10620TIP3    H153275   3.660   0.128   5.453  0.9834  0.9482  0.3026
10620TIP3    H253276   3.693  -0.020   5.443 -0.4394  0.7852 -2.3449
10621TIP3   OH253277   1.108   1.853   2.090  0.4729 -0.2032  0.8140
10621TIP3    H153278   1.023   1.827   2.055  0.4652 -1.4248  1.7258
10621TIP3    H253279   1.164   1.777   2.076  1.1552  0.2408  1.1280
10622TIP3   OH253280   6.564   2.838  17.124  0.1311  0.6699  0.4126
10622TIP3    H153281   6.589   2.929  17.141  0.2819  0.4346  1.4536
10622TIP3    H253282   6.469   2.837  17.134  0.1380  0.6910  0.4855
10623TIP3   OH253283   5.732   3.907  13.475 -0.1815 -0.0460  0.0205
10623TIP3    H153284   5.779   3.937  13.553 -0.8692  0.5243  0.2178
10623TIP3    H253285   5.657   3.965  13.468 -0.1301 -0.0999 -1.0678
10624TIP3   OH253286   5.715   0.009  12.994 -0.0843  0.4095 -0.1835
10624TIP3    H153287   5.778   0.011  13.066 -0.8480 -0.0728  0.5027
10624TIP3    H253288   5.740  -0.068  12.942  1.1877  1.4224 -1.1022
10625TIP3   OH253289   4.803   0.708  12.713 -0.0212  0.3266 -0.1649
10625TIP3    H153290   4.781   0.735  12.802  0.4429 -1.8692  0.6458
10625TIP3    H253291   4.719   0.689  12.672 -0.1300 -0.5018  0.4289
10626TIP3   OH253292   1.508   0.895   3.178  0.0300  0.3298  0.3696
10626TIP3    H153293   1.596   0.917   3.146  0.1665 -2.0263 -0.9877
10626TIP3    H253294   1.449   0.947   3.123  0.5032  0.8546  0.3437
10627TIP3   OH253295   2.928   2.636  15.451  0.0240 -0.5138 -0.1988
10627TIP3    H153296   2.890   2.548  15.454  1.2490 -1.0899 -1.0258
10627TIP3    H253297   2.931   2.664  15.543 -0.5076 -1.2876  0.0561
10628TIP3   OH253298   3.485   6.293   2.373  0.5297  0.2346  0.1649
10628TIP3    H153299   3.574   6.315   2.400  0.6045  1.2861 -0.8927
10628TIP3    H253300   3.478   6.328   2.285 -1.0033  0.3347  0.3203
10629TIP3   OH253301   1.179   3.004  11.473  0.2396  0.0360  0.3244
10629TIP3    H153302   1.091   3.014  11.437  0.4639 -0.4529 -0.3564
10629TIP3    H253303   1.229   3.076  11.434  0.6191 -0.8140 -0.7696
10630TIP3   OH253304   6.084   4.067   1.453 -0.2048 -0.1793 -0.3150
10630TIP3    H153305   6.011   4.064   1.391  0.2295  0.1527 -0.8621
10630TIP3    H253306   6.160   4.044   1.400  0.0047 -1.0914  0.3848
10631TIP3   OH253307   1.258   0.237   1.049 -0.5058 -0.4168 -0.1598
10631TIP3    H153308   1.246   0.328   1.075  4.2622  0.4849 -0.6016
10631TIP3    H253309   1.244   0.237   0.954  0.4633  0.1296 -0.3176
10632TIP3   OH253310   5.031   5.541  12.402  0.2652  0.0215 -0.2338
10632TIP3    H153311   5.092   5.539  12.476  1.6193  0.2833 -1.3250
10632TIP3    H253312   5.035   5.630  12.369  0.5179 -0.3795 -1.3162
10633TIP3   OH253313   5.930   2.847   3.270  0.6154  0.3632  0.0051
10633TIP3    H153314   6.024   2.828   3.278  1.0069  1.0217 -2.4559
10633TIP3    H253315   5.925   2.911   3.200 -1.8452 -1.1402 -1.2737
10634TIP3   OH253316   3.326   2.516  16.266  0.1436  0.1340 -0.1356
10634TIP3    H153317   3.347   2.600  16.225  2.3004 -0.3907 -0.1955
10634TIP3    H253318   3.352   2.451  16.200 -1.2021 -0.5942  0.0376
10635TIP3   OH253319   4.375   5.171   2.572  0.5072 -0.3380 -0.4405
10635TIP3    H153320   4.387   5.248   2.517 -1.7668 -0.4657 -1.1749
10635TIP3    H253321   4.421   5.101   2.526  1.0966  0.2005 -0.6721
10636TIP3   OH253322   2.260   3.405   5.382  0.0142 -0.2424 -0.1292
10636TIP3    H153323   2.188   3.387   5.443 -2.1545 -0.5248 -2.7178
10636TIP3    H253324   2.300   3.486   5.416 -0.1097 -1.2332  2.5444
10637TIP3   OH253325   1.654   1.727   5.627  0.1844 -0.1616  0.1972
10637TIP3    H153326   1.605   1.793   5.578  1.7656  2.1719  1.6945
10637TIP3    H253327   1.602   1.713   5.706  1.5251  1.7941  1.4534
10638TIP3   OH253328   0.619   3.534  10.646  0.4682  0.4220  0.1999
10638TIP3    H153329   0.547   3.473  10.629  0.1435  0.8061  0.1964
10638TIP3    H253330   0.674   3.489  10.710 -0.1020  0.3831  0.6673
10639TIP3   OH253331   3.151   3.985   4.845 -0.6496 -0.0502 -0.0473
10639TIP3    H153332   3.147   4.068   4.797  1.4158 -0.0365 -0.2330
10639TIP3    H253333   3.187   4.008   4.930 -1.5296 -0.5244  0.4553
10640TIP3   OH253334   3.291   4.015  14.930  0.0424  0.2676 -0.4949
10640TIP3    H153335   3.369   4.061  14.963  0.8944 -1.3724 -0.1967
10640TIP3    H253336   3.254   4.075  14.865  0.1363  2.1479  1.1341
10641TIP3   OH253337   2.576   5.356   5.558 -0.3150 -0.3412  0.4480
10641TIP3    H153338   2.553   5.435   5.508  2.2166  0.2399  0.1320
10641TIP3    H253339   2.555   5.379   5.648 -0.4573  0.3696  0.2401
10642TIP3   OH253340   0.552   4.341  11.383  0.0123  0.1820 -0.3342
10642TIP3    H153341   0.606   4.420  11.387 -2.3953  1.8240  1.1604
10642TIP3    H253342   0.529   4.324  11.474 -1.2916 -0.9607 -0.8648
10643TIP3   OH253343   4.695   2.508  14.799 -0.2647 -0.0349 -0.4050
10643TIP3    H153344   4.766   2.474  14.745 -0.8459 -0.1146 -1.1290
10643TIP3    H253345   4.695   2.602  14.782 -0.7457 -0.1224 -0.9098
10644TIP3   OH253346   4.592   1.528   2.235 -0.3953  0.0959 -0.5816
10644TIP3    H153347   4.506   1.570   2.239 -0.4198  0.0121 -0.2483
10644TIP3    H253348   4.591   1.482   2.151 -0.7258 -0.0084 -0.5247
10645TIP3   OH253349   4.872   4.400   0.662 -0.0448  0.1512 -0.0339
10645TIP3    H153350   4.967   4.409   0.653  0.1380  0.1162  1.6114
10645TIP3    H253351   4.854   4.434   0.750 -1.5624  0.1742 -0.3439
10646TIP3   OH253352   5.075   4.317   5.543  0.7594  0.2021  0.0310
10646TIP3    H153353   5.009   4.263   5.500  1.9801 -0.2530 -1.3171
10646TIP3    H253354   5.026   4.393   5.576 -0.6788 -0.8825  0.4310
10647TIP3   OH253355   0.978   0.156  16.468 -0.0030  0.9128 -0.0788
10647TIP3    H153356   0.912   0.186  16.530 -1.0536  0.5033 -0.9893
10647TIP3    H253357   1.048   0.120  16.523 -0.1308  2.1422  0.9173
10648TIP3   OH253358   1.672   0.493  10.706  0.0677 -0.3137  0.2780
10648TIP3    H153359   1.744   0.445  10.667  0.1960  0.6271 -0.6469
10648TIP3    H253360   1.623   0.529  10.632  1.4766  3.1975  0.9670
10649TIP3   OH253361   6.713   1.208  14.049 -0.1942  0.3432 -0.4125
10649TIP3    H153362   6.701   1.135  13.988 -0.3748  0.4003 -0.4450
10649TIP3    H253363   6.744   1.167  14.130  0.0858  0.2715 -0.5528
10650TIP3   OH253364   1.010   4.316   4.813  0.3249 -1.0790  0.1422
10650TIP3    H153365   1.100   4.338   4.838 -0.2354  0.4752  0.8597
10650TIP3    H253366   0.992   4.374   4.739 -0.7252 -0.0065  1.2159
10651TIP3   OH253367   0.734   2.773  11.832 -0.2981  0.1629 -0.2872
10651TIP3    H153368   0.754   2.854  11.879 -2.1065  0.8870 -0.6863
10651TIP3    H253369   0.718   2.801  11.742 -0.4028 -0.7222 -0.5512
10652TIP3   OH253370   5.449   1.159   3.676  0.1969 -0.0508 -0.0308
10652TIP3    H153371   5.358   1.130   3.668 -0.2483  1.2889  0.1007
10652TIP3    H253372   5.490   1.132   3.593 -0.9381  1.4798 -1.1243
10653TIP3   OH253373   4.996   3.969  15.491  0.1469 -0.3187 -0.1960
10653TIP3    H153374   4.923   4.030  15.479  1.1819  1.1692  0.9052
10653TIP3    H253375   4.963   3.885  15.457 -2.0516  0.3436  0.2210
10654TIP3   OH253376   6.486   0.611  13.321 -0.1250 -0.3433  0.0010
10654TIP3    H153377   6.428   0.615  13.397  0.6073 -2.7512  0.7430
10654TIP3    H253378   6.529   0.696  13.319 -2.5666  0.9353  0.3176
10655TIP3   OH253379   2.016   0.809  15.405 -0.1779 -0.5103 -0.4507
10655TIP3    H153380   1.932   0.765  15.390 -0.8887 -0.1507  2.1833
10655TIP3    H253381   2.002   0.861  15.484  1.7620  1.6031 -1.4378
10656TIP3   OH253382   6.260   3.214  13.714  0.0374 -0.2741 -0.0890
10656TIP3    H153383   6.226   3.260  13.637  0.5962 -0.8459 -0.6864
10656TIP3    H253384   6.355   3.218  13.705  0.0893 -2.1217 -0.5062
10657TIP3   OH253385   2.597   3.382   0.376  0.2558 -0.2795  0.0877
10657TIP3    H153386   2.643   3.396   0.459 -0.3913  0.0910  0.3881
10657TIP3    H253387   2.573   3.289   0.377 -0.3888 -0.1158  0.6550
10658TIP3   OH253388   2.115   3.818  11.788  0.3116 -0.2871 -0.5479
10658TIP3    H153389   2.191   3.783  11.833 -0.6091  0.1883  1.4279
10658TIP3    H253390   2.131   3.912  11.781  0.3641 -0.3318 -1.0375
10659TIP3   OH253391   0.789   3.978  16.214  0.0750  0.3690 -0.0087
10659TIP3    H153392   0.869   4.007  16.259  0.3915 -1.4454  0.6475
10659TIP3    H253393   0.717   4.013  16.266  0.4337  1.2263 -0.0803
10660TIP3   OH253394   5.111   3.110  13.619  0.8934 -0.4488  0.2182
10660TIP3    H153395   5.100   3.153  13.704 -0.3283 -1.1403  0.4133
10660TIP3    H253396   5.191   3.058  13.629  0.1685 -1.3908  1.3256
10661TIP3   OH253397   1.943   0.855  15.822  0.5493  0.0930  0.3300
10661TIP3    H153398   1.950   0.922  15.889  2.4236 -0.0600  0.3098
10661TIP3    H253399   1.969   0.898  15.741 -0.7017  0.0040 -0.1273
10662TIP3   OH253400   1.154   5.815   2.514  0.4854  0.1321  0.3054
10662TIP3    H153401   1.156   5.910   2.527  0.7053  0.0416  0.9632
10662TIP3    H253402   1.083   5.785   2.571  1.1370 -0.2181  0.9342
10663TIP3   OH253403   1.448   0.871   1.421 -0.6437 -0.0363 -0.1908
10663TIP3    H153404   1.450   0.841   1.330 -0.9472 -0.5310 -0.0362
10663TIP3    H253405   1.536   0.903   1.438  0.5907 -3.6739  0.5869
10664TIP3   OH253406   1.867   4.826  15.062 -0.0358  0.2131  0.1657
10664TIP3    H153407   1.856   4.920  15.075  2.4904  0.5878 -0.0880
10664TIP3    H253408   1.863   4.789  15.150  0.8042  0.7946  0.4538
10665TIP3   OH253409   6.761   3.091   1.487  0.6602 -0.4709  0.2823
10665TIP3    H153410   6.696   3.097   1.557 -0.3773  1.1814 -0.7811
10665TIP3    H253411   6.825   3.160   1.508  0.7318 -0.4507 -0.0031
10666TIP3   OH253412   3.983   3.271   5.520 -0.6918  0.2965  0.8243
10666TIP3    H153413   4.061   3.296   5.471 -1.0810  0.4382  0.2797
10666TIP3    H253414   4.013   3.201   5.578 -0.1081  0.5092  0.7813
10667TIP3   OH253415   6.283   1.550  14.739  0.2598 -0.2659  0.2348
10667TIP3    H153416   6.256   1.630  14.784  1.8827  0.2208  0.3620
10667TIP3    H253417   6.243   1.479  14.790 -1.3461  0.4397  0.0169
10668TIP3   OH253418   2.039   3.246   0.399 -1.0591 -0.2000  0.6223
10668TIP3    H153419   1.979   3.282   0.334  0.6319  1.6350  0.0383
10668TIP3    H253420   1.998   3.266   0.483 -0.4721  2.5814  0.2909
10669TIP3   OH253421   4.309   4.013  15.782  0.3697 -0.8421  0.1646
10669TIP3    H153422   4.269   4.014  15.869  1.2818 -1.3627  0.5966
10669TIP3    H253423   4.393   4.057  15.794  1.4106 -2.7477  0.0132
10670TIP3   OH253424   4.533   4.557   0.765 -0.5620 -0.6783 -0.1672
10670TIP3    H153425   4.455   4.612   0.754 -1.3236 -0.8217  3.6794
10670TIP3    H253426   4.583   4.600   0.835  0.4265 -3.1194  0.6957
10671TIP3   OH253427   1.055   5.436   2.091  0.0163  0.1390  0.4830
10671TIP3    H153428   1.095   5.390   2.017  0.3363 -0.0304  0.7613
10671TIP3    H253429   0.973   5.471   2.056 -0.3946 -0.9278  0.3614
10672TIP3   OH253430   2.282   2.589   0.323 -0.7160 -0.2495 -0.1327
10672TIP3    H153431   2.243   2.552   0.402 -2.4019 -0.3003 -0.9674
10672TIP3    H253432   2.252   2.532   0.252 -0.4403  0.6461 -0.9813
10673TIP3   OH253433   4.607   1.353   2.024  0.0399 -0.6311  0.1640
10673TIP3    H153434   4.630   1.303   1.946  0.6126 -0.4256  0.1930
10673TIP3    H253435   4.554   1.293   2.077 -0.0471 -0.8902 -0.2180
10674TIP3   OH253436   3.312   4.206   5.471  0.2110 -0.6719 -0.7386
10674TIP3    H153437   3.253   4.170   5.405  0.5560 -2.4731 -0.1026
10674TIP3    H253438   3.346   4.129   5.518  1.6670  0.4307  0.0848
10675TIP3   OH253439   5.188   2.464   5.872  0.4326  0.3365 -0.1757
10675TIP3    H153440   5.110   2.521   5.871 -0.5807 -1.0071  0.8031
10675TIP3    H253441   5.200   2.441   5.964  0.2225 -1.8425 -0.6694
10676TIP3   OH253442   1.085   1.089  15.067 -0.0728  0.0243  0.1405
10676TIP3    H153443   1.087   0.999  15.035 -0.0726  0.1692 -0.2753
10676TIP3    H253444   1.074   1.142  14.988  0.2827  0.4068  0.3423
10677TIP3   OH253445   0.435   2.659   3.706 -0.1923  0.7786 -0.5952
10677TIP3    H153446   0.487   2.600   3.652  0.5399 -2.1341  3.0521
10677TIP3    H253447   0.498   2.695   3.769 -1.7270  0.7633  0.9926
10678TIP3   OH253448   1.534   1.194   5.532 -0.3697  0.4148  0.0264
10678TIP3    H153449   1.446   1.222   5.554 -0.3259  1.1198 -0.6824
10678TIP3    H253450   1.591   1.254   5.580 -0.2769  0.2701  0.0975
10679TIP3   OH253451   6.399   4.314   0.721  0.3212  1.0559 -0.4263
10679TIP3    H153452   6.385   4.272   0.806 -2.0839  2.4703 -0.0792
10679TIP3    H253453   6.411   4.241   0.660 -0.9005 -0.0773  0.6505
10680TIP3   OH253454   1.450   2.185  16.967  0.1903 -0.0215 -0.1237
10680TIP3    H153455   1.539   2.152  16.949 -0.4170 -1.4212 -0.6263
10680TIP3    H253456   1.454   2.278  16.947  1.3882 -0.1981 -0.7400
10681TIP3   OH253457   2.881   5.547   2.243  0.0952  0.3305 -0.3871
10681TIP3    H153458   2.929   5.530   2.324 -0.7423  1.3108  0.3372
10681TIP3    H253459   2.910   5.635   2.217  1.6517 -0.6623 -2.0978
10682TIP3   OH253460   3.263   6.103   1.500  0.5528 -0.2598 -0.1933
10682TIP3    H153461   3.218   6.030   1.544  0.5879  0.2801  0.7644
10682TIP3    H253462   3.209   6.123   1.424  0.1833 -0.8496 -0.0841
10683TIP3   OH253463   1.750   6.380   2.764 -0.0710  0.0639  0.2570
10683TIP3    H153464   1.731   6.452   2.824  0.5101 -0.7627  1.4590
10683TIP3    H253465   1.698   6.307   2.796 -0.4343 -0.1395 -0.7841
10684TIP3   OH253466   4.706   4.136   1.803 -0.1645 -0.2099 -0.0159
10684TIP3    H153467   4.734   4.080   1.876  0.0135 -0.4037 -0.2332
10684TIP3    H253468   4.634   4.088   1.762  0.7259 -0.8138 -0.8911
10685TIP3   OH253469   1.062   2.488   1.320  0.4019  0.2914  0.4120
10685TIP3    H153470   1.125   2.416   1.328  0.4035  0.3669  1.0467
10685TIP3    H253471   1.111   2.557   1.276  0.9696  0.5951  1.5102
10686TIP3   OH253472   0.489   3.733   0.267  0.1082  0.0869 -0.1361
10686TIP3    H153473   0.411   3.787   0.268 -0.8451 -1.2718  0.0868
10686TIP3    H253474   0.487   3.689   0.182 -0.0582 -0.9316  0.3924
10687TIP3   OH253475   0.395   1.886  12.446 -0.1137  0.3857 -0.1685
10687TIP3    H153476   0.439   1.921  12.368  1.5555 -0.1865  0.5124
10687TIP3    H253477   0.396   1.959  12.508 -0.2882  0.4188 -0.2020
10688TIP3   OH253478   6.093   6.697  10.490 -0.4895 -0.1508 -0.1307
10688TIP3    H153479   6.054   6.774  10.532 -1.6080  0.0726 -1.5441
10688TIP3    H253480   6.054   6.695  10.402 -0.0436 -2.0193 -0.3017
10689TIP3   OH253481   6.510   6.619   1.773  0.2038  0.5768  0.1200
10689TIP3    H153482   6.420   6.585   1.780  0.5747 -0.5963 -0.6238
10689TIP3    H253483   6.532   6.608   1.680  1.3291  0.3176  0.4138
10690TIP3   OH253484   6.113   6.220   6.390  0.1647 -0.6850 -0.1653
10690TIP3    H153485   6.114   6.200   6.484  1.2392  0.1392  0.0029
10690TIP3    H253486   6.203   6.204   6.362  0.1452  0.2964 -0.7981
10691TIP3   OH253487   4.313   1.601   0.899 -0.1068 -0.2658  0.4387
10691TIP3    H153488   4.287   1.630   0.812 -0.3641 -2.2660 -0.1546
10691TIP3    H253489   4.255   1.528   0.919 -0.7870  0.8487  2.7449
10692TIP3   OH253490   5.388   6.227  13.889 -0.2140  0.0723 -0.1079
10692TIP3    H153491   5.457   6.251  13.951  1.3569 -2.4468 -0.8199
10692TIP3    H253492   5.317   6.193  13.944  0.4762 -0.5157  0.4251
10693TIP3   OH253493   4.406   4.861  15.312 -0.1867 -0.0234 -0.7451
10693TIP3    H153494   4.463   4.862  15.389 -1.7842 -0.0530  0.4740
10693TIP3    H253495   4.382   4.952  15.298 -0.2236 -0.0658 -0.9504
10694TIP3   OH253496   3.995   3.332   3.708  0.3175  0.4438 -0.3980
10694TIP3    H153497   4.024   3.274   3.638 -2.8348 -0.4026 -1.0877
10694TIP3    H253498   3.958   3.274   3.774 -3.3679  1.5962 -1.3211
10695TIP3   OH253499   0.463   2.942  13.910  0.5413  0.0603 -0.1667
10695TIP3    H153500   0.374   2.913  13.891  0.4629  0.7168 -0.7969
10695TIP3    H253501   0.502   2.869  13.958 -0.4370 -0.0965  0.3953
10696TIP3   OH253502   2.092   2.828   1.748  0.4314  0.0784 -0.3731
10696TIP3    H153503   2.131   2.744   1.725  1.4199 -0.1568  1.9772
10696TIP3    H253504   2.022   2.806   1.810  0.0310  0.8995 -0.5316
10697TIP3   OH253505   1.056   2.967   6.421  0.3795 -0.1605 -0.4877
10697TIP3    H153506   1.125   3.020   6.381 -0.7178 -0.0273 -2.2810
10697TIP3    H253507   1.007   2.931   6.346  0.0761 -2.3363  0.7245
10698TIP3   OH253508   2.086   0.283  13.164  0.6874 -0.0134 -0.1141
10698TIP3    H153509   2.095   0.304  13.256  0.2029 -1.0466  0.1773
10698TIP3    H253510   2.036   0.201  13.162  1.6632 -0.6086 -1.2398
10699TIP3   OH253511   0.502   2.061  17.004  0.2281 -0.0344 -0.2055
10699TIP3    H153512   0.597   2.071  17.016  0.1183  0.2293  0.4660
10699TIP3    H253513   0.482   2.117  16.929  0.6634 -0.4106 -0.6113
10700TIP3   OH253514   0.555   2.439   5.411  0.4520  0.2171  0.5041
10700TIP3    H153515   0.598   2.436   5.497 -0.0258 -0.3831  0.7312
10700TIP3    H253516   0.463   2.423   5.431 -0.0477  2.4572  0.1293
10701TIP3   OH253517   5.039   1.491  13.276 -0.5296 -0.4197 -0.0318
10701TIP3    H153518   5.011   1.504  13.366 -1.0233  0.9958 -0.3759
10701TIP3    H253519   5.115   1.434  13.283 -0.9285 -0.8094  1.2335
10702TIP3   OH253520   4.645   3.879   2.806  0.3515 -0.0118 -0.4185
10702TIP3    H153521   4.733   3.852   2.833  0.5107  0.7951 -0.1010
10702TIP3    H253522   4.625   3.823   2.731  2.0793  1.3189 -1.9453
10703TIP3   OH253523   3.738   0.350   1.153  0.0991  0.2630  0.1054
10703TIP3    H153524   3.703   0.310   1.233 -1.8147  0.8229 -0.4262
10703TIP3    H253525   3.789   0.280   1.112  1.7814  0.2074  2.2011
10704TIP3   OH253526   4.060   5.444  12.312 -0.1753 -0.3111  0.6940
10704TIP3    H153527   4.140   5.414  12.355  0.8499  0.7040 -0.4604
10704TIP3    H253528   4.066   5.539  12.313 -0.6036 -0.2445 -0.7782
10705TIP3   OH253529   4.320   5.757   5.099  0.0061  0.4672  0.9438
10705TIP3    H153530   4.383   5.793   5.037 -0.7420 -0.9011 -0.6643
10705TIP3    H253531   4.242   5.811   5.088 -0.7016 -0.8441 -0.5695
10706TIP3   OH253532   4.454   2.552   0.677  0.2473  0.3596  0.3905
10706TIP3    H153533   4.505   2.472   0.686 -0.7897 -0.4743 -0.8336
10706TIP3    H253534   4.518   2.623   0.676  1.0637 -0.3110  3.0923
10707TIP3   OH253535   1.455   5.192  14.162 -0.0695 -0.2745  0.0306
10707TIP3    H153536   1.547   5.210  14.183 -0.4182  1.1123  0.4447
10707TIP3    H253537   1.450   5.205  14.067  0.3080 -1.0431 -0.0977
10708TIP3   OH253538   6.078   1.152  16.696 -0.2290 -0.4404 -0.4140
10708TIP3    H153539   6.122   1.200  16.767 -0.8742  0.6045 -0.7135
10708TIP3    H253540   5.985   1.155  16.719 -0.5642  0.8513 -1.8594
10709TIP3   OH253541   5.796   3.565  16.972 -0.6696 -0.4757  0.3224
10709TIP3    H153542   5.784   3.649  17.017 -0.4250  0.7084 -1.7532
10709TIP3    H253543   5.860   3.518  17.025  0.3282  1.2815  0.7232
10710TIP3   OH253544   2.150   3.674  12.706  0.3974 -0.3864 -0.2077
10710TIP3    H153545   2.181   3.589  12.737  0.0746 -0.3528  0.2115
10710TIP3    H253546   2.200   3.738  12.757  0.8637 -0.3225 -0.7419
10711TIP3   OH253547   5.832   1.164   6.375 -0.3420  0.3547 -0.7532
10711TIP3    H153548   5.809   1.076   6.404 -0.8554 -0.0759 -2.4098
10711TIP3    H253549   5.922   1.156   6.342  0.3803  0.9255  1.0364
10712TIP3   OH253550   5.766   1.254   4.404 -0.1484 -0.4294 -0.1740
10712TIP3    H153551   5.675   1.225   4.402 -0.1253 -0.4619 -1.0536
10712TIP3    H253552   5.766   1.328   4.465 -0.2316 -2.1562  1.9828
10713TIP3   OH253553   2.408   3.009   3.911 -0.3950  0.2586  0.1562
10713TIP3    H153554   2.389   3.092   3.867 -2.1337  0.9453  2.1345
10713TIP3    H253555   2.374   2.943   3.851  0.6698  0.9642 -1.2677
10714TIP3   OH253556   0.066   0.175  17.207 -0.1172  1.0527  0.1718
10714TIP3    H153557  -0.014   0.129  17.181 -0.0914  1.1200 -0.0296
10714TIP3    H253558   0.039   0.266  17.218  0.3816  1.5260 -2.1114
10715TIP3   OH253559   0.819   4.215   0.705  0.0948  0.0808  0.1245
10715TIP3    H153560   0.796   4.172   0.787  2.8390 -0.6306  0.5733
10715TIP3    H253561   0.894   4.164   0.672  0.4450  1.7265 -1.6662
10716TIP3   OH253562   3.880   6.449   6.350 -0.4349  1.0378  0.2077
10716TIP3    H153563   3.927   6.383   6.402 -0.5265  1.2457  0.5569
10716TIP3    H253564   3.944   6.478   6.285 -1.0075 -0.8185 -1.2266
10717TIP3   OH253565   6.520   5.362  15.433 -0.1166  0.3303  0.4116
10717TIP3    H153566   6.558   5.346  15.346 -0.7997  1.4194 -0.1011
10717TIP3    H253567   6.488   5.276  15.462 -2.6691  0.4851 -1.7602
10718TIP3   OH253568   1.373   0.026   5.796 -0.9935  0.3215  0.4481
10718TIP3    H153569   1.452   0.031   5.741 -1.1485 -2.2218 -0.0667
10718TIP3    H253570   1.399   0.067   5.878  0.7616 -0.1119  0.1426
10719TIP3   OH253571   3.059   1.110  10.673 -0.0816 -0.6825  0.1254
10719TIP3    H153572   3.040   1.137  10.763  2.1987 -1.5819  0.9175
10719TIP3    H253573   3.154   1.100  10.671 -0.1380 -0.9236 -2.3286
10720TIP3   OH253574   5.495   0.228  15.365  0.1867 -0.1077 -0.4337
10720TIP3    H153575   5.588   0.214  15.347  0.6945 -0.0548  1.9793
10720TIP3    H253576   5.466   0.146  15.404 -0.5077  0.2742 -0.1404
10721TIP3   OH253577   5.844   4.423   4.479 -0.0121  0.0394 -0.0960
10721TIP3    H153578   5.776   4.487   4.460 -0.8295 -0.9969 -0.7312
10721TIP3    H253579   5.885   4.405   4.395  0.1373 -0.3531  0.0566
10722TIP3   OH253580   1.946   2.340   5.792 -0.0249 -0.3627 -0.2260
10722TIP3    H153581   1.913   2.305   5.710  0.5941 -1.6010  0.0381
10722TIP3    H253582   2.013   2.277   5.820 -0.1790  0.0724  1.1785
10723TIP3   OH253583   1.970   1.592  16.662 -0.2311 -0.1296  0.1219
10723TIP3    H153584   1.981   1.575  16.568  0.0366 -0.0160  0.1329
10723TIP3    H253585   1.918   1.673  16.665 -1.3106 -0.8098  0.0696
10724TIP3   OH253586   3.669   5.096   5.324  0.0430 -0.1077  0.8391
10724TIP3    H153587   3.665   5.097   5.420  1.6047  3.1200  0.9346
10724TIP3    H253588   3.737   5.160   5.302 -1.5425  0.5471 -2.4872
10725TIP3   OH253589   5.405   6.752  12.841  0.8506 -0.8804  0.5551
10725TIP3    H153590   5.334   6.807  12.807  0.5521 -0.8706  1.2023
10725TIP3    H253591   5.386   6.742  12.934  1.0981 -1.7837  0.5159
10726TIP3   OH253592   4.003   4.666   5.521 -0.2206  0.2075 -0.4397
10726TIP3    H153593   3.963   4.588   5.559 -0.3143  1.3687  1.9433
10726TIP3    H253594   4.095   4.663   5.549 -0.2055  0.9033 -0.3963
10727TIP3   OH253595   1.477   3.127  11.344  0.3398  0.4685  0.2640
10727TIP3    H153596   1.539   3.140  11.415 -0.2179  0.6088  0.7296
10727TIP3    H253597   1.524   3.155  11.265  0.8417  0.6285  0.6156
10728TIP3   OH253598   1.038   1.249  12.895 -0.7202 -0.4475  0.7426
10728TIP3    H153599   0.949   1.266  12.926 -0.1363  0.4803  1.9667
10728TIP3    H253600   1.058   1.322  12.837 -1.7948 -2.1589 -1.8959
10729TIP3   OH253601   1.877   2.550  12.499  0.4321 -0.0740  0.2309
10729TIP3    H153602   1.969   2.544  12.523  0.2671  0.5444  1.0872
10729TIP3    H253603   1.840   2.464  12.522  0.5394  0.1001  1.0959
10730TIP3   OH253604   5.687   0.491   3.546  0.4684  0.6819 -0.5212
10730TIP3    H153605   5.739   0.565   3.515  1.4092  1.1855  2.1153
10730TIP3    H253606   5.680   0.505   3.641 -0.6230 -1.8058 -0.1968
10731TIP3   OH253607   6.171   6.000  15.803  0.6190 -0.4736  0.2213
10731TIP3    H153608   6.150   6.023  15.713  0.7890 -0.0505  0.2915
10731TIP3    H253609   6.189   5.906  15.800  2.5348 -0.0940 -0.5238
10732TIP3   OH253610   0.454   2.970  16.995 -0.3601 -0.1085  0.0484
10732TIP3    H153611   0.422   2.991  17.083  0.6206 -1.3947  0.7364
10732TIP3    H253612   0.531   2.915  17.011  0.3020  0.3273 -1.6140
10733TIP3   OH253613   2.865   2.893   5.625 -0.2246 -0.0671  0.5264
10733TIP3    H153614   2.783   2.860   5.660  0.3122 -0.9535  0.9791
10733TIP3    H253615   2.885   2.970   5.678  0.2798 -1.0565  1.7782
10734TIP3   OH253616   4.299   6.273   3.247  0.2967 -0.0987 -0.4711
10734TIP3    H153617   4.287   6.208   3.317 -1.6299  0.1621 -0.5433
10734TIP3    H253618   4.229   6.254   3.185  0.2000  1.5587 -0.8817
10735TIP3   OH253619   4.176   2.277  12.018 -0.1513 -0.1468 -0.0961
10735TIP3    H153620   4.099   2.233  12.052 -0.0655  0.6311  1.1180
10735TIP3    H253621   4.143   2.333  11.948 -0.6819  0.1703  0.4124
10736TIP3   OH253622   3.824   2.292  11.983  0.4244 -0.0365 -0.2346
10736TIP3    H153623   3.882   2.237  11.931 -1.9448 -1.5717 -1.3389
10736TIP3    H253624   3.753   2.234  12.009 -0.0239  1.4987  2.1290
10737TIP3   OH253625   5.187   1.940  15.148 -0.3962 -0.5027  0.3241
10737TIP3    H153626   5.254   1.962  15.082  0.3586  0.4501  1.3896
10737TIP3    H253627   5.138   1.868  15.109  0.1399 -0.0519 -1.2296
10738TIP3   OH253628   0.831   6.363   1.699 -0.4336 -0.6137 -0.2915
10738TIP3    H153629   0.844   6.454   1.729 -0.5689 -0.4232 -0.8038
10738TIP3    H253630   0.829   6.311   1.779 -0.4119 -0.1536  0.0085
10739TIP3   OH253631   1.668   6.482  13.624  0.0859  0.7455  0.1849
10739TIP3    H153632   1.663   6.450  13.715 -2.0899  1.4021  0.3266
10739TIP3    H253633   1.692   6.405  13.573 -0.1661  0.0322  1.1281
10740TIP3   OH253634   0.900   1.128  16.522 -0.0901  0.0932  0.4921
10740TIP3    H153635   0.812   1.094  16.539  0.3515 -1.5898 -0.5608
10740TIP3    H253636   0.887   1.194  16.454 -0.8420  1.5630  2.0188
10741TIP3   OH253637   0.180   3.346   4.065  0.5413 -0.1104  0.6136
10741TIP3    H153638   0.102   3.328   4.012  1.5613  0.0789 -0.9935
10741TIP3    H253639   0.178   3.280   4.135 -0.6650 -0.5662  0.1570
10742TIP3   OH253640   6.193   4.011   3.854 -0.1687 -0.2945  0.1672
10742TIP3    H153641   6.263   3.965   3.806  0.8404  0.5676  0.7955
10742TIP3    H253642   6.210   3.992   3.946 -1.4441 -1.0100  0.2702
10743TIP3   OH253643   2.078   6.349   1.128 -0.3234  0.3299 -0.1245
10743TIP3    H153644   2.126   6.357   1.211  0.8944  1.2433 -0.9005
10743TIP3    H253645   2.133   6.293   1.074 -1.7587 -1.3567  0.1335
10744TIP3   OH253646   4.314   3.341  12.937  0.2365  0.2152  0.3540
10744TIP3    H153647   4.260   3.283  12.883  0.5205  1.6781 -1.5503
10744TIP3    H253648   4.383   3.372  12.878  0.8100  1.5253  1.6737
10745TIP3   OH253649   5.957   1.454  14.891  0.3034  0.0953  0.0967
10745TIP3    H153650   5.888   1.508  14.851 -0.2082  0.6022  1.6252
10745TIP3    H253651   5.915   1.368  14.902  0.3880  0.0033 -0.2832
10746TIP3   OH253652   1.869   6.402  16.179 -0.4609  0.3526 -0.4222
10746TIP3    H153653   1.822   6.417  16.096  1.8231  0.2355 -1.7780
10746TIP3    H253654   1.901   6.312  16.171  0.5328  0.6532  0.2009
10747TIP3   OH253655   1.507   2.732   2.103 -0.2717  0.0755  0.5806
10747TIP3    H153656   1.547   2.819   2.104  0.1639 -0.1052 -0.3160
10747TIP3    H253657   1.413   2.748   2.106 -0.1739  0.5424  1.4218
10748TIP3   OH253658   4.694   2.256   5.589 -0.0091  0.2149 -0.4743
10748TIP3    H153659   4.740   2.173   5.605 -0.9826  0.1947  2.6722
10748TIP3    H253660   4.729   2.316   5.655 -2.4739  0.9833  0.2027
10749TIP3   OH253661   5.950   1.976  11.972 -0.1126 -0.2982 -0.0007
10749TIP3    H153662   6.009   1.971  12.047 -0.1093 -0.6018 -0.0233
10749TIP3    H253663   5.908   1.890  11.969 -0.2828 -0.2067 -0.2065
10750TIP3   OH253664   4.538   1.152   0.792 -0.1525 -0.0086  0.5037
10750TIP3    H153665   4.550   1.221   0.857 -0.8428 -1.4113  2.1631
10750TIP3    H253666   4.443   1.148   0.780  0.0525  1.4361 -1.9565
10751TIP3   OH253667   2.225   3.295   1.163 -0.6997 -0.0095 -0.7905
10751TIP3    H153668   2.238   3.390   1.163 -3.2696  0.3897 -0.9467
10751TIP3    H253669   2.309   3.259   1.188  0.2625  2.3308 -0.5382
10752TIP3   OH253670   1.902   2.062  11.421  0.4944 -0.0692 -0.7459
10752TIP3    H153671   1.957   2.088  11.347  0.1976  0.7820 -0.6670
10752TIP3    H253672   1.881   1.970  11.403  2.0983 -0.4700 -0.6756
10753TIP3   OH253673   5.404   2.426  13.390 -0.2063  0.0515 -0.1062
10753TIP3    H153674   5.413   2.389  13.302 -1.3762  1.0192 -0.6500
10753TIP3    H253675   5.375   2.516  13.375 -1.3257 -0.0607  1.2808
10754TIP3   OH253676   5.357   3.093   3.839  0.3311 -0.3085 -0.6713
10754TIP3    H153677   5.307   3.015   3.814  0.0058  0.0167 -1.0162
10754TIP3    H253678   5.368   3.084   3.934 -3.5105  1.4372  0.0499
10755TIP3   OH253679   2.477   2.867  14.308 -0.6849  0.7933  0.1332
10755TIP3    H153680   2.559   2.822  14.328 -1.5087 -0.4354  0.7628
10755TIP3    H253681   2.459   2.920  14.386 -0.3098  1.3452 -0.1497
10756TIP3   OH253682   1.054   4.169   4.328 -0.0280  0.3357  0.0859
10756TIP3    H153683   0.978   4.178   4.270  1.3591 -0.0407 -1.8284
10756TIP3    H253684   1.065   4.075   4.341 -0.7317  0.4359  1.5347
10757TIP3   OH253685   6.418   0.601   5.197 -0.3737 -0.0540  0.2736
10757TIP3    H153686   6.390   0.545   5.268  1.1263 -1.0349  0.1246
10757TIP3    H253687   6.460   0.676   5.240  0.4556 -0.6038  0.4212
10758TIP3   OH253688   2.978   0.551  11.233  0.7072  0.6321  0.1686
10758TIP3    H153689   2.883   0.564  11.231  0.5627 -0.4920 -0.6208
10758TIP3    H253690   3.013   0.621  11.178  0.4545  1.9873  1.7111
10759TIP3   OH253691   0.253   2.941  15.010 -0.0326 -0.2449  0.1253
10759TIP3    H153692   0.260   2.939  15.105  0.9765  0.9320  0.0948
10759TIP3    H253693   0.240   3.033  14.989 -0.9549 -0.5913 -0.8375
10760TIP3   OH253694   2.760   6.679   0.650  0.7996  0.2418 -0.5076
10760TIP3    H153695   2.816   6.755   0.634 -0.2068  0.8297 -1.2456
10760TIP3    H253696   2.722   6.696   0.737  0.6516  0.5393 -0.6290
10761TIP3   OH253697   1.445   1.162  16.524  0.5255 -0.4779  0.0981
10761TIP3    H153698   1.454   1.192  16.433  0.1055  0.7209  0.4457
10761TIP3    H253699   1.485   1.075  16.524 -1.6869 -1.5640 -1.7994
10762TIP3   OH253700   6.715   5.703   2.413  0.1556  0.3941  0.2941
10762TIP3    H153701   6.800   5.692   2.455 -0.0693  0.1427  0.6890
10762TIP3    H253702   6.734   5.749   2.331  0.8134 -0.7886 -0.2201
10763TIP3   OH253703   0.525   6.503  12.768  0.0940  0.3183 -0.2490
10763TIP3    H153704   0.578   6.554  12.829  0.5542  0.9760 -1.1797
10763TIP3    H253705   0.457   6.464  12.822  2.5735 -2.0344  1.2922
10764TIP3   OH253706   5.282   1.114  12.528 -0.2136  0.0502 -0.0804
10764TIP3    H153707   5.299   1.159  12.446 -2.2879  0.5343 -0.2788
10764TIP3    H253708   5.345   1.152  12.590  0.9881  0.0610 -1.3043
10765TIP3   OH253709   0.205   4.647   5.033 -0.1197 -0.1880  0.3085
10765TIP3    H153710   0.192   4.740   5.050  1.8520  0.3236 -0.8438
10765TIP3    H253711   0.236   4.643   4.942  1.3634 -1.8292  0.8612
10766TIP3   OH253712   2.074   6.327  16.741  0.2398 -0.1446  0.2903
10766TIP3    H153713   1.981   6.319  16.761  0.5971  0.9928  2.5181
10766TIP3    H253714   2.101   6.238  16.718 -1.2358 -0.6156  0.3088
10767TIP3   OH253715   2.231   5.289   3.833  0.2708 -0.2346  0.5300
10767TIP3    H153716   2.168   5.222   3.860 -0.2520  0.5969  1.4256
10767TIP3    H253717   2.312   5.265   3.878  0.0490 -0.2045  0.9532
10768TIP3   OH253718   1.265   2.160   3.220  0.1136  0.8047 -0.2929
10768TIP3    H153719   1.335   2.095   3.220  1.4489  2.1944 -2.1398
10768TIP3    H253720   1.206   2.132   3.150  0.5659  1.4047 -0.9307
10769TIP3   OH253721   1.970   1.901   5.666  0.1574 -0.2934  0.1338
10769TIP3    H153722   1.913   1.845   5.614 -0.4497  1.1173 -0.7553
10769TIP3    H253723   2.052   1.852   5.675 -0.9805 -2.1132  0.9638
10770TIP3   OH253724   0.418   0.874  16.726  0.2618 -0.0996 -0.6431
10770TIP3    H153725   0.387   0.810  16.791  2.6389 -0.9214 -0.2675
10770TIP3    H253726   0.342   0.930  16.709 -1.1107 -1.4180  0.9778
10771TIP3   OH253727   3.863   3.024  10.695 -0.2853 -0.4270  0.0740
10771TIP3    H153728   3.925   3.083  10.738  1.4068 -0.7001 -1.9265
10771TIP3    H253729   3.782   3.074  10.690  1.1121  1.7724 -1.5481
10772TIP3   OH253730   3.847   5.539  11.794  0.0968 -0.4428 -0.0481
10772TIP3    H153731   3.818   5.494  11.715 -1.2229 -2.0744  1.3538
10772TIP3    H253732   3.875   5.470  11.854 -2.0243  0.5226  2.1597
10773TIP3   OH253733   4.301   1.827  13.998  0.3892 -0.8305 -0.2832
10773TIP3    H153734   4.256   1.884  14.060 -0.0588 -1.2863 -0.1854
10773TIP3    H253735   4.234   1.763  13.972  0.6046 -0.6986 -1.1570
10774TIP3   OH253736   6.089   3.587  11.544  0.1189  0.4515 -0.3952
10774TIP3    H153737   6.079   3.569  11.450  1.7558 -2.0361 -0.1154
10774TIP3    H253738   6.114   3.679  11.548 -2.0246  1.1733 -2.2597
10775TIP3   OH253739   5.178   2.852  14.168  0.7650 -0.4520 -0.4624
10775TIP3    H153740   5.164   2.877  14.076  0.4571  3.1550  0.4755
10775TIP3    H253741   5.090   2.832  14.200  0.8386 -1.4546 -0.8790
10776TIP3   OH253742   2.209   0.317  13.950 -0.3501  0.5701 -0.5089
10776TIP3    H153743   2.223   0.222  13.942 -1.8453  0.3307 -0.3650
10776TIP3    H253744   2.287   0.356  13.909  0.3821 -0.7146 -0.3768
10777TIP3   OH253745   5.335   3.881  14.714 -0.7847 -0.2676  0.2920
10777TIP3    H153746   5.424   3.848  14.723 -0.8248 -0.4618 -0.0185
10777TIP3    H253747   5.336   3.934  14.634 -0.2409  2.1008  1.8394
10778TIP3   OH253748   5.912   5.056  12.812  0.3746  0.3437 -0.1654
10778TIP3    H153749   5.884   4.967  12.835 -0.4741  0.5813 -0.2654
10778TIP3    H253750   6.001   5.063  12.847  0.7237 -0.7986 -0.8143
10779TIP3   OH253751   1.028   5.508   5.365  0.4490  0.4424 -0.1384
10779TIP3    H153752   1.096   5.529   5.429  0.2918 -0.1359  0.2189
10779TIP3    H253753   1.050   5.421   5.333  0.1130  0.4239 -0.3274
10780TIP3   OH253754   6.196   6.159  10.988  0.0989 -0.2795 -0.0491
10780TIP3    H153755   6.221   6.202  10.906  0.6479  1.1406  0.8525
10780TIP3    H253756   6.102   6.173  10.994  0.5023  2.2393  1.0283
10781TIP3   OH253757   0.460   4.574   2.117  0.1407  0.0882  0.4857
10781TIP3    H153758   0.491   4.601   2.031  1.9800 -0.9915  0.7813
10781TIP3    H253759   0.365   4.574   2.109  0.3057 -1.1775 -1.9199
10782TIP3   OH253760   5.512   3.488   6.366  0.0568  0.6417 -0.1810
10782TIP3    H153761   5.479   3.407   6.328 -1.1462  0.2618  1.5805
10782TIP3    H253762   5.467   3.557   6.317 -0.9025  0.1795  0.0376
10783TIP3   OH253763   4.914   6.079  12.726  0.4288 -0.2531  0.2740
10783TIP3    H153764   4.852   6.145  12.756  1.3508  0.7716 -0.0627
10783TIP3    H253765   4.906   6.079  12.631 -0.3374 -1.3946  0.3255
10784TIP3   OH253766   5.136   3.986   5.500 -0.1092 -0.0993 -0.0915
10784TIP3    H153767   5.071   4.041   5.457 -0.5490 -0.3565  0.2382
10784TIP3    H253768   5.198   3.963   5.431 -0.1048  0.5424 -0.2999
10785TIP3   OH253769   5.077   1.026  13.046  0.3908 -0.0684 -0.0533
10785TIP3    H153770   5.035   1.112  13.046  2.3420  0.9121 -0.5338
10785TIP3    H253771   5.005   0.964  13.034 -0.9662  1.5307 -0.3184
10786TIP3   OH253772   5.621   1.191   0.636  0.2688 -0.1521  0.2159
10786TIP3    H153773   5.645   1.115   0.582 -1.0671 -1.0369  0.8309
10786TIP3    H253774   5.526   1.182   0.648  0.3464  0.7942  1.5489
10787TIP3   OH253775   1.158   4.887  14.828 -0.1541 -0.7296 -0.4547
10787TIP3    H153776   1.110   4.836  14.894 -1.0036 -1.3426 -1.5271
10787TIP3    H253777   1.097   4.955  14.801  1.2530  1.4078  1.5375
10788TIP3   OH253778   0.386   0.900  12.031  0.4365  0.6277 -0.0110
10788TIP3    H153779   0.431   0.902  11.946  0.5473  0.7605  0.0494
10788TIP3    H253780   0.431   0.967  12.083  1.6864 -0.8035  0.8091
10789TIP3   OH253781   4.193   5.592   2.897  0.3050  0.2928 -0.1263
10789TIP3    H153782   4.252   5.666   2.917  1.9292 -1.4215  1.6938
10789TIP3    H253783   4.118   5.605   2.956  1.3587 -0.3693  1.4067
10790TIP3   OH253784   1.625   5.338   0.417  0.7580 -0.3178  0.1479
10790TIP3    H153785   1.624   5.414   0.475  0.0415  0.0198 -0.2937
10790TIP3    H253786   1.680   5.274   0.461  0.8075  0.2076  0.8510
10791TIP3   OH253787   2.127   0.325   4.131  0.3730 -0.8166 -0.5279
10791TIP3    H153788   2.180   0.299   4.207 -0.9724 -0.2270  0.6415
10791TIP3    H253789   2.140   0.254   4.068  2.5031 -0.7107 -0.2521
10792TIP3   OH253790   4.403   4.148   4.710 -0.8572  0.4187 -0.1098
10792TIP3    H153791   4.330   4.093   4.681 -1.2707 -0.1086  1.8632
10792TIP3    H253792   4.401   4.141   4.805  0.1320  2.5248  0.0815
10793TIP3   OH253793   4.119   1.674  16.847  0.3477  0.0891  0.5834
10793TIP3    H153794   4.178   1.739  16.810  1.4410 -0.9946  0.4024
10793TIP3    H253795   4.111   1.698  16.939  1.1084  0.2126  0.6192
10794TIP3   OH253796   4.176   6.657   1.051 -0.5298  0.2324  0.2100
10794TIP3    H153797   4.174   6.622   0.962  1.1900  0.7411 -0.0472
10794TIP3    H253798   4.103   6.719   1.054 -0.6910  0.0973 -0.7885
10795TIP3   OH253799   2.053   4.212  15.587 -0.6497  0.0706 -0.6201
10795TIP3    H153800   1.980   4.151  15.578  1.3953 -2.5807  0.1029
10795TIP3    H253801   2.033   4.262  15.667 -1.6605 -0.6246 -0.4312
10796TIP3   OH253802   1.800   3.893   1.835  0.3984 -0.2081 -0.0119
10796TIP3    H153803   1.718   3.929   1.803  0.4020  1.8741  2.1965
10796TIP3    H253804   1.774   3.820   1.892  0.1783 -0.5387 -0.5295
10797TIP3   OH253805   2.796   5.624  12.252 -0.1974  0.2904  0.3945
10797TIP3    H153806   2.710   5.665  12.264  0.5536  1.3192  2.3386
10797TIP3    H253807   2.829   5.664  12.171 -1.1369  0.5726  0.1315
10798TIP3   OH253808   2.724   6.383   0.736  0.5390  0.2483 -0.0560
10798TIP3    H153809   2.761   6.431   0.662 -0.5764  0.7389 -0.3117
10798TIP3    H253810   2.629   6.386   0.721  0.3862 -0.8207  0.6754
10799TIP3   OH253811   5.810   1.526  15.620  0.4305  0.6836 -0.3633
10799TIP3    H153812   5.905   1.521  15.614  0.3713  0.5602 -1.3493
10799TIP3    H253813   5.781   1.546  15.531 -0.6276 -2.2945 -0.7675
10800TIP3   OH253814   4.239   4.745  13.233  0.5488 -0.4827  0.6233
10800TIP3    H153815   4.254   4.800  13.310  1.1873  0.1662  0.0365
10800TIP3    H253816   4.161   4.783  13.192 -0.2525 -1.2974  1.3609
10801TIP3   OH253817   4.960   2.363  17.038 -0.1589  0.2831  0.2187
10801TIP3    H153818   5.032   2.376  17.100  0.0009 -0.4972  0.2130
10801TIP3    H253819   4.964   2.269  17.017 -1.1367  0.2510  0.1620
10802TIP3   OH253820   1.475   4.593   0.497 -0.3323 -0.2880  0.0601
10802TIP3    H153821   1.539   4.637   0.441  0.2156 -0.0658  0.8545
10802TIP3    H253822   1.511   4.600   0.585 -0.6392 -1.6307  0.3026
10803TIP3   OH253823   3.967   0.477   4.106  0.5344 -0.0796 -0.1534
10803TIP3    H153824   3.882   0.438   4.083 -0.3848  1.5257  0.4271
10803TIP3    H253825   4.027   0.444   4.039 -0.8016 -0.3156 -1.2661
10804TIP3   OH253826   5.616   0.062  12.700  0.0074 -1.3355  0.2048
10804TIP3    H153827   5.695   0.048  12.752 -0.2794 -1.8602  0.4963
10804TIP3    H253828   5.547   0.019  12.749 -0.8124  0.7398  0.9368
10805TIP3   OH253829   5.500   6.680   5.229  0.7216  0.1995  0.1589
10805TIP3    H153830   5.503   6.669   5.324  0.5071  0.6765  0.2211
10805TIP3    H253831   5.415   6.644   5.204 -0.7416  3.1641  0.5662
10806TIP3   OH253832   0.390   3.469   2.171  0.2818 -0.3297 -0.5493
10806TIP3    H153833   0.356   3.462   2.082 -0.4646  0.8698 -0.3825
10806TIP3    H253834   0.482   3.492   2.160  0.5447 -1.5632 -1.0064
10807TIP3   OH253835   4.913   2.100  16.988 -0.3997 -0.2497  0.0277
10807TIP3    H153836   4.976   2.028  16.996 -0.5947 -0.3941  0.2802
10807TIP3    H253837   4.834   2.067  17.031 -0.8835 -0.3487 -0.9144
10808TIP3   OH253838   6.141   2.107  16.237  0.3686 -0.5931  0.2454
10808TIP3    H153839   6.110   2.094  16.147  1.0445 -2.3257  0.2298
10808TIP3    H253840   6.094   2.041  16.288 -1.5670  1.7220  1.5693
10809TIP3   OH253841   2.004   5.622  13.006  0.3771 -0.3298 -0.2199
10809TIP3    H153842   2.059   5.655  13.077 -0.1382 -0.7444  0.3624
10809TIP3    H253843   2.065   5.576  12.948  1.2574  2.2171 -1.4322
10810TIP3   OH253844   5.287   1.183  17.047 -0.0892 -0.0204 -0.0509
10810TIP3    H153845   5.362   1.130  17.072 -1.4864 -1.4108  1.3654
10810TIP3    H253846   5.262   1.229  17.128  0.6361  2.2302 -1.0685
10811TIP3   OH253847   2.855   5.124  17.134 -0.0963 -0.3021  0.0047
10811TIP3    H153848   2.778   5.084  17.094  0.2834  0.4712 -1.5476
10811TIP3    H253849   2.918   5.052  17.139 -1.2732 -1.2155  2.3252
10812TIP3   OH253850   2.751   2.511   1.820  0.4160  0.3987 -0.8230
10812TIP3    H153851   2.698   2.584   1.853 -0.2801  0.3767 -1.8571
10812TIP3    H253852   2.835   2.520   1.865  0.8180  2.6770 -1.9439
10813TIP3   OH253853   2.625   1.676  11.574 -0.2580 -0.6191  0.1238
10813TIP3    H153854   2.712   1.715  11.571 -0.8572  0.6528 -2.4565
10813TIP3    H253855   2.640   1.582  11.566  0.9830 -0.6222  2.1884
10814TIP3   OH253856   4.450   0.397   4.698  0.3368 -0.3699 -0.1552
10814TIP3    H153857   4.537   0.429   4.671  0.2077 -0.0059 -0.1334
10814TIP3    H253858   4.389   0.446   4.643  0.1116 -0.2135  0.2408
10815TIP3   OH253859   3.545   6.380  15.299  0.5666  0.4098  0.1649
10815TIP3    H153860   3.512   6.437  15.369  0.0388 -0.4151  0.5960
10815TIP3    H253861   3.542   6.434  15.221 -1.1270  0.5915  0.3348
10816TIP3   OH253862   6.603   4.900   3.841 -0.1815 -0.4770 -0.5495
10816TIP3    H153863   6.600   4.995   3.849 -0.9176 -0.3773 -1.7488
10816TIP3    H253864   6.665   4.884   3.769 -0.5598 -0.8628 -0.7946
10817TIP3   OH253865   1.727   2.589  17.069  0.3529 -0.4842  0.5780
10817TIP3    H153866   1.746   2.495  17.076 -1.3794 -0.9352 -0.4498
10817TIP3    H253867   1.692   2.600  16.981 -0.4183  0.9661  1.0503
10818TIP3   OH253868   6.208   4.021  16.193  0.0106  0.0077  0.6861
10818TIP3    H153869   6.242   3.937  16.163 -0.2175 -0.0214  0.5070
10818TIP3    H253870   6.166   4.001  16.277 -0.0923 -0.0679  0.6146
10819TIP3   OH253871   3.242   1.161   0.084 -0.4017  0.1413 -0.1678
10819TIP3    H153872   3.279   1.082   0.044 -1.9987 -0.5837 -0.2996
10819TIP3    H253873   3.288   1.171   0.166 -0.8623 -1.5340  0.3142
10820TIP3   OH253874   1.098   2.419   1.935 -0.0582 -0.2890 -0.0289
10820TIP3    H153875   1.033   2.458   1.993 -0.3919 -0.0921 -0.5333
10820TIP3    H253876   1.047   2.367   1.873  0.3486 -1.0973  0.3040
10821TIP3   OH253877   5.257   4.829   5.193 -0.7491  0.1201  0.2429
10821TIP3    H153878   5.327   4.811   5.130 -0.1580  1.7644  0.4130
10821TIP3    H253879   5.201   4.752   5.189  1.1599 -1.3080  0.2290
10822TIP3   OH253880   3.161   1.554  10.938  0.6924 -0.0732 -0.4577
10822TIP3    H153881   3.112   1.511  10.868 -0.6561  1.8400 -0.6936
10822TIP3    H253882   3.186   1.639  10.902 -0.0074  0.9364  1.3747
10823TIP3   OH253883   1.295   0.046   1.852 -0.1599 -0.0013 -0.1361
10823TIP3    H153884   1.219   0.029   1.908 -0.6258 -0.8883 -1.0192
10823TIP3    H253885   1.263   0.109   1.787  0.7576  2.0759  1.3910
10824TIP3   OH253886   1.292   1.350   5.799  0.3412 -0.2979  0.1212
10824TIP3    H153887   1.283   1.327   5.707  1.3420 -0.2934  0.0181
10824TIP3    H253888   1.215   1.404   5.819  0.8118  0.8078 -1.0462
10825TIP3   OH253889   1.858   5.612  16.459  0.4922 -0.1421 -0.2592
10825TIP3    H153890   1.945   5.614  16.420  0.6948 -0.2298  0.1982
10825TIP3    H253891   1.802   5.575  16.390  0.6187  0.9373 -0.9416
10826TIP3   OH253892   3.771   2.254  11.663  0.3274 -0.0817  0.1056
10826TIP3    H153893   3.750   2.271  11.571 -1.1225 -1.1062  0.2223
10826TIP3    H253894   3.685   2.241  11.705  1.0804 -1.9941  1.1031
10827TIP3   OH253895   0.824   5.991   4.948 -1.1278  0.0993  0.3558
10827TIP3    H153896   0.859   5.902   4.942 -1.5042 -0.0089 -0.2725
10827TIP3    H253897   0.808   6.005   5.042  0.6143  0.1583  0.6549
10828TIP3   OH253898   2.236   5.699  12.636  0.2551 -0.2231 -0.0402
10828TIP3    H153899   2.285   5.657  12.707  1.6668  0.6458 -0.4614
10828TIP3    H253900   2.295   5.769  12.605 -0.8971  0.2666 -1.1643
10829TIP3   OH253901   0.899   0.959  13.599  0.4383 -0.1831 -0.3202
10829TIP3    H153902   0.852   0.894  13.651 -0.5321  0.6644 -0.1255
10829TIP3    H253903   0.944   0.907  13.532 -1.4580 -0.9548 -1.0298
10830TIP3   OH253904   4.788   5.360   5.557 -0.0786 -0.1179 -0.0158
10830TIP3    H153905   4.803   5.269   5.531  2.2166  0.7365 -1.8910
10830TIP3    H253906   4.709   5.386   5.510  0.5355 -0.4730 -1.2563
10831TIP3   OH253907   4.896   2.741  12.567 -0.2038 -0.0727 -0.1133
10831TIP3    H153908   4.908   2.684  12.643 -0.2219 -0.5663 -0.4780
10831TIP3    H253909   4.866   2.683  12.498  1.1320  0.1310 -0.8837
10832TIP3   OH253910   4.002   3.324  14.874 -0.2838 -0.1164  0.2924
10832TIP3    H153911   4.024   3.333  14.966 -1.2625 -0.5604  0.5747
10832TIP3    H253912   3.940   3.395  14.857  0.0507  0.0894 -0.0738
10833TIP3   OH253913   5.245   1.584   2.612  0.0362  0.0371  0.5937
10833TIP3    H153914   5.308   1.612   2.678  1.3306 -1.5454  0.0532
10833TIP3    H253915   5.268   1.493   2.594 -1.3970 -0.0708 -0.7951
10834TIP3   OH253916   1.454   0.996  14.204 -0.2369  0.1407 -0.6502
10834TIP3    H153917   1.432   1.037  14.287  0.6420  0.9740 -0.8238
10834TIP3    H253918   1.462   0.902  14.224 -2.4331 -0.0060 -0.2894
10835TIP3   OH253919   4.639   3.252   0.872  0.3707 -0.1458 -0.4923
10835TIP3    H153920   4.633   3.322   0.936 -1.4566  0.3607 -1.1852
10835TIP3    H253921   4.683   3.291   0.797 -0.9931  0.3855 -1.0255
10836TIP3   OH253922   4.024   2.852   5.760  0.0097  0.5693  0.2329
10836TIP3    H153923   4.040   2.762   5.732 -1.7048  0.2213  0.3068
10836TIP3    H253924   4.004   2.844   5.854  0.4613  1.0890  0.3678
10837TIP3   OH253925   1.703   0.004   1.309 -0.4316  0.2190  0.4687
10837TIP3    H153926   1.650   0.062   1.255 -0.9922 -0.2188  0.5338
10837TIP3    H253927   1.639  -0.055   1.350 -0.0877  0.9257  2.0843
10838TIP3   OH253928   0.405   4.066  13.099  0.0816  0.2438  0.6233
10838TIP3    H153929   0.421   4.154  13.064 -2.3788  0.3207 -0.4399
10838TIP3    H253930   0.435   4.007  13.030  3.5756  0.1508  2.1415
10839TIP3   OH253931   2.866   2.909  15.419 -0.0420 -0.0920 -0.1199
10839TIP3    H153932   2.915   2.979  15.376 -2.4854  1.0781 -1.1637
10839TIP3    H253933   2.904   2.828  15.386  1.9812  0.7583  0.1023
10840TIP3   OH253934   1.630   1.629   4.070 -0.0414 -0.3887 -0.2619
10840TIP3    H153935   1.687   1.706   4.061 -1.0455  0.4838  0.6316
10840TIP3    H253936   1.685   1.562   4.109  0.2187  0.6566  1.1908
10841TIP3   OH253937   1.888   6.446   0.955 -0.1633 -0.3322  0.1073
10841TIP3    H153938   1.966   6.460   1.009  0.3878 -2.4073 -0.1124
10841TIP3    H253939   1.819   6.494   1.000  0.3756 -1.6540  2.4230
10842TIP3   OH253940   0.560   3.715   5.037 -0.4214  0.1755  0.1177
10842TIP3    H153941   0.476   3.676   5.010  0.9805 -1.9981 -1.2777
10842TIP3    H253942   0.578   3.780   4.970  0.7226 -1.8853 -1.6423
10843TIP3   OH253943   0.180   2.706  14.876  0.0022 -0.1942 -0.5240
10843TIP3    H153944   0.238   2.765  14.925  0.8347 -0.8385 -0.7295
10843TIP3    H253945   0.215   2.706  14.787 -1.0223  0.3348 -0.9433
10844TIP3   OH253946   2.837   4.816  11.445 -0.0810 -0.1466 -0.1498
10844TIP3    H153947   2.802   4.810  11.356 -1.0591 -0.2697  0.2324
10844TIP3    H253948   2.781   4.881  11.488  0.0516 -0.4720  0.5207
10845TIP3   OH253949   3.684   6.117  16.456  0.1794  0.5202  0.3746
10845TIP3    H153950   3.656   6.059  16.527  0.0871 -1.2625 -1.0985
10845TIP3    H253951   3.636   6.086  16.379  0.9357  1.8851 -0.6706
10846TIP3   OH253952   0.529   1.086  11.625 -0.1828  0.4168 -0.2108
10846TIP3    H153953   0.616   1.079  11.664 -1.1937  0.7796  2.1847
10846TIP3    H253954   0.519   1.180  11.608 -0.0043  0.3382 -0.7669
10847TIP3   OH253955   1.590   0.400   2.227 -0.1608 -1.1433 -0.2325
10847TIP3    H153956   1.554   0.337   2.165  0.9812 -2.3682  0.3442
10847TIP3    H253957   1.662   0.442   2.180 -1.5802  0.5395 -0.9980
10848TIP3   OH253958   0.880   2.210   1.828 -0.2314  0.6731  0.3388
10848TIP3    H153959   0.840   2.290   1.862 -0.3881 -0.0667  1.9458
10848TIP3    H253960   0.905   2.161   1.906 -4.5141 -3.0731 -0.4887
10849TIP3   OH253961   4.157   3.862   0.909  0.1527 -0.0595  0.0817
10849TIP3    H153962   4.150   3.948   0.950  1.1146  0.4587 -0.8198
10849TIP3    H253963   4.136   3.801   0.980  3.0588  0.7625  1.7728
10850TIP3   OH253964   6.175   2.973  14.664  0.4159 -0.7629 -0.1933
10850TIP3    H153965   6.239   2.917  14.708  1.5500  1.5581  1.1932
10850TIP3    H253966   6.192   2.961  14.571  1.4053 -1.8293  0.1121
10851TIP3   OH253967   6.439   1.147  14.211  0.2566 -0.0128  0.4905
10851TIP3    H153968   6.409   1.103  14.132 -0.0954  0.2237  0.4885
10851TIP3    H253969   6.467   1.234  14.182  3.7416 -1.2308  0.0161
10852TIP3   OH253970   3.043   1.597   4.323  0.0828  0.1671  0.2833
10852TIP3    H153971   3.008   1.618   4.236 -0.1207  0.2765  0.3911
10852TIP3    H253972   2.975   1.627   4.383 -0.3792 -1.1168  0.4232
10853TIP3   OH253973   5.345   2.189  11.759  0.1964  0.3153  0.1418
10853TIP3    H153974   5.421   2.247  11.767 -0.5252  1.1188  1.3603
10853TIP3    H253975   5.286   2.218  11.829 -0.6360 -1.1977  0.0712
10854TIP3   OH253976   0.432   0.886   1.332  0.2613  0.2416  0.2450
10854TIP3    H153977   0.398   0.975   1.327  0.6063  0.6424  3.6488
10854TIP3    H253978   0.504   0.891   1.395  1.6131 -2.0677 -1.0358
10855TIP3   OH253979   0.349   3.287  11.682 -0.6796 -0.1661  0.2766
10855TIP3    H153980   0.417   3.220  11.678 -1.0216 -0.6398  1.9273
10855TIP3    H253981   0.376   3.344  11.754  0.8782  2.9221 -2.6337
10856TIP3   OH253982   6.655   3.104  17.152  0.0636 -0.0782  0.3822
10856TIP3    H153983   6.639   3.124  17.060  0.6578  0.4673  0.3897
10856TIP3    H253984   6.593   3.158  17.200 -0.1725 -0.2813  0.3039
10857TIP3   OH253985   0.429   0.005   1.807 -0.2238 -0.0729  0.0500
10857TIP3    H153986   0.360  -0.024   1.747  0.1246  0.0210 -0.3900
10857TIP3    H253987   0.461  -0.076   1.847 -1.3462 -0.0316  1.0852
10858TIP3   OH253988   5.176   0.347   3.595 -0.3069  0.0362  0.3072
10858TIP3    H153989   5.240   0.407   3.557  1.0845 -1.8472 -0.3367
10858TIP3    H253990   5.124   0.316   3.521 -1.2832  0.7095  0.6912
10859TIP3   OH253991   6.646   6.558   2.726  0.5849  0.0759  0.3995
10859TIP3    H153992   6.730   6.590   2.758  1.5993  0.2116 -2.3200
10859TIP3    H253993   6.626   6.614   2.651 -1.8864 -0.0318  0.9439
10860TIP3   OH253994   6.633   3.247   3.169 -0.0558 -0.1869 -0.3729
10860TIP3    H153995   6.727   3.252   3.154 -0.2055  0.7578 -1.0198
10860TIP3    H253996   6.609   3.158   3.144  0.8004 -0.6943  0.5931
10861TIP3   OH253997   3.738   3.099   3.389  0.7868  0.0705 -0.1660
10861TIP3    H153998   3.824   3.127   3.358  0.9542  0.0256  0.2469
10861TIP3    H253999   3.753   3.010   3.422  0.4206 -0.2221 -0.7865
10862TIP3   OH254000   5.032   2.158  15.024  0.6423 -0.2806  0.3750
10862TIP3    H154001   5.113   2.109  15.005  1.2083  0.1140  1.6821
10862TIP3    H254002   5.002   2.122  15.108  0.0824  0.3627  0.4498
10863TIP3   OH254003   6.268   4.768  11.371  0.0298  0.3166 -1.0054
10863TIP3    H154004   6.306   4.843  11.416 -0.7216  0.8133 -1.1884
10863TIP3    H254005   6.194   4.742  11.425  0.9122 -0.9664 -0.3826
10864TIP3   OH254006   4.810   1.517   2.708  0.0362  0.0824  0.1009
10864TIP3    H154007   4.739   1.478   2.657  0.5714 -0.1609 -0.4722
10864TIP3    H254008   4.786   1.501   2.799 -0.5928 -0.0838 -0.0891
10865TIP3   OH254009   5.390   2.538  11.118 -0.3943 -0.2701 -0.8192
10865TIP3    H154010   5.342   2.571  11.041 -0.9663  0.0255 -0.3394
10865TIP3    H254011   5.336   2.565  11.193  1.0118  0.9160 -0.2086
10866TIP3   OH254012   4.738   2.098  11.273  0.1564  0.2361  0.0163
10866TIP3    H154013   4.677   2.041  11.227  0.3424 -0.3573  0.5045
10866TIP3    H254014   4.785   2.041  11.333  0.3173  0.9083  0.5395
10867TIP3   OH254015   1.568   2.343   2.872  0.2550 -0.4289  0.3429
10867TIP3    H154016   1.548   2.365   2.963  0.3665 -0.8324  0.4666
10867TIP3    H254017   1.509   2.398   2.820 -0.4098 -0.8215  0.6801
10868TIP3   OH254018   2.548   1.595  11.020  0.2191  0.3247  0.8774
10868TIP3    H154019   2.484   1.666  11.017  0.3443  0.3787 -1.0163
10868TIP3    H254020   2.620   1.631  11.073  0.2285  1.5737  0.0427
10869TIP3   OH254021   5.225   2.973  13.238  0.8755 -0.2840  0.0692
10869TIP3    H154022   5.183   3.057  13.218 -0.8441 -1.2233 -0.3321
10869TIP3    H254023   5.199   2.916  13.166 -2.0668 -2.5812  2.8265
10870TIP3   OH254024   3.446   6.055  14.561  0.1699 -0.6684  0.2227
10870TIP3    H154025   3.483   6.059  14.649  0.4947 -0.0102  0.0574
10870TIP3    H254026   3.352   6.068  14.574  0.1828 -0.8160  0.4888
10871TIP3   OH254027   1.899   5.391  14.972 -0.0523 -0.1857 -0.0072
10871TIP3    H154028   1.931   5.455  15.036  0.2709 -1.3240  0.9738
10871TIP3    H254029   1.963   5.395  14.900  0.3188  0.1183  0.3366
10872TIP3   OH254030   5.913   1.661  16.148 -0.0999  0.1733 -0.6692
10872TIP3    H154031   5.868   1.725  16.203 -0.0974 -0.2298 -0.1928
10872TIP3    H254032   5.909   1.579  16.198 -0.1877 -0.2186 -1.3149
10873TIP3   OH254033   2.312   4.894   2.973  0.0530 -0.0119  0.1195
10873TIP3    H154034   2.255   4.968   2.954  0.4870  0.4261  0.5010
10873TIP3    H254035   2.254   4.830   3.015 -0.3833 -0.0084 -0.4705
10874TIP3   OH254036   6.044   0.255  15.056  0.2584 -0.3079  0.0748
10874TIP3    H154037   6.071   0.301  15.136  1.1833  0.4812 -0.6825
10874TIP3    H254038   5.991   0.182  15.088  1.1709 -0.3921  1.4626
10875TIP3   OH254039   4.170   4.470   5.896 -0.3733  0.0298 -0.4251
10875TIP3    H154040   4.252   4.490   5.849 -0.6888 -1.4888 -1.6869
10875TIP3    H254041   4.169   4.530   5.970  2.1395 -0.2391 -0.1127
10876TIP3   OH254042   2.373   2.173  13.033 -0.0497 -0.7362 -0.2928
10876TIP3    H154043   2.428   2.095  13.029 -2.3395 -2.4043 -0.1281
10876TIP3    H254044   2.435   2.246  13.032  2.0983 -2.5176 -1.2871
10877TIP3   OH254045   5.810   2.331  13.083  0.4468  0.8521  0.1895
10877TIP3    H154046   5.872   2.389  13.128 -0.5892  2.1161  0.0261
10877TIP3    H254047   5.807   2.365  12.994  2.0909 -1.3215 -0.7354
10878TIP3   OH254048   3.124   6.689   1.014  0.1061  0.2439 -0.3028
10878TIP3    H154049   3.135   6.715   0.923 -0.0434 -2.0319 -1.0189
10878TIP3    H254050   3.046   6.632   1.013 -1.8259  2.7341  1.8105
10879TIP3   OH254051   4.783   1.150  12.005 -0.1375  0.3395  0.0858
10879TIP3    H154052   4.800   1.088  11.933 -1.3231 -0.3231  0.3503
10879TIP3    H254053   4.752   1.094  12.077  0.1451  1.0977  0.7968
10880TIP3   OH254054   1.163   4.849   1.202  0.3162  0.0913 -0.0858
10880TIP3    H154055   1.230   4.784   1.226  0.3882 -0.1406 -0.9266
10880TIP3    H254056   1.209   4.933   1.209  0.4345  0.0010  0.2571
10881TIP3   OH254057   4.331   3.293   5.804 -0.2418  0.0134  0.3001
10881TIP3    H154058   4.242   3.300   5.770  0.2550 -0.6359 -1.1972
10881TIP3    H254059   4.327   3.332   5.891 -1.6874  1.1949 -0.2762
10882TIP3   OH254060   0.704   5.251   3.148  0.2697 -0.8387  0.2801
10882TIP3    H154061   0.721   5.188   3.078 -0.4279  0.0089 -0.6675
10882TIP3    H254062   0.780   5.308   3.147 -0.2568 -0.1324 -0.5686
10883TIP3   OH254063   4.594   3.602  15.695  0.1928  0.2292  0.0976
10883TIP3    H154064   4.623   3.562  15.613  1.0562  1.1348 -0.0366
10883TIP3    H254065   4.534   3.672  15.668  0.8855  0.8692  0.2138
10884TIP3   OH254066   4.498   4.026   1.079  0.2551  0.4445 -0.2360
10884TIP3    H154067   4.592   4.041   1.084 -0.1131  2.2780  1.8551
10884TIP3    H254068   4.486   3.939   1.115  1.2635 -0.3825 -1.8201
10885TIP3   OH254069   2.012   2.197   6.583  0.0084  0.3471 -0.7432
10885TIP3    H154070   2.088   2.150   6.618 -0.2331  1.3743  1.1982
10885TIP3    H254071   2.050   2.270   6.534  0.2947  0.4809 -0.3251
10886TIP3   OH254072   1.034   6.083  16.137  0.9507  0.3748 -0.2012
10886TIP3    H154073   0.970   6.129  16.192  0.8370  0.3412 -0.3031
10886TIP3    H254074   1.118   6.122  16.159  1.0440 -0.3250  0.7366
10887TIP3   OH254075   3.206   0.192   3.456 -0.3876 -0.2837  0.0698
10887TIP3    H154076   3.149   0.267   3.442 -2.8132 -2.2982 -1.2617
10887TIP3    H254077   3.292   0.230   3.475 -1.2863  2.7864 -1.7605
10888TIP3   OH254078   2.876   4.772  15.051  0.0657 -0.4861 -0.1851
10888TIP3    H154079   2.964   4.738  15.033  0.5747  0.8989 -0.4018
10888TIP3    H254080   2.824   4.745  14.975  0.7152  0.0791 -0.8457
10889TIP3   OH254081   4.273   6.447  16.025  0.3140  0.0095  0.1906
10889TIP3    H154082   4.252   6.464  15.933 -0.3404 -0.6075  0.2268
10889TIP3    H254083   4.338   6.377  16.022  0.0425 -0.2455  0.2091
10890TIP3   OH254084   5.810   1.775   5.559 -0.1343  0.3654 -0.0145
10890TIP3    H154085   5.897   1.744   5.537 -0.3898 -0.5186  0.2258
10890TIP3    H254086   5.767   1.788   5.474  0.2985  1.0195 -0.1392
10891TIP3   OH254087   1.545   5.594  13.024  0.7577 -0.5028 -0.1409
10891TIP3    H154088   1.591   5.569  13.104  0.3582  1.2912  0.6628
10891TIP3    H254089   1.478   5.655  13.053 -0.2702 -0.8877 -1.6830
10892TIP3   OH254090   6.186   3.586  14.142 -0.2044  0.2406 -0.8202
10892TIP3    H154091   6.269   3.550  14.172  0.0580  1.7676  0.3716
10892TIP3    H254092   6.121   3.549  14.202 -0.1450  0.4995 -0.5968
10893TIP3   OH254093   5.994   5.338   1.459  0.8658 -0.2262 -0.1516
10893TIP3    H154094   5.901   5.344   1.482  0.9501  1.5518 -0.1464
10893TIP3    H254095   6.008   5.246   1.439 -0.7211 -0.6623  0.6108
10894TIP3   OH254096   1.655   3.251  13.551  0.1743 -0.6303  0.1166
10894TIP3    H154097   1.652   3.225  13.643 -0.1553  1.9439  0.8535
10894TIP3    H254098   1.563   3.249  13.523 -0.0174  1.2227  0.6030
10895TIP3   OH254099   6.186   0.501   6.149  0.3016 -0.8706 -0.1127
10895TIP3    H154100   6.185   0.590   6.184  2.8794 -1.1138  0.6404
10895TIP3    H254101   6.093   0.477   6.143 -0.3615  1.1345  1.5150
10896TIP3   OH254102   1.677   2.457  12.991  0.1446 -0.1913 -0.3490
10896TIP3    H154103   1.649   2.419  13.074 -0.5461  0.7522 -0.1387
10896TIP3    H254104   1.748   2.400  12.961  0.4572 -0.4925  0.9312
10897TIP3   OH254105   1.723   6.439   0.312 -0.1362  0.6407  0.4020
10897TIP3    H154106   1.798   6.465   0.259 -0.9685  1.4577 -0.4049
10897TIP3    H254107   1.740   6.348   0.337  0.2231  0.2168 -1.3534
10898TIP3   OH254108   5.329   5.891   0.788  0.2225  0.0624  0.4159
10898TIP3    H154109   5.269   5.930   0.724  1.1212 -0.3348 -0.6895
10898TIP3    H254110   5.398   5.957   0.798 -0.6569  0.7512  2.0931
10899TIP3   OH254111   3.382   6.306  12.526 -0.4146  0.2193  0.6737
10899TIP3    H154112   3.443   6.308  12.451 -0.7856 -0.5383  0.3488
10899TIP3    H254113   3.438   6.317  12.602  0.0540  0.2751  0.3286
10900TIP3   OH254114   2.970   2.765   0.161 -0.1204 -0.0743 -0.3058
10900TIP3    H154115   2.891   2.716   0.136 -0.7326  0.2075  1.0368
10900TIP3    H254116   3.022   2.769   0.080 -1.4111 -0.3892 -1.1732
10901TIP3   OH254117   4.427   4.286   2.752 -0.1288 -0.0239 -0.1317
10901TIP3    H154118   4.372   4.344   2.804 -0.1205 -0.6148  0.5434
10901TIP3    H254119   4.372   4.210   2.733 -0.4744  0.6188 -1.8660
10902TIP3   OH254120   4.965   5.159   5.227  0.1217  0.1413  0.0245
10902TIP3    H154121   5.058   5.165   5.205  0.3949 -2.1156  0.4756
10902TIP3    H254122   4.963   5.162   5.322 -0.3974  1.4443 -0.0129
10903TIP3   OH254123   1.248   1.058  15.854 -0.2229 -0.0798  0.1508
10903TIP3    H154124   1.175   1.052  15.915  1.0749 -1.0949  1.6470
10903TIP3    H254125   1.239   1.144  15.814 -1.5980  0.2468  1.1367
10904TIP3   OH254126   6.704   2.235  15.905  0.6411  0.2161 -0.2941
10904TIP3    H154127   6.664   2.281  15.832 -0.1367  0.4871  0.3017
10904TIP3    H254128   6.647   2.252  15.979  0.9007 -0.8530  0.1649
10905TIP3   OH254129   6.716   5.225  17.093 -0.3896 -0.0012 -0.3939
10905TIP3    H154130   6.719   5.130  17.078  0.0202  0.1409 -1.3285
10905TIP3    H254131   6.794   5.258  17.048  0.5338  0.5711  1.5749
10906TIP3   OH254132   6.369   2.834   2.944 -0.3851  0.1697  0.1765
10906TIP3    H154133   6.375   2.818   2.850 -0.1055  1.7649 -0.0934
10906TIP3    H254134   6.338   2.752   2.981 -3.5117  0.4494 -1.6536
10907TIP3   OH254135   2.489   4.115   0.066  0.1251  0.0044  0.2337
10907TIP3    H154136   2.480   4.028   0.026  3.2170 -0.2608 -0.0604
10907TIP3    H254137   2.510   4.173  -0.007 -0.8423  0.8011  0.5790
10908TIP3   OH254138   2.397   0.670   5.754 -0.1455  0.2999 -0.0887
10908TIP3    H154139   2.432   0.588   5.718 -0.3160  0.0285  0.3507
10908TIP3    H254140   2.435   0.739   5.699 -2.4316 -0.2224 -2.3966
10909TIP3   OH254141   3.581   3.163   4.320  0.1518  0.8259 -0.2397
10909TIP3    H154142   3.581   3.077   4.362 -0.3985  1.1545  0.4508
10909TIP3    H254143   3.531   3.219   4.380  0.4163  1.6015 -0.7322
10910TIP3   OH254144   5.354   0.043   0.665 -0.2837  0.3708 -0.0336
10910TIP3    H154145   5.314   0.127   0.688 -1.7145 -0.4941  0.6820
10910TIP3    H254146   5.430   0.036   0.723  0.4074  1.5968 -0.7628
10911TIP3   OH254147   0.185   3.743   2.807  0.2703 -0.0305  0.8237
10911TIP3    H154148   0.237   3.795   2.744 -0.7414  0.4047  0.3401
10911TIP3    H254149   0.203   3.652   2.783  0.4615  0.1221  0.3644
10912TIP3   OH254150   0.670   6.756  16.147  0.0742 -0.0539 -0.5177
10912TIP3    H154151   0.698   6.777  16.058 -1.5008  0.7415 -0.8406
10912TIP3    H254152   0.748   6.769  16.201  1.0937 -0.7681 -1.8102
10913TIP3   OH254153   5.048   1.793  14.927 -0.6269  1.0856 -0.4369
10913TIP3    H154154   5.030   1.855  14.856 -2.7108  1.3440  0.2681
10913TIP3    H254155   5.133   1.755  14.906 -0.6054  2.1646 -2.3497
10914TIP3   OH254156   0.558   3.966  12.033  0.0939 -0.3914 -0.4842
10914TIP3    H154157   0.626   3.961  12.100 -0.4735 -0.2900  0.1044
10914TIP3    H254158   0.512   4.047  12.052  0.6774  0.2652 -1.7304
10915TIP3   OH254159   0.358   0.606   2.284  0.2577 -0.5145 -0.3352
10915TIP3    H154160   0.442   0.616   2.330  0.1682 -1.1714 -0.0253
10915TIP3    H254161   0.345   0.511   2.278 -0.7635 -0.4070  0.1573
10916TIP3   OH254162   3.292   4.082   3.010 -0.1267 -0.0193 -0.1555
10916TIP3    H154163   3.289   3.990   3.037 -2.0117  0.2752  0.7146
10916TIP3    H254164   3.266   4.081   2.918  0.1515 -0.3963 -0.2282
10917TIP3   OH254165   0.308   0.811   2.493 -0.3669 -0.7559 -0.6592
10917TIP3    H154166   0.309   0.752   2.417  0.3428 -1.1048 -0.3841
10917TIP3    H254167   0.401   0.829   2.510 -0.3191 -3.3778  2.2381
10918TIP3   OH254168   5.995   4.304   0.657 -0.0026  0.4773  0.1220
10918TIP3    H154169   6.050   4.227   0.669 -2.1583 -0.9209  1.0889
10918TIP3    H254170   5.980   4.308   0.562  0.7886  0.2065 -0.0199
10919TIP3   OH254171   1.222   6.243  13.103 -0.9542  0.1215  0.6724
10919TIP3    H154172   1.216   6.155  13.140 -1.0729 -0.8190 -1.5293
10919TIP3    H254173   1.133   6.265  13.076 -0.3663 -0.3916 -1.7159
10920TIP3   OH254174   2.685   5.601   0.785  0.1080  0.0267 -0.0443
10920TIP3    H154175   2.636   5.586   0.866  0.8667  2.6634  0.9507
10920TIP3    H254176   2.772   5.626   0.814  0.1939  1.6793 -1.6556
10921TIP3   OH254177   4.485   3.435  10.738  0.2871 -0.0258 -0.4967
10921TIP3    H154178   4.479   3.371  10.667 -0.2754  1.4485 -1.7966
10921TIP3    H254179   4.579   3.440  10.757  0.2562 -2.0032  0.3588
10922TIP3   OH254180   0.594   2.966  14.169 -0.7227  0.5164  0.4380
10922TIP3    H154181   0.640   2.946  14.251  1.6765 -2.4666 -1.5459
10922TIP3    H254182   0.638   3.043  14.135  0.1091  0.1011  0.5741
10923TIP3   OH254183   1.674   3.099   4.085 -0.2858  0.2566  0.2583
10923TIP3    H154184   1.690   3.062   4.171  1.3211  1.1803  0.3820
10923TIP3    H254185   1.584   3.073   4.063 -0.0103 -1.6488  1.3394
10924TIP3   OH254186   5.225   5.243  12.482 -0.1316  0.0255 -0.0054
10924TIP3    H154187   5.242   5.303  12.409  1.6574  0.3132  0.6041
10924TIP3    H254188   5.182   5.298  12.548 -0.5429  0.0985 -0.3384
10925TIP3   OH254189   2.856   0.571   5.167  0.3868  0.5119 -0.4338
10925TIP3    H154190   2.765   0.579   5.139  0.3518 -0.9196 -0.7703
10925TIP3    H254191   2.905   0.620   5.102  0.2418 -2.2724 -2.7577
10926TIP3   OH254192   1.443   3.193   3.017  0.7321 -0.0118  0.7803
10926TIP3    H154193   1.396   3.194   3.100 -0.0738 -0.1218  0.3337
10926TIP3    H254194   1.518   3.250   3.031 -0.2288  1.2000  1.1249
10927TIP3   OH254195   0.296   1.736  17.082 -0.2588  0.3113 -0.6443
10927TIP3    H154196   0.347   1.675  17.030  1.4945  1.5280 -0.3763
10927TIP3    H254197   0.247   1.787  17.017 -0.5033 -0.2935 -0.9432
10928TIP3   OH254198   5.046   4.796  10.701 -0.1521  0.1241  0.7757
10928TIP3    H154199   5.002   4.866  10.749  1.2499  0.2438  1.9164
10928TIP3    H254200   5.020   4.810  10.610 -0.4554  1.7047  1.0870
10929TIP3   OH254201   1.928   1.672   1.491  0.5015 -0.6199  0.4822
10929TIP3    H154202   1.960   1.599   1.543  2.1067  0.5036  1.0984
10929TIP3    H254203   1.973   1.748   1.526 -1.6372  0.7852  0.2937
10930TIP3   OH254204   0.550   1.218  13.959  0.1081  0.0162  1.1491
10930TIP3    H154205   0.472   1.265  13.931  0.1457 -0.2272  0.6426
10930TIP3    H254206   0.617   1.285  13.966 -0.2403  0.2878  1.9541
10931TIP3   OH254207   0.809   3.485  15.365 -0.4137  0.3448  0.4178
10931TIP3    H154208   0.874   3.519  15.427  0.4480 -0.1949 -0.1682
10931TIP3    H254209   0.833   3.525  15.281  0.1390 -1.0810 -0.1280
10932TIP3   OH254210   2.978   3.134  16.894 -0.3438  0.3431 -0.5778
10932TIP3    H154211   2.917   3.071  16.855 -0.0797  0.5595 -1.3501
10932TIP3    H254212   3.028   3.084  16.958 -1.2867  0.1485  0.0161
10933TIP3   OH254213   4.376   5.873   2.246 -0.7821 -0.3424  0.2100
10933TIP3    H154214   4.331   5.893   2.328  0.1521  1.0873  0.3942
10933TIP3    H254215   4.450   5.819   2.272 -0.2834  0.4038  0.3690
10934TIP3   OH254216   3.028   3.494  14.006  0.2496 -0.5257  0.3179
10934TIP3    H154217   2.998   3.461  14.091 -0.4635 -0.7024 -0.0020
10934TIP3    H254218   3.068   3.579  14.027 -0.9724 -0.0249  0.6735
10935TIP3   OH254219   4.815   3.192  15.387 -0.2604 -0.0962  0.0946
10935TIP3    H154220   4.759   3.115  15.395 -1.2541  0.5622 -0.4839
10935TIP3    H254221   4.883   3.178  15.453  0.5463 -2.2849 -1.1269
10936TIP3   OH254222   1.182   1.471  12.356  0.0513  0.6131 -0.3016
10936TIP3    H154223   1.248   1.431  12.413  0.1710  1.2493  0.0145
10936TIP3    H254224   1.232   1.508  12.283  0.0634  1.1931 -0.0052
10937TIP3   OH254225   4.834   0.601   1.819 -0.3741 -0.3544  0.4017
10937TIP3    H154226   4.839   0.639   1.906  0.6980 -2.6411  1.3765
10937TIP3    H254227   4.743   0.615   1.793 -0.5571  0.8752  1.6271
10938TIP3   OH254228   3.295   2.496  12.898 -0.1473  0.0138 -0.4374
10938TIP3    H154229   3.369   2.456  12.853  1.0209 -1.9313  3.0183
10938TIP3    H254230   3.219   2.447  12.869 -0.1937  2.1169 -4.1321
10939TIP3   OH254231   5.060   1.638   0.169 -0.1911  0.7349  0.1456
10939TIP3    H154232   4.999   1.569   0.196  0.5305  0.0607  0.0623
10939TIP3    H254233   5.007   1.697   0.115 -0.2601 -0.9959 -1.7175
10940TIP3   OH254234   2.101   5.243   2.085 -0.6241  0.2186  0.0376
10940TIP3    H154235   2.026   5.237   2.025  0.0751 -0.4444 -0.7799
10940TIP3    H254236   2.142   5.327   2.063  0.9169 -1.0081 -1.9723
10941TIP3   OH254237   6.052   0.164   0.606  0.1319  0.1428 -0.0084
10941TIP3    H154238   5.997   0.124   0.674  0.8702  0.5816  0.8562
10941TIP3    H254239   6.138   0.172   0.647  0.6502  0.1571 -1.1026
10942TIP3   OH254240   5.241   2.666  13.280 -0.1689  0.0342 -0.7055
10942TIP3    H154241   5.155   2.668  13.239 -0.1857 -0.4222 -0.7038
10942TIP3    H254242   5.233   2.724  13.356 -0.5685 -0.2430 -0.5319
10943TIP3   OH254243   6.562   0.274   2.014  0.5042  0.2331  0.4380
10943TIP3    H154244   6.500   0.229   2.071  0.4488 -0.1161  0.1021
10943TIP3    H254245   6.574   0.360   2.054 -0.9580  0.6704 -0.0326
10944TIP3   OH254246   1.268   2.137   2.748  0.2192 -0.3055 -0.6616
10944TIP3    H154247   1.191   2.192   2.763 -0.6530 -1.6803 -0.0442
10944TIP3    H254248   1.235   2.063   2.697  1.1231 -0.9226 -0.3625
10945TIP3   OH254249   3.266   1.389  16.262  0.0600  0.1854  0.5216
10945TIP3    H154250   3.190   1.356  16.310  0.6877 -0.7412  0.8903
10945TIP3    H254251   3.256   1.353  16.174  1.5137 -2.2261  1.3203
10946TIP3   OH254252   1.679   1.233   1.331  0.6024  0.0630 -0.0757
10946TIP3    H154253   1.616   1.282   1.384  0.7070 -1.6638  1.7035
10946TIP3    H254254   1.631   1.212   1.250 -0.9156 -0.7182  1.0043
10947TIP3   OH254255   1.766   2.210  16.777 -0.2500 -0.2665  0.6568
10947TIP3    H154256   1.858   2.185  16.776  0.1480  1.1212 -0.2905
10947TIP3    H254257   1.748   2.231  16.868  0.2034 -1.1189  0.9487
10948TIP3   OH254258   0.552   3.362   1.168 -0.3077  0.3953  0.5364
10948TIP3    H154259   0.563   3.439   1.112  0.0747  1.6331  2.2525
10948TIP3    H254260   0.552   3.288   1.108 -2.3800  1.8366 -1.3405
10949TIP3   OH254261   4.482   3.806   6.014  0.2177 -0.1356 -0.2239
10949TIP3    H154262   4.393   3.788   6.045  0.3002  1.4664  0.9946
10949TIP3    H254263   4.537   3.796   6.091  1.3595 -2.8173 -1.3397
10950TIP3   OH254264   5.204   5.117  15.787 -0.2464 -0.0557  0.5314
10950TIP3    H154265   5.289   5.161  15.790 -0.1897  0.0598 -2.0105
10950TIP3    H254266   5.225   5.024  15.794  0.0158  0.0158  0.7188
10951TIP3   OH254267   3.524   3.299   2.269 -0.0259 -0.3994 -0.1753
10951TIP3    H154268   3.551   3.344   2.349  0.1337  0.2017 -0.5614
10951TIP3    H254269   3.515   3.369   2.204 -3.2180 -0.4480  0.1025
10952TIP3   OH254270   3.599   0.147   5.755  0.1666  0.0593 -0.1240
10952TIP3    H154271   3.653   0.225   5.761  0.7802 -0.3515 -0.2464
10952TIP3    H254272   3.509   0.180   5.750  0.4675  0.7901 -0.9362
10953TIP3   OH254273   2.362   0.972   2.427 -0.0643 -0.2432  0.2315
10953TIP3    H154274   2.431   0.957   2.362  0.1216 -1.6167  0.7416
10953TIP3    H254275   2.281   0.949   2.382 -0.3843  2.8795 -0.8877
10954TIP3   OH254276   5.728   1.655   1.392  0.5743  0.1993 -0.1955
10954TIP3    H154277   5.770   1.676   1.309  1.0825 -1.7128 -0.4266
10954TIP3    H254278   5.635   1.649   1.371  0.7941 -1.1347 -0.8041
10955TIP3   OH254279   0.675   4.934   3.614 -0.6923  0.2829 -0.7022
10955TIP3    H154280   0.756   4.906   3.571 -0.6096  1.5854 -1.3956
10955TIP3    H254281   0.658   5.021   3.579 -2.1507  0.2034 -0.2061
10956TIP3   OH254282   2.590   0.059   1.189  0.4227  0.4328 -0.5932
10956TIP3    H154283   2.673   0.107   1.192  0.3804  0.5248 -0.8506
10956TIP3    H254284   2.528   0.118   1.233  0.6188  0.1001  0.1454
10957TIP3   OH254285   5.526   6.271   4.295 -0.1074  0.7659  0.6212
10957TIP3    H154286   5.569   6.240   4.215  1.0207  1.3901  0.9784
10957TIP3    H254287   5.597   6.278   4.358 -0.7762  1.6628  1.2653
10958TIP3   OH254288   0.843   2.439   1.136  0.1623 -0.4482 -0.0889
10958TIP3    H154289   0.902   2.364   1.128  0.5302 -0.3043  1.1918
10958TIP3    H254290   0.881   2.492   1.206 -0.8766  0.2267 -0.0280
10959TIP3   OH254291   4.841   1.929   0.228  0.1164  0.1482 -0.2770
10959TIP3    H154292   4.811   1.877   0.303  2.4779 -0.1557  0.5162
10959TIP3    H254293   4.830   1.870   0.153 -2.2092  0.4336 -0.1952
10960TIP3   OH254294   0.900   2.941   5.684  0.2084 -0.3959 -0.2056
10960TIP3    H154295   0.942   3.024   5.707 -1.1670 -0.0776  1.2279
10960TIP3    H254296   0.970   2.889   5.645  1.0895  1.4515 -1.1904
10961TIP3   OH254297   3.069   0.736  11.040  0.1346  0.3675  0.4685
10961TIP3    H154298   3.075   0.826  11.008 -1.0295  0.9097  1.7030
10961TIP3    H254299   3.040   0.685  10.965  0.5531  1.0751 -0.1745
10962TIP3   OH254300   3.356   5.195  11.587  0.7982 -0.3633 -0.1196
10962TIP3    H154301   3.407   5.136  11.642  0.3771 -0.8152 -0.2127
10962TIP3    H254302   3.343   5.273  11.642 -1.7768 -1.7776  1.4154
10963TIP3   OH254303   5.749   4.628   1.234  0.5094  0.8492 -0.2880
10963TIP3    H154304   5.670   4.613   1.182  0.5163  2.6446 -0.8470
10963TIP3    H254305   5.730   4.589   1.319 -0.2263 -0.4441 -1.0292
10964TIP3   OH254306   4.856   5.658   0.988  0.0454 -0.2398  0.1120
10964TIP3    H154307   4.798   5.729   0.960  0.0263 -0.3489 -0.1319
10964TIP3    H254308   4.937   5.672   0.939 -0.3537 -1.0318 -0.8088
10965TIP3   OH254309   2.971   1.350   1.543 -0.2814  0.2307 -0.3835
10965TIP3    H154310   2.892   1.299   1.563  1.7017 -2.6971  0.3869
10965TIP3    H254311   2.998   1.317   1.457 -0.0548  1.4139 -0.7661
10966TIP3   OH254312   5.481   5.830   4.982 -0.0219  0.4923  0.3309
10966TIP3    H154313   5.464   5.760   4.919  0.0427 -0.0001  0.8499
10966TIP3    H254314   5.448   5.796   5.065  1.6653  0.3258  0.9580
10967TIP3   OH254315   4.497   4.652  12.239 -0.2265  0.4441  0.1708
10967TIP3    H154316   4.516   4.570  12.285 -2.0479 -0.7769 -1.2038
10967TIP3    H254317   4.458   4.625  12.156 -0.8685  2.7113 -0.3068
10968TIP3   OH254318   0.338   1.082  10.641  0.0973  0.3032 -0.1541
10968TIP3    H154319   0.402   1.042  10.582 -1.1295  0.6833 -1.7689
10968TIP3    H254320   0.343   1.028  10.721  2.1338  0.1027 -0.3921
10969TIP3   OH254321   2.806   0.932  12.148 -0.1690  0.0835 -0.6138
10969TIP3    H154322   2.711   0.919  12.144 -0.1986  0.2667 -0.5389
10969TIP3    H254323   2.842   0.870  12.086 -0.1730 -1.7756  1.1927
10970TIP3   OH254324   2.111   3.188  11.471  0.0605  0.0950  0.1897
10970TIP3    H154325   2.017   3.197  11.460  0.1052  0.5588  0.1827
10970TIP3    H254326   2.147   3.270  11.438  0.3072  0.8389  2.2245
10971TIP3   OH254327   0.710   2.907  13.744  0.0441 -0.5339 -0.1406
10971TIP3    H154328   0.687   2.951  13.826  2.4998 -0.0232  0.3310
10971TIP3    H254329   0.742   2.821  13.770  0.8011 -0.3843 -0.5449
10972TIP3   OH254330   1.093   2.123  12.801 -0.3062 -0.1803  0.0286
10972TIP3    H154331   1.106   2.218  12.802 -0.8016 -0.1035 -0.5001
10972TIP3    H254332   1.057   2.105  12.714 -1.1782 -0.7265  0.5011
10973TIP3   OH254333   3.998   5.790   1.835 -0.2570 -0.0110  0.0254
10973TIP3    H154334   4.072   5.850   1.843  1.5196 -2.0391 -0.8411
10973TIP3    H254335   3.921   5.846   1.847  1.4437  1.5126  4.6250
10974TIP3   OH254336   1.817   2.196  14.238 -0.3741  0.1432 -0.5867
10974TIP3    H154337   1.829   2.106  14.209  0.3276 -0.4236  1.3926
10974TIP3    H254338   1.722   2.209  14.236 -0.4234 -0.3256 -1.7585
10975TIP3   OH254339   5.677   1.597  14.274  0.3518  0.2784  0.5314
10975TIP3    H154340   5.748   1.546  14.312  0.8718  0.8359  0.3051
10975TIP3    H254341   5.641   1.541  14.205  1.3156  0.4716 -0.1267
10976TIP3   OH254342   5.672   1.374  10.598 -0.2811  0.3127  0.3628
10976TIP3    H154343   5.632   1.316  10.533  2.5742 -1.1035 -0.2529
10976TIP3    H254344   5.682   1.319  10.676 -0.9195  1.0867  0.9894
10977TIP3   OH254345   1.760   1.163   2.750 -0.3310 -0.7778  0.2231
10977TIP3    H154346   1.741   1.118   2.833 -2.4579  0.1591  0.2774
10977TIP3    H254347   1.792   1.249   2.777  0.9481 -1.2020  0.0824
10978TIP3   OH254348   3.958   0.395  12.883  0.1768  0.3415  0.3844
10978TIP3    H154349   3.921   0.399  12.972  2.0094 -0.7881  1.2356
10978TIP3    H254350   3.915   0.319  12.843 -0.9809  1.1185  0.1451
10979TIP3   OH254351   2.410   0.059  15.028  0.1419 -0.4165  0.2148
10979TIP3    H154352   2.471   0.132  15.020  0.4662 -0.6447  0.5710
10979TIP3    H254353   2.333   0.086  14.979  1.1061 -0.7349 -1.5068
10980TIP3   OH254354   4.039   1.010  11.692  0.2881 -0.1951 -0.1242
10980TIP3    H154355   3.980   0.981  11.622 -0.5916  0.7082  0.2258
10980TIP3    H254356   4.024   0.949  11.763 -0.7928  0.4628  0.2344
10981TIP3   OH254357   1.214   2.126  13.683  0.0582  0.1560 -0.2003
10981TIP3    H154358   1.146   2.077  13.729  0.4720  0.5733  0.8702
10981TIP3    H254359   1.171   2.158  13.604 -0.9445  0.2890  0.3955
10982TIP3   OH254360   2.732   1.438  11.722 -0.2171 -0.1933  0.0439
10982TIP3    H154361   2.705   1.409  11.634 -2.2834  0.0421  0.5723
10982TIP3    H254362   2.664   1.404  11.780  0.5705  0.5696  1.4333
10983TIP3   OH254363   3.065   3.998  14.123 -0.0670 -0.0495 -0.1961
10983TIP3    H154364   3.032   4.088  14.120 -0.6655 -0.2061  1.1979
10983TIP3    H254365   3.060   3.974  14.216  0.8224 -1.2509 -0.4517
10984TIP3   OH254366   5.717   0.857  15.345 -0.6361 -0.3796 -0.3480
10984TIP3    H154367   5.649   0.872  15.281 -1.9917 -2.6687  0.4853
10984TIP3    H254368   5.673   0.866  15.430  0.8722  1.5020  0.2700
10985TIP3   OH254369   6.490   2.012  10.773 -0.0089 -0.1872 -0.1665
10985TIP3    H154370   6.422   2.034  10.837  0.9346  1.5198  0.2842
10985TIP3    H254371   6.531   2.096  10.751 -0.1632 -0.7672 -2.8677
10986TIP3   OH254372   4.410   3.147   0.758  0.0188  0.1453  1.3280
10986TIP3    H154373   4.405   3.189   0.844 -0.0008  2.1363  0.3757
10986TIP3    H254374   4.503   3.148   0.736  0.2156 -1.7283  1.9555
10987TIP3   OH254375   6.404   3.597   0.163  0.0522 -0.1059 -0.4094
10987TIP3    H154376   6.479   3.540   0.181 -0.9401 -1.0747  0.8472
10987TIP3    H254377   6.388   3.642   0.246  1.1295  2.4271 -1.5272
10988TIP3   OH254378   3.665   5.520  14.920 -0.2985  0.0642  0.4557
10988TIP3    H154379   3.731   5.489  14.859  1.3629  1.1989  1.6406
10988TIP3    H254380   3.590   5.544  14.865 -0.0658 -2.0202 -0.8268
10989TIP3   OH254381   1.126   2.773   3.413 -0.1131 -0.5680 -0.1718
10989TIP3    H154382   1.171   2.690   3.399  0.3251 -0.7698  2.2238
10989TIP3    H254383   1.190   2.840   3.389  1.1962 -0.8727  2.3125
10990TIP3   OH254384   4.429   4.461   2.482  0.2711  0.4666 -0.4810
10990TIP3    H154385   4.511   4.420   2.512  0.0359  0.8437  0.7037
10990TIP3    H254386   4.374   4.387   2.456  0.3611  0.1030  0.3333
10991TIP3   OH254387   2.813   5.782  16.360 -0.0731 -0.7542 -0.4836
10991TIP3    H154388   2.724   5.772  16.395  0.4434 -1.7846  0.5719
10991TIP3    H254389   2.858   5.836  16.425  0.2990 -0.9037 -0.6145
10992TIP3   OH254390   5.208   5.434   6.562  0.3989 -0.2054  0.4579
10992TIP3    H154391   5.131   5.442   6.506  1.5933  0.4334 -1.1373
10992TIP3    H254392   5.282   5.448   6.503  1.6836  0.7687  2.2626
10993TIP3   OH254393   1.629   0.005   5.642  0.2953  0.1061 -0.2694
10993TIP3    H154394   1.674  -0.027   5.720  1.6654  0.9018 -0.7173
10993TIP3    H254395   1.623  -0.071   5.584 -0.3695 -0.3885  0.4423
10994TIP3   OH254396   5.317   5.813  14.462  0.1666  0.3315  0.3170
10994TIP3    H154397   5.247   5.858  14.414  0.5799  1.0685  0.3992
10994TIP3    H254398   5.283   5.803  14.550 -0.3486 -0.4679  0.0314
10995TIP3   OH254399   6.605   4.191   2.866 -0.1838  0.4005  0.0940
10995TIP3    H154400   6.647   4.182   2.780 -2.5962  2.0247 -1.3212
10995TIP3    H254401   6.649   4.266   2.906  1.8819 -1.1941  0.8870
10996TIP3   OH254402   2.505   0.236  12.640  0.0192 -0.3640  0.2888
10996TIP3    H154403   2.511   0.175  12.714 -0.2644  0.7015  1.2089
10996TIP3    H254404   2.562   0.309  12.665  0.8464 -0.5288 -1.0832
10997TIP3   OH254405   3.211   2.986   3.427  0.3936 -0.6199  0.2325
10997TIP3    H154406   3.304   3.010   3.421  0.4126 -0.8003 -0.3000
10997TIP3    H254407   3.210   2.906   3.480  0.3079  0.6408  2.1718
10998TIP3   OH254408   3.816   1.992   6.037 -0.0551 -0.8883  0.3890
10998TIP3    H154409   3.776   1.948   6.111  0.6341 -1.9377  0.1451
10998TIP3    H254410   3.880   1.929   6.003  0.6459  0.1357 -0.2150
10999TIP3   OH254411   4.631   6.015  13.388 -0.0540  0.0420 -0.2837
10999TIP3    H154412   4.653   5.935  13.435  0.0331  1.3521  1.9545
10999TIP3    H254413   4.695   6.019  13.316 -1.9789 -3.4469 -2.3167
11000TIP3   OH254414   4.801   0.326  11.381  0.1938 -0.1777 -0.3391
11000TIP3    H154415   4.719   0.280  11.400 -0.0214  0.2659 -0.1904
11000TIP3    H254416   4.808   0.325  11.286 -0.4032  0.5137 -0.3910
11001TIP3   OH254417   1.839   3.685  16.170  0.2606 -0.2050  0.2801
11001TIP3    H154418   1.862   3.685  16.077 -0.3525  0.6366  0.1241
11001TIP3    H254419   1.774   3.616  16.179  0.9514 -0.8650  0.2450
11002TIP3   OH254420   5.715   2.272  13.977 -0.7260 -0.2647 -0.1179
11002TIP3    H154421   5.770   2.301  13.904 -0.6190  0.2413  0.1600
11002TIP3    H254422   5.676   2.353  14.012 -1.4387 -0.5952 -0.1464
11003TIP3   OH254423   1.951   3.055   5.393 -0.1489 -0.1767 -0.0229
11003TIP3    H154424   2.004   3.070   5.315  0.5072 -1.0175  0.2466
11003TIP3    H254425   1.872   3.012   5.360 -0.0048 -0.2569 -0.2635
11004TIP3   OH254426   2.371   2.698  16.562 -0.0933 -0.2772 -0.4291
11004TIP3    H154427   2.346   2.644  16.486 -1.4125  1.9195 -1.6218
11004TIP3    H254428   2.465   2.713  16.551  0.0583 -1.3980 -0.6972
11005TIP3   OH254429   2.123   4.642  12.199 -0.1254 -0.3120 -0.0679
11005TIP3    H154430   2.123   4.635  12.104 -0.1381  0.2838 -0.1106
11005TIP3    H254431   2.215   4.643  12.224 -0.1131  0.8759 -0.1700
11006TIP3   OH254432   4.441   5.406   2.462  0.0593  0.0717  0.1882
11006TIP3    H154433   4.371   5.461   2.495  0.4989  0.3801  0.6216
11006TIP3    H254434   4.499   5.465   2.414 -0.1437 -0.2357 -0.4475
11007TIP3   OH254435   1.523   4.102   0.745  0.8654 -0.4087  0.4350
11007TIP3    H154436   1.601   4.051   0.725  1.8955  0.4714  2.1173
11007TIP3    H254437   1.498   4.142   0.662  0.5372 -2.9449 -0.7341
11008TIP3   OH254438   4.623   5.658  15.670  0.3563 -0.4212  0.1101
11008TIP3    H154439   4.617   5.738  15.617  1.1472 -0.8220 -0.5970
11008TIP3    H254440   4.564   5.596  15.626 -0.3360 -0.2003  0.7191
11009TIP3   OH254441   0.880   4.734   3.520  0.8785 -0.1497  0.3352
11009TIP3    H154442   0.816   4.751   3.451  0.6283  2.2673  1.1147
11009TIP3    H254443   0.841   4.664   3.572  0.1366 -0.5780 -0.7776
11010TIP3   OH254444   4.880   4.176  16.359  0.0911 -0.6705 -0.5272
11010TIP3    H154445   4.927   4.225  16.427  0.4735 -0.3122 -1.0413
11010TIP3    H254446   4.788   4.197  16.374  0.2247 -0.0822 -0.5131
11011TIP3   OH254447   0.735   0.166  13.122 -0.2461 -0.6431  0.1598
11011TIP3    H154448   0.700   0.162  13.033  2.0446  0.8192 -0.8449
11011TIP3    H254449   0.710   0.252  13.154 -0.3725 -0.8622  0.6692
11012TIP3   OH254450   5.277   6.760  13.078  0.1463  0.3881 -0.5172
11012TIP3    H154451   5.272   6.850  13.048  0.4950  0.2841 -0.8891
11012TIP3    H254452   5.186   6.734  13.093 -0.0085  0.5423 -1.1717
11013TIP3   OH254453   2.801   6.360  10.907  0.1293  0.0613 -0.4501
11013TIP3    H154454   2.812   6.270  10.876  0.4392 -0.7822  1.9483
11013TIP3    H254455   2.709   6.381  10.890 -0.5019 -1.5046  0.9109
11014TIP3   OH254456   4.207   3.191  13.874 -0.3423 -0.1133  0.1561
11014TIP3    H154457   4.248   3.200  13.788 -0.7880  2.2295  0.1493
11014TIP3    H254458   4.163   3.106  13.871 -1.6798  0.6292 -2.5033
11015TIP3   OH254459   0.217   6.508  13.864  0.2611 -0.3540  0.0949
11015TIP3    H154460   0.174   6.457  13.932 -1.4949  2.4839  1.2063
11015TIP3    H254461   0.286   6.557  13.910 -0.8815  1.5193 -0.1418
11016TIP3   OH254462   3.745   2.851   3.511  0.1884 -0.4343  0.4683
11016TIP3    H154463   3.668   2.794   3.521  0.8559 -0.9435  3.1483
11016TIP3    H254464   3.815   2.792   3.484  0.5295 -0.6577  1.8036
11017TIP3   OH254465   2.739   5.523   4.162  0.1840  0.1515  0.3036
11017TIP3    H154466   2.658   5.473   4.149  0.0708 -0.1244  2.0258
11017TIP3    H254467   2.808   5.465   4.129 -0.2916  0.3385 -1.0639
11018TIP3   OH254468   6.598   6.741   4.651  0.1365 -0.3968  0.3098
11018TIP3    H154469   6.589   6.664   4.706 -1.1673 -0.4104  0.0965
11018TIP3    H254470   6.579   6.815   4.709  0.0741 -0.3289  0.2050
11019TIP3   OH254471   3.646   6.073   0.161 -0.1878 -0.3844  0.0066
11019TIP3    H154472   3.642   6.158   0.205 -0.0438 -0.0900 -0.5443
11019TIP3    H254473   3.567   6.069   0.107 -1.1418 -1.3924  1.4412
11020TIP3   OH254474   0.131   1.494   4.715  0.1091  0.0977  0.1465
11020TIP3    H154475   0.115   1.495   4.810 -0.7507  1.8378 -0.0013
11020TIP3    H254476   0.077   1.565   4.681  1.9967  0.7974 -1.4258
11021TIP3   OH254477   4.863   5.609   0.138 -0.2218 -0.1562 -0.2270
11021TIP3    H154478   4.819   5.564   0.210  0.0327  0.3842  0.2727
11021TIP3    H254479   4.950   5.569   0.135 -1.1706 -2.2562 -2.1568
11022TIP3   OH254480   0.663   3.979  16.798  0.1110  0.6191 -0.2110
11022TIP3    H154481   0.580   3.933  16.805  1.5371 -1.8140  1.6041
11022TIP3    H254482   0.643   4.070  16.823 -2.2834  0.4930 -1.5134
11023TIP3   OH254483   1.141   0.268   5.834  0.0074  0.2619 -0.4157
11023TIP3    H154484   1.221   0.216   5.843  0.0532  0.7466  2.3074
11023TIP3    H254485   1.092   0.250   5.913 -3.1392 -0.8777 -2.5340
11024TIP3   OH254486   5.827   3.820  17.094  0.0147 -0.3736  0.5296
11024TIP3    H154487   5.906   3.823  17.147  0.3188  1.8175 -0.0237
11024TIP3    H254488   5.756   3.835  17.157  0.1057 -1.3179  0.8656
11025TIP3   OH254489   1.607   4.020   1.284 -0.1617 -0.4572  0.6668
11025TIP3    H154490   1.532   4.037   1.342 -0.0109 -0.4244  0.8510
11025TIP3    H254491   1.653   3.948   1.325  0.1689 -0.1717  0.7961
11026TIP3   OH254492   4.959   2.563  14.248  0.0531  0.4982 -0.6472
11026TIP3    H154493   4.877   2.611  14.260 -1.4745 -1.8998 -1.0308
11026TIP3    H254494   4.937   2.473  14.272  2.9951  0.0919  0.7349
11027TIP3   OH254495   2.139   2.694  11.760  0.0998 -0.2745  0.4800
11027TIP3    H154496   2.097   2.682  11.675 -0.1587 -1.5297  0.7788
11027TIP3    H254497   2.166   2.786  11.760 -0.5751 -0.0613 -0.6476
11028TIP3   OH254498   5.766   6.648   1.353 -0.0246  0.2210 -1.3119
11028TIP3    H154499   5.726   6.612   1.274 -0.0351 -1.8239 -0.3996
11028TIP3    H254500   5.711   6.615   1.425  0.4535  1.4040 -0.3904
11029TIP3   OH254501   0.146   4.918   2.668  0.1946 -0.5843 -0.9719
11029TIP3    H154502   0.105   5.004   2.679  0.0381 -0.7906  0.2059
11029TIP3    H254503   0.176   4.916   2.578  0.1472  0.6863 -1.0151
11030TIP3   OH254504   6.078   5.068   2.356 -0.0579 -0.0449 -0.5948
11030TIP3    H154505   6.122   5.100   2.278  4.6531 -2.6332  0.7644
11030TIP3    H254506   6.057   4.976   2.336 -0.4408 -0.2058  0.5059
11031TIP3   OH254507   6.280   4.691  11.102  0.5332 -0.1123 -0.5097
11031TIP3    H154508   6.210   4.741  11.062 -1.6174 -2.7586 -0.1832
11031TIP3    H254509   6.289   4.728  11.190 -1.4597 -0.6351 -0.0529
11032TIP3   OH254510   2.466   4.111   0.693 -0.1737  0.3924  0.1862
11032TIP3    H154511   2.384   4.063   0.688 -0.3242  0.9091 -3.1047
11032TIP3    H254512   2.441   4.203   0.690  0.5272  0.5486 -1.2961
11033TIP3   OH254513   5.288   1.827  12.754 -0.1457 -0.0023 -0.1997
11033TIP3    H154514   5.271   1.770  12.679  0.9883 -0.8061  0.1341
11033TIP3    H254515   5.362   1.882  12.725  0.1023 -0.1138  0.2186
11034TIP3   OH254516   4.779   0.185   3.141  0.6981 -0.2573  0.1088
11034TIP3    H154517   4.813   0.108   3.187  0.4389  0.2184  1.1102
11034TIP3    H254518   4.693   0.201   3.180  1.4525  1.5509  1.1356
11035TIP3   OH254519   6.529   1.649   2.011  0.1831  0.0406 -0.0614
11035TIP3    H154520   6.460   1.592   2.044  0.1366 -0.1762 -0.5258
11035TIP3    H254521   6.506   1.664   1.919  0.6829  0.0720 -0.1833
11036TIP3   OH254522   0.178   3.459   6.358  0.2207  0.1993  0.0249
11036TIP3    H154523   0.176   3.371   6.396  2.8075  0.0516 -0.0637
11036TIP3    H254524   0.245   3.505   6.408 -0.7449  1.9501 -0.2829
11037TIP3   OH254525   3.813   5.045   1.281 -0.2202 -0.1526  0.6477
11037TIP3    H154526   3.824   4.950   1.272 -0.0051  0.0475 -1.4509
11037TIP3    H254527   3.855   5.081   1.203 -3.2049  1.4737 -0.2982
11038TIP3   OH254528   4.182   6.618   0.307  0.3495  0.4258  0.2944
11038TIP3    H154529   4.197   6.551   0.240  0.0478 -0.7372  1.3814
11038TIP3    H254530   4.087   6.622   0.316  0.3470  1.2812 -0.0291
11039TIP3   OH254531   0.052   1.926   1.352 -0.1105  0.2173 -0.5137
11039TIP3    H154532   0.034   2.020   1.343 -2.0066 -0.1663 -1.0767
11039TIP3    H254533   0.076   1.898   1.264 -1.0033 -0.0865 -0.6726
11040TIP3   OH254534   6.183   5.011   4.443  0.0293 -0.1971 -0.1256
11040TIP3    H154535   6.104   4.967   4.411  0.5845 -0.0755 -1.7173
11040TIP3    H254536   6.223   4.948   4.503 -0.2632 -1.0488 -0.8170
11041TIP3   OH254537   1.454   0.052   6.055  0.4954  0.0299  0.5059
11041TIP3    H154538   1.542   0.085   6.076  0.5795  1.3778 -1.8099
11041TIP3    H254539   1.409   0.050   6.140  1.9043  1.9436  1.3439
11042TIP3   OH254540   5.663   5.383   0.712 -0.3043 -0.3246 -0.2816
11042TIP3    H154541   5.669   5.437   0.634 -2.8125  1.9527  1.0144
11042TIP3    H254542   5.577   5.341   0.707 -0.4042 -0.3364  1.1109
11043TIP3   OH254543   6.256   0.103   5.378 -0.6097  0.1759  0.1047
11043TIP3    H154544   6.297   0.076   5.460 -0.7964  0.6515  0.3515
11043TIP3    H254545   6.191   0.035   5.361  1.1084 -1.2810 -0.9369
11044TIP3   OH254546   5.170   6.278   0.841 -0.8919  0.0298 -0.0615
11044TIP3    H154547   5.103   6.239   0.897 -0.1471 -2.1065 -0.5968
11044TIP3    H254548   5.246   6.221   0.852  0.5793  1.9641 -0.0768
11045TIP3   OH254549   0.270   3.957   2.062  0.5211  0.3824 -0.4445
11045TIP3    H154550   0.319   3.999   2.133  1.0791 -0.6412 -0.2218
11045TIP3    H254551   0.333   3.899   2.020 -0.7712 -1.8214  0.5662
11046TIP3   OH254552   1.237   5.318   6.011  0.0684  0.8574 -0.3497
11046TIP3    H154553   1.256   5.331   5.918 -0.9744  1.6196 -0.4611
11046TIP3    H254554   1.149   5.281   6.013  0.4837 -0.1244  0.2918
11047TIP3   OH254555   6.230   5.724  15.798 -0.1385  0.0557 -0.1932
11047TIP3    H154556   6.156   5.665  15.783  0.2007 -0.8312  1.4418
11047TIP3    H254557   6.290   5.705  15.726 -0.0706 -1.5578  0.2748
11048TIP3   OH254558   3.346   0.211   5.800  0.2627 -0.1329 -0.8922
11048TIP3    H154559   3.291   0.285   5.774 -0.7404 -0.6333 -0.1820
11048TIP3    H254560   3.372   0.231   5.890  2.7020  0.9719 -1.7876
11049TIP3   OH254561   0.739   3.169   2.409 -0.3740  0.4625  0.3536
11049TIP3    H154562   0.652   3.137   2.385 -0.0015  0.8926 -1.6716
11049TIP3    H254563   0.738   3.173   2.504 -1.3005 -3.1653  0.5846
11050TIP3   OH254564   2.197   4.045   0.833 -0.1990  0.3139 -0.1393
11050TIP3    H154565   2.182   4.042   0.927 -0.0465 -0.6139 -0.1366
11050TIP3    H254566   2.187   3.954   0.804  0.6484  0.4493 -0.8767
11051TIP3   OH254567   2.546   3.388   5.575 -0.5186  0.0968 -0.1380
11051TIP3    H154568   2.491   3.345   5.640 -0.5815 -0.4397 -0.5408
11051TIP3    H254569   2.500   3.469   5.555  0.0591  0.7942  1.2921
11052TIP3   OH254570   3.613   3.694   4.017  0.7705 -0.8368  0.8727
11052TIP3    H154571   3.678   3.711   4.085  0.9584 -1.4636  0.8496
11052TIP3    H254572   3.530   3.685   4.065  0.8078 -0.7205  0.9604
11053TIP3   OH254573   3.452   6.317   5.019  0.8675  0.0361 -0.3088
11053TIP3    H154574   3.479   6.409   5.027  2.1567 -0.3686  0.0615
11053TIP3    H254575   3.362   6.322   4.987  0.9314  1.4327 -0.3224
11054TIP3   OH254576   2.892   5.799   2.858 -0.2165  0.4867 -0.3213
11054TIP3    H154577   2.912   5.891   2.873 -0.1459  0.3029  0.7279
11054TIP3    H254578   2.866   5.765   2.944  0.9317 -0.7651 -0.4558
11055TIP3   OH254579   5.559   1.007   0.264  0.5802  0.9046 -0.2831
11055TIP3    H154580   5.602   1.059   0.197  2.3580  1.9487  1.6157
11055TIP3    H254581   5.490   1.064   0.297 -0.2557  0.4135 -1.1513
11056TIP3   OH254582   4.085   2.426   2.387  0.2194 -0.1384  0.6066
11056TIP3    H154583   4.158   2.396   2.332 -0.3595  1.1395 -0.9201
11056TIP3    H254584   4.037   2.487   2.331  0.0663  1.8559  2.7957
11057TIP3   OH254585   3.993   4.366  12.514  0.8273  0.0144 -0.1139
11057TIP3    H154586   3.973   4.275  12.491 -1.1018 -0.3271  2.7435
11057TIP3    H254587   4.041   4.399  12.438  0.7864 -3.1096 -1.5879
11058TIP3   OH254588   6.212   1.754  12.046  0.4005 -0.3467  0.4034
11058TIP3    H154589   6.178   1.819  12.108 -0.9617 -0.4781 -0.1970
11058TIP3    H254590   6.263   1.805  11.983 -0.6728  0.1472 -0.0710
11059TIP3   OH254591   6.253   6.248   1.850  0.0356 -0.0132  0.1136
11059TIP3    H154592   6.320   6.205   1.798  1.0664 -1.0288  2.1997
11059TIP3    H254593   6.278   6.230   1.941 -2.5229  0.3822  0.9516
11060TIP3   OH254594   6.694   5.005  14.717  0.1391 -0.0303 -0.2120
11060TIP3    H154595   6.762   5.037  14.776 -0.6016  1.2568 -0.0383
11060TIP3    H254596   6.661   5.084  14.674 -0.7928 -0.7195 -0.7717
11061TIP3   OH254597   1.226   3.127  15.552 -0.7906  0.0536  0.5625
11061TIP3    H154598   1.228   3.161  15.642 -1.6148  0.0221  0.5997
11061TIP3    H254599   1.144   3.162  15.516 -0.1896  0.5150 -0.3546
11062TIP3   OH254600   5.105   3.454   0.546  0.1269 -0.1843 -0.5695
11062TIP3    H154601   5.022   3.503   0.550  1.5332  2.3722 -1.3107
11062TIP3    H254602   5.121   3.441   0.453  1.8516  1.6907 -0.5627
11063TIP3   OH254603   5.863   1.346  10.282  0.2547 -0.0244  0.0555
11063TIP3    H154604   5.820   1.285  10.342 -1.4589  1.0860  0.0077
11063TIP3    H254605   5.824   1.431  10.303  1.9958  0.9214 -0.4414
11064TIP3   OH254606   2.613   0.036   4.824  0.1129 -0.4106  0.4632
11064TIP3    H154607   2.607   0.091   4.746 -3.0827  0.6444  1.3766
11064TIP3    H254608   2.571  -0.047   4.799  0.5627 -0.6693  0.5597
11065TIP3   OH254609   0.889   6.350  12.420 -0.2803  0.1031  0.1432
11065TIP3    H154610   0.872   6.285  12.488  1.6003  0.2725  0.7962
11065TIP3    H254611   0.804   6.391  12.405 -1.2382 -1.6335  0.6028
11066TIP3   OH254612   0.424   2.039   4.846  0.6775  0.0216  0.1936
11066TIP3    H154613   0.476   2.085   4.780 -0.7299  0.2356 -0.7813
11066TIP3    H254614   0.487   2.019   4.916  2.5342 -1.6317 -1.8775
11067TIP3   OH254615   4.287   4.232   2.367 -0.6064 -0.1678 -0.3308
11067TIP3    H154616   4.213   4.229   2.428 -1.2023  1.0200 -0.9757
11067TIP3    H254617   4.247   4.222   2.281 -0.2125  2.0961 -0.8063
11068TIP3   OH254618   0.665   5.011  12.974  0.1001 -0.0918  0.5696
11068TIP3    H154619   0.578   5.025  13.010  0.3743 -0.2652  1.3181
11068TIP3    H254620   0.721   5.072  13.021 -0.0212  1.8722 -1.7132
11069TIP3   OH254621   4.450   0.745  15.791 -1.0138  0.2279 -0.0220
11069TIP3    H154622   4.543   0.726  15.782 -0.7263  1.7083 -0.4281
11069TIP3    H254623   4.417   0.745  15.701 -1.1715  0.7405  0.0298
11070TIP3   OH254624   0.813   0.799  16.096  0.0725 -0.7782  0.0331
11070TIP3    H154625   0.863   0.875  16.126  1.4570 -2.0914  1.1123
11070TIP3    H254626   0.814   0.807  16.001  0.6676  0.2660  0.1128
11071TIP3   OH254627   3.893   5.872  12.495 -0.0615  0.7305  0.1792
11071TIP3    H154628   3.958   5.916  12.550  0.1523  0.4565  0.1458
11071TIP3    H254629   3.819   5.855  12.554  1.0560 -1.5958  0.9701
11072TIP3   OH254630   2.505   3.645  12.664 -0.2268  0.3551  1.1200
11072TIP3    H154631   2.524   3.577  12.729 -0.9171  0.2804  1.2485
11072TIP3    H254632   2.448   3.602  12.601 -0.4010  0.7242  1.0268
11073TIP3   OH254633   3.612   5.171  14.848  0.0226  0.7802  0.2874
11073TIP3    H154634   3.665   5.157  14.769 -1.2929  0.8059 -0.6181
11073TIP3    H254635   3.599   5.265  14.853 -0.3968  0.7298  0.1916
11074TIP3   OH254636   6.539   3.015  14.629 -0.3559  0.3934 -0.1797
11074TIP3    H154637   6.497   3.096  14.601  0.6908  1.0782  0.2170
11074TIP3    H254638   6.550   3.025  14.723 -1.1011 -0.6230  0.0183
11075TIP3   OH254639   6.184   0.405  17.195 -0.1887 -0.7240 -0.1362
11075TIP3    H154640   6.172   0.498  17.215 -0.5871 -0.5180 -1.2828
11075TIP3    H254641   6.256   0.377  17.252  1.4123  0.8192 -1.3746
11076TIP3   OH254642   2.879   4.307  16.368  0.0671  0.1446  0.2504
11076TIP3    H154643   2.830   4.375  16.415 -0.0261 -1.2579  2.2246
11076TIP3    H254644   2.956   4.352  16.335 -1.3877  1.8631 -0.9258
11077TIP3   OH254645   1.081   0.370   3.363 -0.3514  0.3258  0.0639
11077TIP3    H154646   1.107   0.323   3.442  0.5171 -0.0472 -0.4408
11077TIP3    H254647   1.027   0.307   3.315  1.3742 -0.4260 -0.9405
11078TIP3   OH254648   6.703   4.799   6.014  0.5949  0.8225 -0.4180
11078TIP3    H154649   6.719   4.808   6.108 -0.3225 -0.7554 -0.0918
11078TIP3    H254650   6.739   4.879   5.976  0.1890  1.8845  1.3657
11079TIP3   OH254651   1.877   4.303   4.125 -0.2608 -0.0327  0.1867
11079TIP3    H154652   1.849   4.259   4.206 -1.6247 -1.2793 -0.9214
11079TIP3    H254653   1.819   4.379   4.118 -0.3899 -0.1289  0.2004
11080TIP3   OH254654   5.120   2.518  13.579  0.4638 -0.5033 -0.0951
11080TIP3    H154655   5.181   2.448  13.552 -0.6864 -1.1153 -1.1574
11080TIP3    H254656   5.090   2.556  13.497  0.1733  0.4671  0.4589
11081TIP3   OH254657   3.327   5.426  11.747  0.2309  0.5652 -0.2802
11081TIP3    H154658   3.235   5.447  11.761  0.3730  1.9477 -1.3904
11081TIP3    H254659   3.367   5.437  11.834 -0.7746 -0.8660  0.3960
11082TIP3   OH254660   2.424   4.080   1.868 -0.0874  0.1316 -0.0852
11082TIP3    H154661   2.391   4.006   1.817  0.5621  0.5710 -1.1632
11082TIP3    H254662   2.433   4.046   1.957 -1.1628 -0.6655 -0.2626
11083TIP3   OH254663   1.183   6.693  13.184 -0.1339  0.4258  0.2595
11083TIP3    H154664   1.191   6.775  13.135 -1.0086  0.1826 -0.3135
11083TIP3    H254665   1.158   6.721  13.272 -0.4426  0.7907  0.0647
11084TIP3   OH254666   1.910   5.807   3.238  0.6720 -0.4005 -0.2145
11084TIP3    H154667   1.887   5.877   3.177 -1.0302 -0.8132 -0.0741
11084TIP3    H254668   1.969   5.849   3.301  1.0668  0.4615 -1.1467
11085TIP3   OH254669   1.780   1.522  12.979 -0.0617 -0.2655  0.0348
11085TIP3    H154670   1.696   1.568  12.975 -0.3229 -0.7341  0.0897
11085TIP3    H254671   1.756   1.430  12.985  0.3787 -0.2438  3.1784
11086TIP3   OH254672   2.497   1.965   0.260  0.1025 -0.1249  0.2081
11086TIP3    H154673   2.408   1.983   0.293 -0.2309 -1.2378 -0.0792
11086TIP3    H254674   2.551   1.961   0.339 -0.1770  0.1095  0.4162
11087TIP3   OH254675   5.984   5.761   1.585 -0.0924  0.2302  0.2664
11087TIP3    H154676   6.005   5.745   1.678 -1.0734  2.6496  0.9351
11087TIP3    H254677   5.899   5.805   1.587 -1.5423 -2.2969 -1.9845
11088TIP3   OH254678   2.096   6.779  16.525 -0.2106  0.4810 -0.5741
11088TIP3    H154679   2.025   6.723  16.494  0.7848  0.4126 -2.8553
11088TIP3    H254680   2.139   6.728  16.593  1.9182 -2.4651 -3.9570
11089TIP3   OH254681   2.970   2.567   1.383  0.3295 -0.3446  0.1175
11089TIP3    H154682   2.942   2.647   1.427 -1.0343 -0.8319  0.1576
11089TIP3    H254683   3.064   2.562   1.400  0.1756  0.5082  1.2817
11090TIP3   OH254684   0.577   2.119  12.016 -0.1440  0.2314 -0.0073
11090TIP3    H154685   0.605   2.097  11.928  0.9953  0.5360  0.2694
11090TIP3    H254686   0.488   2.155  12.006 -0.6883 -1.3330 -0.8190
11091TIP3   OH254687   2.941   0.119  17.220  0.8454  0.1446  0.2416
11091TIP3    H154688   2.981   0.113  17.306  0.5119  0.9248  0.4627
11091TIP3    H254689   2.863   0.174  17.234 -0.0108 -0.9292 -0.2663
11092TIP3   OH254690   2.904   5.489  15.516  0.2791 -0.4562  0.3612
11092TIP3    H154691   2.824   5.521  15.558  2.1278  0.8099  3.0886
11092TIP3    H254692   2.953   5.569  15.496  1.9893 -1.2945  1.1149
11093TIP3   OH254693   5.311   1.817   5.488  0.2708 -0.1964  0.3751
11093TIP3    H154694   5.286   1.771   5.407 -0.4843 -1.6115  1.3945
11093TIP3    H254695   5.403   1.793   5.502 -0.2653 -1.8842  1.1907
11094TIP3   OH254696   2.623   1.385   5.045 -0.3838 -0.1856  0.1738
11094TIP3    H154697   2.606   1.469   5.004 -1.5377 -0.7587 -0.5544
11094TIP3    H254698   2.597   1.397   5.137  2.5029  1.1896  0.8590
11095TIP3   OH254699   5.933   2.599  13.304 -0.2852  0.0321  0.4162
11095TIP3    H154700   6.011   2.637  13.345 -0.7182  1.0300  0.3396
11095TIP3    H254701   5.964   2.566  13.220 -0.0755  1.0555  0.0823
11096TIP3   OH254702   2.065   4.882  16.152  0.6399 -0.4180 -0.2569
11096TIP3    H154703   1.988   4.838  16.115  0.3065  0.3553 -0.4901
11096TIP3    H254704   2.077   4.960  16.098 -0.4741  1.2847  1.8781
11097TIP3   OH254705   4.531   4.475   0.078  0.3005 -0.2117  0.0517
11097TIP3    H154706   4.546   4.569   0.065  0.6157 -0.2103  0.4161
11097TIP3    H254707   4.443   4.470   0.117 -0.5404 -0.1976 -1.7866
11098TIP3   OH254708   1.312   4.850   4.545  0.0959 -0.2359  0.1124
11098TIP3    H154709   1.351   4.935   4.565  0.6090 -1.0606  2.7419
11098TIP3    H254710   1.271   4.862   4.459  2.6042  1.8351 -0.8606
11099TIP3   OH254711   0.264   0.689  13.702 -0.3009  0.4462 -0.4536
11099TIP3    H154712   0.203   0.616  13.714  1.4135 -0.8723  0.3673
11099TIP3    H254713   0.232   0.757  13.761 -0.3485 -0.6384  0.7901
11100TIP3   OH254714   5.269   2.514   0.712  0.2773  0.0135 -0.1973
11100TIP3    H154715   5.277   2.451   0.784  0.1530 -0.8545 -0.9227
11100TIP3    H254716   5.355   2.556   0.707 -0.2120  1.2219  1.4820
11101TIP3   OH254717   3.600   6.080  13.167  0.2601  0.4651 -0.2732
11101TIP3    H154718   3.617   6.173  13.181  0.6765  0.2561  0.6430
11101TIP3    H254719   3.686   6.040  13.157  0.2569 -0.2330  2.0480
11102TIP3   OH254720   3.955   4.386  11.595 -0.1368  0.0110 -0.0278
11102TIP3    H154721   3.891   4.386  11.665  0.4626  0.3649  0.5238
11102TIP3    H254722   3.969   4.294  11.574  0.0258 -0.1159  0.6342
11103TIP3   OH254723   3.198   0.150  14.347 -0.6350 -0.2159  0.2667
11103TIP3    H154724   3.190   0.215  14.418 -0.9057 -0.2163  0.2378
11103TIP3    H254725   3.190   0.066  14.392  1.8884 -0.3100  0.6030
11104TIP3   OH254726   0.698   5.960   6.104  0.0862  0.1485 -0.0596
11104TIP3    H154727   0.737   5.886   6.058  0.7919 -0.8840  2.1176
11104TIP3    H254728   0.660   6.014   6.035  1.3310 -1.2019 -1.8516
11105TIP3   OH254729   5.678   4.063   1.663 -0.0377  0.1863  0.0318
11105TIP3    H154730   5.682   4.127   1.734  0.8343 -0.5333  0.6566
11105TIP3    H254731   5.704   3.981   1.704  0.6536 -0.2052 -1.1577
11106TIP3   OH254732   1.083   0.263  14.026  0.0898  0.0130  0.5678
11106TIP3    H154733   1.058   0.250  13.935 -0.2076 -0.0986  0.6608
11106TIP3    H254734   1.168   0.221  14.034  0.5478  0.8503  0.1170
11107TIP3   OH254735   3.640   1.924   1.416  0.2202  0.2670 -0.0585
11107TIP3    H154736   3.573   1.990   1.432 -0.1253  0.2684 -1.4811
11107TIP3    H254737   3.601   1.864   1.353  1.1851 -0.3009 -0.1300
11108TIP3   OH254738   6.581   3.280  16.910  0.1224  0.2709  0.0728
11108TIP3    H154739   6.495   3.259  16.875 -0.3933 -0.2223  1.6119
11108TIP3    H254740   6.638   3.280  16.833 -1.1631  0.1985 -0.9018
11109TIP3   OH254741   4.690   4.477   6.293  0.3514  0.8207  0.1437
11109TIP3    H154742   4.629   4.530   6.345 -0.4719  1.1256 -1.1274
11109TIP3    H254743   4.775   4.520   6.306 -0.0275  1.5041  0.4040
11110TIP3   OH254744   5.771   2.514   4.416 -0.0315 -0.3492 -0.4953
11110TIP3    H154745   5.735   2.466   4.491 -2.6393 -1.7684 -2.5696
11110TIP3    H254746   5.714   2.490   4.343  2.5462  0.8839 -2.9877
11111TIP3   OH254747   0.861   2.527   5.012 -0.2667  0.0834  0.0766
11111TIP3    H154748   0.875   2.443   5.055  1.0706  0.4164  0.2990
11111TIP3    H254749   0.934   2.582   5.040 -0.5338  0.9829 -0.9281
11112TIP3   OH254750   3.682   5.011  15.076  0.0229 -0.2175 -0.0177
11112TIP3    H154751   3.669   5.064  14.997 -2.4785  0.0816  0.5570
11112TIP3    H254752   3.731   5.068  15.135 -1.5775  1.0269  0.1331
11113TIP3   OH254753   3.928   3.114   4.370  0.3509  0.0561 -0.4647
11113TIP3    H154754   3.896   3.113   4.279  1.3299  0.8799 -0.8188
11113TIP3    H254755   3.963   3.026   4.383 -0.6864 -0.3843 -0.5556
11114TIP3   OH254756   4.914   6.595   5.427 -0.7550  0.1608 -0.4327
11114TIP3    H154757   4.946   6.683   5.411  4.3966 -1.2536  0.8634
11114TIP3    H254758   4.867   6.601   5.511 -0.9540  1.7457 -0.6538
11115TIP3   OH254759   5.941   3.299   3.078  0.2808 -0.1916 -0.3499
11115TIP3    H154760   5.889   3.309   3.158  1.9752 -1.7949  0.9982
11115TIP3    H254761   6.014   3.359   3.090 -0.0529  0.3934 -1.2189
11116TIP3   OH254762   3.256   5.252  14.795 -0.6204 -0.0306  0.2702
11116TIP3    H154763   3.160   5.246  14.798 -0.7116 -0.1238 -1.9470
11116TIP3    H254764   3.286   5.162  14.809 -0.9021 -0.1821 -0.0850
11117TIP3   OH254765   2.113   4.690   1.816 -0.2594 -0.1990 -0.5172
11117TIP3    H154766   2.096   4.628   1.887  2.8044 -0.4120  0.0926
11117TIP3    H254767   2.179   4.749   1.851  0.2717  0.5665 -2.7162
11118TIP3   OH254768   3.994   5.775   2.461  0.0072  0.2057 -0.6529
11118TIP3    H154769   4.009   5.696   2.513  2.0649  0.9935  0.0045
11118TIP3    H254770   3.932   5.827   2.513  0.5618  0.1146  0.1117
11119TIP3   OH254771   1.452   6.131   5.253 -0.4350  0.3030  1.3665
11119TIP3    H154772   1.509   6.151   5.178 -2.9666  0.1651 -0.6449
11119TIP3    H254773   1.496   6.058   5.296  1.4652  0.8674  0.4631
11120TIP3   OH254774   5.791   3.678   5.632  0.7696 -0.2177  0.2996
11120TIP3    H154775   5.787   3.740   5.705 -2.4652  1.7034 -1.4153
11120TIP3    H254776   5.711   3.627   5.640 -0.4194  1.0442 -2.7192
11121TIP3   OH254777   1.681   5.103   4.989  0.3774  0.4191  0.7511
11121TIP3    H154778   1.760   5.144   4.955  0.3708 -0.2842 -0.1314
11121TIP3    H254779   1.678   5.018   4.947 -1.4971  0.9158 -0.1817
11122TIP3   OH254780   5.959   3.439  17.200  0.2635 -0.3827  0.1182
11122TIP3    H154781   6.052   3.452  17.221  0.5823  0.3673 -1.6287
11122TIP3    H254782   5.912   3.493  17.263  1.0880  0.3075  0.1497
11123TIP3   OH254783   2.859   3.554  12.865 -0.5184  0.1151 -0.2808
11123TIP3    H154784   2.942   3.593  12.836 -1.7690  2.3409 -0.9983
11123TIP3    H254785   2.809   3.628  12.901 -1.6727 -1.4305  1.3910
11124TIP3   OH254786   3.761   5.230   3.205  0.1048 -0.4702  0.1200
11124TIP3    H154787   3.733   5.141   3.226  1.2176 -0.8706 -0.0355
11124TIP3    H254788   3.721   5.249   3.121 -0.7367 -0.5456  0.5004
11125TIP3   OH254789   5.594   4.145   2.954 -0.4986 -0.2721 -0.2583
11125TIP3    H154790   5.654   4.187   2.893 -1.2857  0.1055 -0.7764
11125TIP3    H254791   5.601   4.052   2.935 -0.2694 -0.2066 -0.4967
11126TIP3   OH254792   2.619   6.270   2.752  0.4977  0.0648  0.3684
11126TIP3    H154793   2.602   6.216   2.674 -0.6301  0.2906  0.4452
11126TIP3    H254794   2.694   6.324   2.728 -0.4945  0.8805 -0.9507
11127TIP3   OH254795   5.227   2.308   2.107 -0.0001 -0.6773  0.0548
11127TIP3    H154796   5.132   2.298   2.113 -0.1270  1.0619  1.3110
11127TIP3    H254797   5.242   2.402   2.118  1.7879 -0.7738 -1.3926
11128TIP3   OH254798   6.586   3.973  13.698  0.1411 -0.3834  0.1911
11128TIP3    H154799   6.523   4.024  13.749  0.4130 -0.0294  0.1720
11128TIP3    H254800   6.659   3.958  13.758  0.9471  0.9791 -0.4446
11129TIP3   OH254801   2.741   1.256   3.929  0.2183  0.6868 -0.4101
11129TIP3    H154802   2.789   1.322   3.879 -1.2454  2.1641  0.0830
11129TIP3    H254803   2.781   1.259   4.016  0.6491  0.3851 -0.5957
11130TIP3   OH254804   2.444   2.948   2.420 -0.3373  0.7084 -0.0045
11130TIP3    H154805   2.520   2.966   2.477 -0.9313 -0.2609  1.1111
11130TIP3    H254806   2.439   2.853   2.416 -1.0490  0.7708 -0.6981
11131TIP3   OH254807   3.757   2.079  15.300  0.2259  0.0343 -0.0573
11131TIP3    H154808   3.668   2.068  15.267  0.4000  0.1554 -0.5707
11131TIP3    H254809   3.775   2.172  15.292  0.5211 -0.0395 -0.2811
11132TIP3   OH254810   0.730   5.787   2.153  0.1499  0.3945  0.8637
11132TIP3    H154811   0.653   5.732   2.136  0.5000 -0.0163  0.5838
11132TIP3    H254812   0.788   5.731   2.205  0.1456  0.7973  1.3052
11133TIP3   OH254813   5.486   2.436  13.812  0.7172 -0.2197  0.1265
11133TIP3    H154814   5.560   2.490  13.783  0.9078 -0.4779  0.1375
11133TIP3    H254815   5.467   2.380  13.737 -0.1413  0.5712 -0.2530
11134TIP3   OH254816   1.540   5.075   3.939 -0.3305  0.1901  0.4131
11134TIP3    H154817   1.527   5.067   4.034  1.2771 -0.9367  0.5449
11134TIP3    H254818   1.585   5.159   3.928 -0.8728  0.5129  0.5905
11135TIP3   OH254819   2.980   0.735   5.557  0.1659 -0.5156 -0.8730
11135TIP3    H154820   3.034   0.789   5.499 -0.1044 -1.1613 -1.7442
11135TIP3    H254821   3.042   0.692   5.615  0.2831  1.9005  0.8504
11136TIP3   OH254822   3.288   1.196   4.528 -0.1266 -0.5602 -0.6600
11136TIP3    H154823   3.313   1.256   4.599 -1.5601  1.0159 -1.4499
11136TIP3    H254824   3.367   1.146   4.510  0.7280  0.1799  0.9240
11137TIP3   OH254825   4.691   2.217  14.102 -0.5076 -0.9280  0.4630
11137TIP3    H154826   4.630   2.278  14.059  0.3943  1.3456  2.3407
11137TIP3    H254827   4.642   2.183  14.177 -0.1356 -0.6212  0.8414
11138TIP3   OH254828   6.569   3.245  11.516  0.3647  0.3686 -0.7846
11138TIP3    H154829   6.588   3.339  11.516 -0.9468  0.6336 -0.5344
11138TIP3    H254830   6.475   3.239  11.500  0.3834 -0.8934 -0.4677
11139TIP3   OH254831   2.379   5.272  12.735  0.1528 -0.2626  0.3928
11139TIP3    H154832   2.434   5.248  12.809 -0.9358 -0.8776  1.0163
11139TIP3    H254833   2.363   5.189  12.689  0.0789 -0.0232 -0.0163
11140TIP3   OH254834   3.162   2.778   3.012  0.2532 -0.3024  0.2125
11140TIP3    H154835   3.072   2.752   2.992  0.1722  0.3884 -0.3456
11140TIP3    H254836   3.156   2.871   3.035  0.8809 -0.1498 -0.2300
11141TIP3   OH254837   0.833   6.270   5.557 -0.5850  1.0717  0.0341
11141TIP3    H154838   0.797   6.211   5.624  0.4479  0.1787 -0.1784
11141TIP3    H254839   0.926   6.246   5.552 -0.6426  1.1522 -1.6874
11142TIP3   OH254840   1.331   5.615  14.749 -0.0468 -0.0482  0.3446
11142TIP3    H154841   1.348   5.532  14.705 -0.1250 -0.5083  1.1756
11142TIP3    H254842   1.241   5.607  14.781 -0.2366  0.5601 -0.0249
11143TIP3   OH254843   3.960   1.593   4.489 -0.7314 -0.1637  0.1850
11143TIP3    H154844   3.872   1.556   4.488  0.0083 -2.0017 -1.3254
11143TIP3    H254845   3.991   1.582   4.399  0.5732  1.6345  0.4004
11144TIP3   OH254846   3.088   0.658  15.197 -0.5182 -0.0351 -0.2058
11144TIP3    H154847   3.023   0.645  15.128  0.6584  2.4000 -1.8408
11144TIP3    H254848   3.156   0.712  15.156  0.3524  1.2327  2.7954
11145TIP3   OH254849   5.473   5.856  11.680  0.1100 -0.0548  0.3917
11145TIP3    H154850   5.442   5.806  11.755  0.4319  0.4322  0.8503
11145TIP3    H254851   5.477   5.946  11.711 -0.2378  0.2287 -0.3606
11146TIP3   OH254852   6.501   3.951   5.692  0.5486 -0.1567 -0.5881
11146TIP3    H154853   6.590   3.940   5.658  1.5125  0.9648  1.4977
11146TIP3    H254854   6.466   3.862   5.697  1.9790 -0.7231 -0.3028
11147TIP3   OH254855   6.655   3.743  12.933  0.4875  0.0437  0.0444
11147TIP3    H154856   6.578   3.690  12.950  1.7407 -2.1441 -0.9384
11147TIP3    H254857   6.726   3.680  12.922  2.3406  1.9968  0.5027
11148TIP3   OH254858   0.701   0.615  16.467 -0.0768 -0.0158 -0.2069
11148TIP3    H154859   0.751   0.687  16.506 -0.1918 -0.9660  1.7497
11148TIP3    H254860   0.648   0.581  16.539 -1.8224 -0.5272 -1.6976
11149TIP3   OH254861   4.505   6.191  14.516 -0.2010 -0.3004  0.2749
11149TIP3    H154862   4.504   6.239  14.434  1.0565  1.9387  1.4977
11149TIP3    H254863   4.569   6.120  14.502 -0.5492 -0.3910 -0.8969
11150TIP3   OH254864   6.240   2.414  12.578 -0.2595  0.2421 -0.5978
11150TIP3    H154865   6.300   2.488  12.585 -0.5845  0.4298  0.3532
11150TIP3    H254866   6.153   2.453  12.582 -0.4373 -0.1049 -1.0958
11151TIP3   OH254867   4.498   2.340  16.927 -0.8910 -0.3764  0.0197
11151TIP3    H154868   4.499   2.318  16.834 -0.5803 -0.5762  0.0709
11151TIP3    H254869   4.434   2.411  16.934  0.9304  1.4038 -0.7390
11152TIP3   OH254870   4.498   0.469  13.380 -0.6011  0.9711  0.2052
11152TIP3    H154871   4.587   0.472  13.346 -1.5810 -0.7890 -2.7061
11152TIP3    H254872   4.508   0.455  13.474  2.2092 -1.1223 -0.3470
11153TIP3   OH254873   3.970   2.845   0.910 -0.3549 -0.2110  0.0164
11153TIP3    H154874   3.980   2.925   0.961  0.3150 -0.1773 -0.1658
11153TIP3    H254875   4.059   2.822   0.883 -0.7940  0.4719 -2.1805
11154TIP3   OH254876   6.338   1.063   5.723 -0.3828  0.0534  0.5403
11154TIP3    H154877   6.382   1.122   5.661  0.6838  0.6598  1.8423
11154TIP3    H254878   6.323   0.983   5.673 -1.3313  1.2175 -1.0895
11155TIP3   OH254879   2.858   2.336   6.013 -0.1136 -0.0901 -0.5385
11155TIP3    H154880   2.815   2.300   6.091 -1.2850  0.6954 -0.8014
11155TIP3    H254881   2.925   2.395   6.049  1.0054 -1.5728 -0.1256
11156TIP3   OH254882   6.505   1.837  14.768 -0.6259  0.3397 -0.3888
11156TIP3    H154883   6.418   1.805  14.745 -0.9801  0.9487  0.0767
11156TIP3    H254884   6.504   1.840  14.864 -0.1197  0.4179 -0.3864
11157TIP3   OH254885   2.995   4.366  12.369  0.6086  0.2697 -0.5186
11157TIP3    H154886   2.957   4.436  12.422 -1.4276  0.0190 -1.5893
11157TIP3    H254887   3.013   4.296  12.431  1.2238  1.1546  0.3219
11158TIP3   OH254888   1.565   5.319  12.969  0.2425 -0.2586 -0.2673
11158TIP3    H154889   1.498   5.381  12.940 -0.5303 -0.8175  0.2727
11158TIP3    H254890   1.638   5.373  12.999 -1.2129  0.4816  2.1220
11159TIP3   OH254891   5.140   1.956  13.367  0.2415  0.4737  0.0550
11159TIP3    H154892   5.158   1.917  13.282  1.7953  1.9806 -0.3098
11159TIP3    H254893   5.088   1.889  13.413  2.2235 -1.7328 -0.8240
11160TIP3   OH254894   1.950   6.558   3.551  0.3926  0.1792  0.2044
11160TIP3    H154895   1.893   6.555   3.628 -3.0799 -0.3098 -2.2567
11160TIP3    H254896   1.986   6.470   3.544 -0.2645 -0.1244  0.5949
11161TIP3   OH254897   2.292   1.257   4.002  0.2125  0.5137 -0.0796
11161TIP3    H154898   2.278   1.245   4.096  0.4059 -0.7085 -0.1924
11161TIP3    H254899   2.377   1.217   3.984 -0.1088  0.1585 -0.8774
11162TIP3   OH254900   5.529   4.131   4.864  0.1788  0.2364 -0.0159
11162TIP3    H154901   5.479   4.068   4.812  0.5878 -1.1516  1.2372
11162TIP3    H254902   5.584   4.177   4.800 -1.7509  0.9101 -1.2509
11163TIP3   OH254903   5.771   4.207  15.506  0.2321  0.4636 -0.2551
11163TIP3    H154904   5.772   4.267  15.581  0.2352 -3.6640  3.2007
11163TIP3    H254905   5.831   4.247  15.443  1.0369  3.5607  2.3252
11164TIP3   OH254906   5.026   5.973  13.995  0.6663  0.0168 -0.5952
11164TIP3    H154907   5.045   5.926  13.913 -1.4424  1.2242 -1.8233
11164TIP3    H254908   5.028   6.065  13.971 -0.4908  0.3684  0.5868
11165TIP3   OH254909   5.043   1.253  13.557 -0.0386 -0.3530  0.7508
11165TIP3    H154910   5.082   1.270  13.642 -0.2122 -0.2524  0.8119
11165TIP3    H254911   5.115   1.220  13.503  0.5786  1.7289  0.2625
11166TIP3   OH254912   5.618   5.852   3.909 -0.6602  0.4416 -0.1558
11166TIP3    H154913   5.685   5.886   3.850 -0.5800  0.3635 -0.1103
11166TIP3    H254914   5.541   5.840   3.854  0.3239 -2.6631 -0.9530
11167TIP3   OH254915   4.163   2.333   5.537 -0.5882  0.4483 -0.3304
11167TIP3    H154916   4.237   2.317   5.478 -1.2712  1.5374 -1.4980
11167TIP3    H254917   4.086   2.330   5.481 -1.5367 -1.4375  1.0071
11168TIP3   OH254918   5.854   5.924   5.996 -0.5978  0.1290  0.0783
11168TIP3    H154919   5.892   5.942   5.911 -2.8623  0.1640 -0.9568
11168TIP3    H254920   5.871   5.830   6.010  0.4914  0.3011 -0.0057
11169TIP3   OH254921   2.207   5.606  11.829 -0.3734 -0.0081 -0.1591
11169TIP3    H154922   2.207   5.700  11.810  2.3459  0.3984  1.6096
11169TIP3    H254923   2.180   5.566  11.746  2.2098  2.1557 -2.1956
11170TIP3   OH254924   1.663   2.542   5.064 -0.2547 -0.0245 -0.1547
11170TIP3    H154925   1.678   2.491   5.144  1.3549 -0.2759 -0.5813
11170TIP3    H254926   1.569   2.556   5.060 -0.3459 -0.0586  1.7588
11171TIP3   OH254927   3.052   2.429   6.180 -0.2841  0.2977 -0.1278
11171TIP3    H154928   3.147   2.415   6.188 -0.0659  2.0044  0.5864
11171TIP3    H254929   3.031   2.486   6.254 -1.2095  3.0192 -2.3967
11172TIP3   OH254930   5.280   3.754  16.579  0.2614 -1.0316 -0.5342
11172TIP3    H154931   5.227   3.742  16.501  0.4487 -2.3460 -0.4750
11172TIP3    H254932   5.312   3.844  16.574 -0.7440 -0.7201 -1.3253
11173TIP3   OH254933   6.096   5.152   4.214  0.5384 -0.0260  0.1139
11173TIP3    H154934   6.151   5.104   4.276  1.5852 -0.5748 -1.2069
11173TIP3    H254935   6.024   5.186   4.267  0.9874 -1.1464  1.4851
11174TIP3   OH254936   3.214   3.919   0.448 -0.1218  0.0860  0.2697
11174TIP3    H154937   3.260   3.963   0.376 -2.0826 -0.6820 -1.5356
11174TIP3    H254938   3.188   3.989   0.507 -0.1590  0.9840 -0.7865
11175TIP3   OH254939   1.726   3.925  12.804  0.0685  0.2306 -0.3482
11175TIP3    H154940   1.724   4.016  12.775  1.0700 -0.4278 -2.5531
11175TIP3    H254941   1.807   3.918  12.855 -1.3672  1.2167  2.1891
11176TIP3   OH254942   5.848   5.963  11.926  0.3720  0.3310  0.4549
11176TIP3    H154943   5.768   5.997  11.965 -0.5306 -2.2191  0.8859
11176TIP3    H254944   5.864   6.019  11.851 -0.8836  1.8933  1.3330
11177TIP3   OH254945   6.787   2.317   0.568 -0.2724  0.2068  0.3409
11177TIP3    H154946   6.799   2.408   0.542 -0.8258  0.6786  1.6954
11177TIP3    H254947   6.751   2.274   0.490  0.9169  0.9273 -0.6047
11178TIP3   OH254948   2.966   5.414  15.103 -0.0829  0.7140  0.1037
11178TIP3    H154949   2.996   5.426  15.013 -2.5332 -2.1218 -1.1782
11178TIP3    H254950   3.044   5.385  15.151  1.1231  1.7561 -1.1985
11179TIP3   OH254951   4.859   6.072  14.252  0.0116  0.0721 -0.3178
11179TIP3    H154952   4.885   6.028  14.172  2.8521  0.0445  0.5798
11179TIP3    H254953   4.837   6.161  14.225  1.2500  0.1476 -1.0928
11180TIP3   OH254954   1.742   3.488  13.668 -0.6798 -0.0868  0.2927
11180TIP3    H154955   1.658   3.521  13.701 -0.8168 -1.5295  1.4509
11180TIP3    H254956   1.723   3.399  13.638  0.8047 -1.1451  2.3612
11181TIP3   OH254957   0.285   5.021   6.412 -0.4621 -0.4696 -0.3817
11181TIP3    H154958   0.262   4.931   6.390 -0.4764 -0.5202 -0.1670
11181TIP3    H254959   0.372   5.033   6.375  0.2837 -1.1502  1.0777
11182TIP3   OH254960   1.537   0.952   3.443 -1.0759  0.7257 -0.1690
11182TIP3    H154961   1.522   1.046   3.442  3.1836  1.5103 -0.5061
11182TIP3    H254962   1.511   0.922   3.356  0.0320  2.1057 -1.0005
11183TIP3   OH254963   0.265   1.369   0.363 -0.1349  0.2153 -0.4398
11183TIP3    H154964   0.311   1.376   0.447 -2.1046 -1.3234  0.7949
11183TIP3    H254965   0.230   1.280   0.362 -2.0443  0.9613 -1.8957
11184TIP3   OH254966   1.244   0.140   5.532 -0.3326  0.5132 -0.1083
11184TIP3    H154967   1.184   0.214   5.543 -1.4247 -0.5225  1.1773
11184TIP3    H254968   1.254   0.104   5.621  1.1177 -0.1615 -0.5330
11185TIP3   OH254969   1.290   0.912  12.941  0.2055 -0.0932  0.0951
11185TIP3    H154970   1.257   0.914  12.851 -4.9039  0.0401  1.7768
11185TIP3    H254971   1.275   0.821  12.969  0.7834  0.1378  1.1514
11186TIP3   OH254972   4.390   2.556   3.279 -0.0043  0.1962  0.4838
11186TIP3    H154973   4.469   2.516   3.314  0.3041  1.8183  1.7243
11186TIP3    H254974   4.421   2.612   3.208 -0.4056 -1.5133 -1.0832
11187TIP3   OH254975   6.236   2.416  11.243  0.0539  0.6007 -0.5191
11187TIP3    H154976   6.216   2.324  11.256  1.6271  0.2673 -0.4156
11187TIP3    H254977   6.208   2.459  11.324 -0.5232  0.2077 -0.5058
11188TIP3   OH254978   3.546   3.193   1.368 -0.9634 -0.0837 -0.1173
11188TIP3    H154979   3.506   3.110   1.341 -1.4102  0.7107 -2.0281
11188TIP3    H254980   3.515   3.257   1.303 -1.2749  1.7625  1.7765
11189TIP3   OH254981   4.316   6.535  12.906  0.5368 -0.4950 -0.0468
11189TIP3    H154982   4.257   6.591  12.957 -1.4956 -1.4931 -1.2553
11189TIP3    H254983   4.303   6.447  12.941  0.6718 -0.8597 -0.9014
11190TIP3   OH254984   5.388   3.875   2.612 -0.3631 -0.0858 -0.3609
11190TIP3    H154985   5.330   3.800   2.594  0.4088 -0.4069 -1.5284
11190TIP3    H254986   5.364   3.940   2.547 -1.0003  0.6798  0.6303
11191TIP3   OH254987   2.001   2.960  13.106 -0.4782  0.0498 -0.2443
11191TIP3    H154988   2.018   3.045  13.147 -1.2652 -0.5372  1.3381
11191TIP3    H254989   2.067   2.902  13.145 -2.0153 -0.7908  1.1544
11192TIP3   OH254990   2.944   1.454   3.343  0.6591 -0.7833  0.2380
11192TIP3    H154991   2.889   1.478   3.268  0.9468 -2.0146 -0.3781
11192TIP3    H254992   2.910   1.507   3.415 -0.5913 -0.6827 -0.4110
11193TIP3   OH254993   3.078   4.038  14.445 -0.4289  0.7246 -0.5074
11193TIP3    H154994   3.031   4.119  14.463 -0.0124  1.1577 -1.3462
11193TIP3    H254995   3.013   3.969  14.458 -0.5531  1.1199  1.0686
11194TIP3   OH254996   0.753   3.948   3.825  0.3184  0.3748 -0.3981
11194TIP3    H154997   0.725   3.857   3.816 -0.4426  0.3915  1.5034
11194TIP3    H254998   0.708   3.994   3.755 -0.3633 -0.4953 -0.5441
11195TIP3   OH254999   0.167   2.644   5.592 -0.3123 -0.1032 -0.0631
11195TIP3    H155000   0.263   2.640   5.592 -0.2472  1.0753 -1.3781
11195TIP3    H255001   0.147   2.720   5.646 -0.5057 -0.1978 -0.0027
11196TIP3   OH255002   3.910   6.048  15.479 -0.5398  0.2772  0.2141
11196TIP3    H155003   3.860   6.129  15.484  0.3354  0.7381  1.9706
11196TIP3    H255004   3.845   5.979  15.464 -1.3046  1.2677 -1.0938
11197TIP3   OH255005   4.035   5.308  14.406 -0.4822 -0.0268 -0.3391
11197TIP3    H155006   4.028   5.219  14.439  0.4087  0.2963  0.7397
11197TIP3    H255007   3.953   5.350  14.434  0.1210  0.1508  1.2358
11198TIP3   OH255008   3.217   2.264  13.217 -0.2407  0.4731 -0.8184
11198TIP3    H155009   3.229   2.358  13.205  2.1788  0.9917  4.2090
11198TIP3    H255010   3.139   2.256  13.271  1.0755 -0.1528  1.0541
11199TIP3   OH255011   1.427   6.587  13.190  0.0664 -0.0354  0.2425
11199TIP3    H155012   1.402   6.547  13.106 -1.7272 -0.9389  1.1876
11199TIP3    H255013   1.360   6.653  13.206  1.7417  1.8111 -0.1762
11200TIP3   OH255014   3.557   1.193   4.410 -0.3178 -0.1153 -0.0175
11200TIP3    H155015   3.529   1.124   4.349  2.4806 -1.7753  0.4880
11200TIP3    H255016   3.567   1.149   4.494 -1.1693  1.5238  0.9756
11201TIP3   OH255017   6.760   6.489  14.443 -0.6521  0.2433 -0.5582
11201TIP3    H155018   6.836   6.476  14.500 -2.3378  0.3838  1.7784
11201TIP3    H255019   6.761   6.584  14.425 -0.7620  0.3779  0.1438
11202TIP3   OH255020   4.735   2.080  16.798 -0.5461  0.3494 -0.1183
11202TIP3    H155021   4.777   2.160  16.768 -1.1854  0.5072 -0.6083
11202TIP3    H255022   4.787   2.051  16.873  0.0810  0.8531 -0.3654
11203TIP3   OH255023   1.424   5.903  17.076 -0.4008 -0.1553  0.0559
11203TIP3    H155024   1.451   5.821  17.036 -0.5728 -0.9404  1.5138
11203TIP3    H255025   1.498   5.962  17.063  0.5440 -1.1657  0.7777
11204TIP3   OH255026   6.105   6.102   4.615 -0.0314 -0.2548  0.5338
11204TIP3    H155027   6.068   6.013   4.614 -0.8011  0.0610  0.2423
11204TIP3    H255028   6.047   6.152   4.558  1.5928 -0.0263 -0.9448
11205TIP3   OH255029   3.676   3.434  11.253  0.0583  0.3613  0.2230
11205TIP3    H155030   3.584   3.451  11.231  0.2222  0.3814 -0.4641
11205TIP3    H255031   3.682   3.451  11.347  0.0197  3.2464 -0.2418
11206TIP3   OH255032   3.150   4.850  14.677 -0.7832  0.1538 -0.6156
11206TIP3    H155033   3.178   4.941  14.670  0.4804 -0.3808 -3.2512
11206TIP3    H255034   3.196   4.816  14.753  0.0559  1.2739 -0.6222
11207TIP3   OH255035   2.892   4.899   1.174 -0.1387  0.0566 -0.5669
11207TIP3    H155036   2.799   4.886   1.193  0.1558  0.1554  1.0102
11207TIP3    H255037   2.933   4.906   1.260  1.6924 -2.5077 -1.1630
11208TIP3   OH255038   2.602   2.891   0.391 -0.8454  0.1456  0.2287
11208TIP3    H155039   2.582   2.802   0.361  0.5109 -0.4074  0.9325
11208TIP3    H255040   2.526   2.943   0.363 -1.7083 -1.2447 -0.0888
11209TIP3   OH255041   3.427   4.136   3.417  0.3910  0.2953 -0.0524
11209TIP3    H155042   3.459   4.132   3.507  0.5546 -1.5980 -0.1820
11209TIP3    H255043   3.483   4.201   3.375  1.0098  0.4138  0.9278
11210TIP3   OH255044   2.388   1.001   7.065  0.1526  0.1561  0.6079
11210TIP3    H155045   2.373   1.047   6.982  1.6666  2.5976  1.6533
11210TIP3    H255046   2.421   0.915   7.039 -3.2948 -0.6817 -1.4034
11211TIP3   OH255047   4.849   6.126   1.247  0.7646  0.4230  1.0477
11211TIP3    H155048   4.810   6.199   1.296  0.6587  1.0179  0.0834
11211TIP3    H255049   4.893   6.074   1.314 -0.9410  0.2128  2.0319
11212TIP3   OH255050   6.135   0.759   1.242 -0.2810  0.2620  0.2449
11212TIP3    H155051   6.207   0.703   1.213 -0.8436 -0.1842 -0.3140
11212TIP3    H255052   6.167   0.848   1.227  0.3079  0.0748  0.3702
11213TIP3   OH255053   0.405   5.294  16.504  0.6500 -0.1920 -0.3269
11213TIP3    H155054   0.480   5.316  16.560 -0.7393  1.6368  0.8861
11213TIP3    H255055   0.434   5.316  16.415  0.5913  3.2799  0.4449
11214TIP3   OH255056   4.810   4.882   5.341  0.1146  0.4307  0.2961
11214TIP3    H155057   4.883   4.869   5.402  0.2962 -2.5951 -0.4968
11214TIP3    H255058   4.760   4.954   5.379  2.8454  1.7884  1.4751
11215TIP3   OH255059   3.152   1.641  11.215 -0.1597  0.1467 -0.1593
11215TIP3    H155060   3.076   1.584  11.227 -0.9327  1.3360  0.7406
11215TIP3    H255061   3.160   1.650  11.120 -1.2202  0.1115 -0.2621
11216TIP3   OH255062   2.327   1.207   1.310  0.0017 -0.2805  0.5283
11216TIP3    H155063   2.252   1.237   1.362 -0.9248 -0.5203 -0.6450
11216TIP3    H255064   2.321   1.258   1.228  0.5411 -1.0175  0.0278
11217TIP3   OH255065   1.447   6.559   0.774  0.6127  0.2246 -0.3137
11217TIP3    H155066   1.398   6.594   0.700  0.5210 -1.6407 -1.1447
11217TIP3    H255067   1.501   6.633   0.804 -0.3394  1.3654 -1.3827
11218TIP3   OH255068   1.954   5.828   5.099  0.0428  0.5349  0.3129
11218TIP3    H155069   1.999   5.754   5.057 -1.6690 -0.4532  0.1875
11218TIP3    H255070   1.959   5.808   5.193  1.2858  1.2528  0.4049
11219TIP3   OH255071   4.341   6.235  12.942  0.0443  0.4148  0.0097
11219TIP3    H155072   4.347   6.143  12.966 -1.6801  0.5587  0.9984
11219TIP3    H255073   4.427   6.271  12.964  0.5012 -0.7937  0.2306
11220TIP3   OH255074   5.229   2.829   5.817 -0.4595  0.2066  0.0616
11220TIP3    H155075   5.204   2.800   5.904 -0.4690  1.6781  0.5529
11220TIP3    H255076   5.174   2.777   5.758  0.6305 -1.8962  0.8528
11221TIP3   OH255077   4.809   6.111  10.981  0.2076 -0.4126  0.0259
11221TIP3    H155078   4.735   6.058  10.952 -0.4086  0.5341 -0.1612
11221TIP3    H255079   4.805   6.189  10.925  0.6204  0.1893  0.8370
11222TIP3   OH255080   2.583   6.340   2.368 -0.3308 -0.3150  0.2535
11222TIP3    H155081   2.660   6.346   2.311  0.3490 -1.6340  1.0028
11222TIP3    H255082   2.509   6.345   2.308  0.3276  0.8621 -0.4934
11223TIP3   OH255083   6.000   4.579  14.198 -0.0465 -0.1655 -0.2272
11223TIP3    H155084   6.030   4.499  14.154 -1.2758 -0.9611  0.3840
11223TIP3    H255085   6.080   4.617  14.235  0.8260 -0.1243 -2.0865
11224TIP3   OH255086   1.575   6.525   1.371 -0.2332  0.2523  0.3184
11224TIP3    H155087   1.574   6.448   1.313 -0.8412  0.4480  0.0733
11224TIP3    H255088   1.483   6.551   1.378  0.2265  2.8896 -2.1564
11225TIP3   OH255089   4.015   3.878   1.412 -0.2101 -0.0007 -0.6095
11225TIP3    H155090   4.017   3.964   1.452  0.2162 -0.4262  0.2927
11225TIP3    H255091   3.989   3.894   1.321 -2.4433  0.8405  0.1475
11226TIP3   OH255092   1.554   5.222   5.856  0.2834 -0.0937 -0.0053
11226TIP3    H155093   1.473   5.172   5.841 -0.6684  1.0270  1.2393
11226TIP3    H255094   1.604   5.168   5.917 -1.2209  0.9098  2.1890
11227TIP3   OH255095   2.161   4.140   4.331 -0.1406  0.7637 -0.2919
11227TIP3    H155096   2.190   4.207   4.269  2.2289  1.5043  1.5234
11227TIP3    H255097   2.133   4.067   4.277  1.5306  1.5193 -2.2433
11228TIP3   OH255098   3.311   1.061  16.165  0.1660  0.2003  0.0893
11228TIP3    H155099   3.257   1.129  16.126  0.9879  0.8908  0.1416
11228TIP3    H255100   3.265   0.979  16.144  0.2271  0.6084 -1.7445
11229TIP3   OH255101   5.500   5.168  11.099 -0.7324  0.0237  0.1505
11229TIP3    H155102   5.472   5.252  11.063  0.2729  0.9938  1.6011
11229TIP3    H255103   5.539   5.122  11.024  0.5902  1.6936 -0.2222
11230TIP3   OH255104   3.577   6.021   5.760 -0.2363 -0.3995 -0.0713
11230TIP3    H155105   3.566   6.093   5.697  0.6424 -0.9598 -0.8717
11230TIP3    H255106   3.662   5.983   5.738 -0.4613 -1.3487  0.6980
11231TIP3   OH255107   0.910   3.628   0.399 -0.3180 -0.1139  0.0838
11231TIP3    H155108   0.937   3.537   0.408  0.1800  0.0042 -0.2340
11231TIP3    H255109   0.986   3.679   0.428 -0.0253  0.2244 -1.2556
11232TIP3   OH255110   6.068   4.823  11.892 -0.2370 -0.6364  0.0299
11232TIP3    H155111   6.067   4.904  11.944 -2.0398 -1.0065  0.6147
11232TIP3    H255112   5.983   4.823  11.848  0.0056 -1.9082 -0.4413
11233TIP3   OH255113   2.183   0.554   3.790 -0.3468 -0.4835 -0.1382
11233TIP3    H155114   2.147   0.560   3.702  1.3149  0.6170 -0.7523
11233TIP3    H255115   2.271   0.519   3.778  0.0449  0.0588  1.0411
11234TIP3   OH255116   4.431   3.236   4.769  0.6573  0.2415  0.3789
11234TIP3    H155117   4.472   3.210   4.852 -0.5839 -1.8480  0.3693
11234TIP3    H255118   4.338   3.246   4.789 -0.1619 -3.1350 -1.3079
11235TIP3   OH255119   5.377   2.157   3.226  0.0021  0.8645 -0.3009
11235TIP3    H155120   5.464   2.117   3.236 -0.9334 -1.4775 -1.0319
11235TIP3    H255121   5.354   2.187   3.314  0.8709  0.0103  0.2336
11236TIP3   OH255122   6.465   1.267   6.447 -0.1505  0.4052 -0.3219
11236TIP3    H155123   6.545   1.318   6.436  1.4371 -1.3614  2.2755
11236TIP3    H255124   6.496   1.180   6.471 -2.8655 -0.4921  0.0855
11237TIP3   OH255125   1.956   0.415   5.801  0.0487 -0.3317 -0.2180
11237TIP3    H155126   1.936   0.355   5.873 -0.6353  0.9005  0.6281
11237TIP3    H255127   2.047   0.440   5.815  0.7771 -2.2069 -1.3526
11238TIP3   OH255128   4.471   5.937  15.781 -0.3926 -0.2434  0.4184
11238TIP3    H155129   4.523   5.936  15.700 -1.0973 -0.7536 -0.0306
11238TIP3    H255130   4.381   5.924  15.751 -0.5921 -0.9499  1.3382
11239TIP3   OH255131   6.146   4.149  13.709 -0.1630 -0.2376 -0.2380
11239TIP3    H155132   6.122   4.057  13.711 -0.5953 -0.1279 -0.3575
11239TIP3    H255133   6.072   4.193  13.667  0.0954  0.1468 -0.2984
11240TIP3   OH255134   2.529   4.347  13.993 -0.2508  0.3101 -0.2012
11240TIP3    H155135   2.579   4.428  14.002  0.5752 -0.1373 -0.6887
11240TIP3    H255136   2.449   4.374  13.949  0.3858  0.7345 -1.1177
11241TIP3   OH255137   5.797   6.364  16.731  0.6824 -0.1896 -0.0736
11241TIP3    H155138   5.859   6.388  16.800  2.7069  0.5987 -2.0878
11241TIP3    H255139   5.727   6.428  16.738  1.0227  0.0666  1.0463
11242TIP3   OH255140   1.309   4.287  16.709  0.2705 -0.2255  0.2143
11242TIP3    H155141   1.244   4.247  16.766 -1.3196  0.0663 -1.3640
11242TIP3    H255142   1.321   4.223  16.638  2.8364 -0.9706  1.2502
11243TIP3   OH255143   0.647   4.733   3.346 -0.0142  0.4440 -0.3042
11243TIP3    H155144   0.556   4.717   3.372  0.0672 -1.2284 -0.9481
11243TIP3    H255145   0.640   4.766   3.256  0.0118  0.2197 -0.3898
11244TIP3   OH255146   1.842   3.801   3.459 -0.6221 -0.6642  0.1065
11244TIP3    H155147   1.790   3.750   3.397 -2.0866 -0.0036  0.7864
11244TIP3    H255148   1.848   3.888   3.420  0.8947 -1.0055 -0.4822
11245TIP3   OH255149   2.259   0.453  14.744 -0.2697 -0.7210 -0.2743
11245TIP3    H155150   2.196   0.382  14.745 -0.5665 -0.4499  0.4560
11245TIP3    H255151   2.206   0.533  14.737 -0.0819 -0.4247  1.5065
11246TIP3   OH255152   5.900   5.187  14.526 -0.1729 -0.4867 -0.0750
11246TIP3    H155153   5.910   5.092  14.518  2.4849 -0.1987 -0.3682
11246TIP3    H255154   5.884   5.217  14.437  2.1730 -0.3339 -0.4735
11247TIP3   OH255155   0.719   2.289   2.775  0.6165 -0.6441 -0.1158
11247TIP3    H155156   0.783   2.255   2.838  0.9511 -1.2211 -0.7599
11247TIP3    H255157   0.755   2.266   2.689  0.7363  1.1558 -0.5615
11248TIP3   OH255158   3.199   1.019   1.702  0.0861  0.0214  0.0891
11248TIP3    H155159   3.124   1.037   1.759  0.1413  1.9875 -0.4384
11248TIP3    H255160   3.263   1.085   1.724  0.7831 -0.2481 -1.0594
11249TIP3   OH255161   5.918   4.559   1.612 -0.3846 -0.0090  0.1311
11249TIP3    H155162   5.869   4.597   1.685  0.3398 -1.2951  1.3096
11249TIP3    H255163   6.003   4.601   1.616 -1.8586  3.6551 -3.0765
11250TIP3   OH255164   6.599   6.010   4.093 -0.1914 -0.1276 -0.3550
11250TIP3    H155165   6.649   5.939   4.132  0.2297  0.5167  0.2873
11250TIP3    H255166   6.518   5.969   4.062 -0.1987 -0.7811  0.5260
11251TIP3   OH255167   4.751   0.411  12.711 -0.6596 -0.0230  0.0314
11251TIP3    H155168   4.818   0.480  12.720  0.8139 -1.2192 -1.3743
11251TIP3    H255169   4.679   0.453  12.666 -0.0205  0.7640 -0.2694
11252TIP3   OH255170   4.157   2.777   3.450 -0.1103  0.0630 -0.0811
11252TIP3    H155171   4.233   2.760   3.396  1.5463 -0.9937  2.4812
11252TIP3    H255172   4.091   2.714   3.421  1.0487 -1.0522 -0.2946
11253TIP3   OH255173   1.128   0.161   0.553  0.0062 -0.0091 -0.3050
11253TIP3    H155174   1.167   0.183   0.468 -0.5559  0.1496 -0.5254
11253TIP3    H255175   1.036   0.142   0.533 -0.2619  0.5801  0.3492
11254TIP3   OH255176   1.486   0.088   2.138  0.6208  0.6073  0.2669
11254TIP3    H155177   1.400   0.051   2.159  1.0374  0.4844  1.8507
11254TIP3    H255178   1.519   0.034   2.067 -0.4400  0.4016 -0.0802
11255TIP3   OH255179   2.503   0.216  12.359 -0.2929 -0.0699  0.4638
11255TIP3    H155180   2.587   0.258  12.338 -1.2314  1.6520  0.0602
11255TIP3    H255181   2.514   0.185  12.448  1.2305 -1.0283 -0.0360
11256TIP3   OH255182   2.822   4.048  10.589  0.2575 -0.5398 -0.1060
11256TIP3    H155183   2.768   4.066  10.666 -0.9716 -0.4424 -0.9780
11256TIP3    H255184   2.792   3.962  10.559  0.0900 -0.1712 -1.0036
11257TIP3   OH255185   0.856   3.258  13.783 -0.5905 -0.2960 -0.0740
11257TIP3    H155186   0.766   3.289  13.780  0.0846  2.4189  4.0031
11257TIP3    H255187   0.853   3.175  13.829 -1.0519 -0.3294 -0.1707
11258TIP3   OH255188   5.664   0.703  16.045 -0.1418 -0.2264 -0.1072
11258TIP3    H155189   5.589   0.705  15.987 -1.1898  1.1137  1.2387
11258TIP3    H255190   5.680   0.795  16.067  1.3615 -0.5628  0.2821
11259TIP3   OH255191   3.310   4.916   1.700 -0.1104  0.5551 -0.0332
11259TIP3    H155192   3.232   4.862   1.712 -0.9705  2.6217  4.5755
11259TIP3    H255193   3.381   4.864   1.737 -1.0386  2.5743  4.9917
11260TIP3   OH255194   3.877   4.862  10.959  0.0148  0.3657 -0.0735
11260TIP3    H155195   3.970   4.863  10.938  0.0211 -1.0507 -0.1379
11260TIP3    H255196   3.860   4.773  10.990 -1.2033  0.7701  0.4460
11261TIP3   OH255197   5.606   3.199  15.495  0.3961 -1.0398 -0.2094
11261TIP3    H155198   5.522   3.243  15.503  0.5869 -0.2569 -2.1710
11261TIP3    H255199   5.602   3.127  15.558 -0.5937  0.7297  1.8169
11262TIP3   OH255200   4.692   3.226   1.412 -0.0459  0.0780 -0.4094
11262TIP3    H155201   4.771   3.214   1.464 -0.7974 -0.8047  0.5708
11262TIP3    H255202   4.624   3.182   1.462 -1.4764  2.1566 -0.4605
11263TIP3   OH255203   3.869   2.375  11.277 -0.4198  0.0084 -0.0644
11263TIP3    H155204   3.934   2.434  11.239 -0.4333  0.2008  0.2143
11263TIP3    H255205   3.839   2.420  11.355 -1.5306  0.3146 -0.6635
11264TIP3   OH255206   0.873   6.064  12.211 -0.0282  0.4138  0.2128
11264TIP3    H155207   0.945   6.128  12.210 -0.9310  1.4580 -1.7990
11264TIP3    H255208   0.908   5.990  12.261  1.7396  1.6914  0.9394
11265TIP3   OH255209   6.503   3.198  12.108  0.0107  0.1388  1.0431
11265TIP3    H155210   6.473   3.207  12.017 -0.9401 -1.5352  1.1816
11265TIP3    H255211   6.566   3.126  12.105 -0.3872 -0.2404  1.8052
11266TIP3   OH255212   5.534   6.434  17.217  0.0790  0.1251  0.3700
11266TIP3    H155213   5.600   6.469  17.157 -0.1506 -1.7894 -1.0495
11266TIP3    H255214   5.543   6.486  17.296  3.2567 -0.0707  0.1747
11267TIP3   OH255215   3.239   4.316  14.367 -0.3294  0.0287 -0.5048
11267TIP3    H155216   3.282   4.268  14.296 -0.5521 -0.4051 -0.3448
11267TIP3    H255217   3.255   4.408  14.346  0.9990 -0.1334 -0.2390
11268TIP3   OH255218   6.217   4.316   2.568  0.6615 -0.3461 -0.2666
11268TIP3    H155219   6.267   4.282   2.643 -0.3387  2.0331  1.5390
11268TIP3    H255220   6.261   4.397   2.544  0.5623 -0.7457 -1.8642
11269TIP3   OH255221   1.020   4.232  11.567  0.4515  0.2831  0.3601
11269TIP3    H155222   0.979   4.216  11.652 -0.4998  0.2466 -0.0907
11269TIP3    H255223   1.102   4.184  11.570 -0.5866 -1.5283  0.4580
11270TIP3   OH255224   0.486   0.479   1.490  0.2401 -0.0083  0.4708
11270TIP3    H155225   0.404   0.521   1.461  1.1498  0.8395 -0.9270
11270TIP3    H255226   0.539   0.551   1.523  0.4166 -0.5662  1.3992
11271TIP3   OH255227   3.184   2.517  10.816 -0.1033 -0.1056  0.5528
11271TIP3    H155228   3.279   2.513  10.813 -0.0259  1.4869  0.7146
11271TIP3    H255229   3.155   2.487  10.730  0.5755  0.5498  0.1025
11272TIP3   OH255230   5.829   2.276  15.308  0.0027 -0.1656 -0.6799
11272TIP3    H155231   5.736   2.296  15.304 -0.3084 -1.0022  1.4358
11272TIP3    H255232   5.840   2.198  15.254 -0.4096  0.2663 -1.3971
11273TIP3   OH255233   1.118   2.171  11.018 -0.2179  0.2115 -0.9045
11273TIP3    H155234   1.159   2.179  10.931  0.2695 -0.4437 -0.7371
11273TIP3    H255235   1.080   2.257  11.034 -3.1081 -0.5406 -3.1766
11274TIP3   OH255236   5.460   6.453  14.487  0.3442  0.0545 -0.3840
11274TIP3    H155237   5.423   6.540  14.471 -0.3928 -0.5116 -1.8245
11274TIP3    H255238   5.551   6.470  14.512 -0.2721  1.3401  1.1162
11275TIP3   OH255239   2.065   6.633  14.270 -0.1714  0.8153 -0.9060
11275TIP3    H155240   2.138   6.609  14.213  1.0159  1.0765  0.4824
11275TIP3    H255241   2.102   6.696  14.332 -1.5076  0.7478 -0.0150
11276TIP3   OH255242   3.324   3.837  16.772  0.0071 -0.6407 -0.0582
11276TIP3    H155243   3.267   3.803  16.841 -1.3988 -0.8415 -1.2948
11276TIP3    H255244   3.266   3.847  16.696  0.8353  2.5581 -0.3387
11277TIP3   OH255245   0.522   3.043   2.323 -0.0949  0.8069 -0.0623
11277TIP3    H155246   0.493   2.969   2.270 -0.5388  1.3199 -0.5453
11277TIP3    H255247   0.465   3.116   2.296  0.5919  1.4232  0.1300
11278TIP3   OH255248   2.292   5.626  16.834 -0.1993 -0.2791  0.2608
11278TIP3    H155249   2.308   5.640  16.741  0.6293  0.7609  0.5433
11278TIP3    H255250   2.311   5.711  16.875  0.2147 -0.9315  1.4638
11279TIP3   OH255251   6.507   1.600   3.739 -0.1461 -0.6004  0.0992
11279TIP3    H155252   6.514   1.523   3.683  1.3832 -0.4439  0.0443
11279TIP3    H255253   6.597   1.633   3.745 -0.6206  0.5602  0.9854
11280TIP3   OH255254   6.158   4.535   4.232  0.0413 -0.4800  0.0715
11280TIP3    H155255   6.074   4.580   4.239  1.4016  2.0022  0.9260
11280TIP3    H255256   6.199   4.572   4.154  1.4674  0.3184  1.1734
11281TIP3   OH255257   5.814   2.455  17.104  0.3610 -0.2678 -0.4415
11281TIP3    H155258   5.846   2.474  17.015 -1.5894  0.1978 -1.0727
11281TIP3    H255259   5.877   2.392  17.139  1.1277 -0.5144 -2.1814
11282TIP3   OH255260   2.562   3.736   3.913 -0.1330 -0.1395  0.6393
11282TIP3    H155261   2.573   3.805   3.978  0.5804  0.6896 -0.3614
11282TIP3    H255262   2.515   3.777   3.841 -0.4617 -0.9185  0.4065
11283TIP3   OH255263   3.215   4.660   2.440  0.2544 -0.0469 -0.3049
11283TIP3    H155264   3.209   4.644   2.534  1.2576  0.8764 -0.0827
11283TIP3    H255265   3.265   4.741   2.432  0.5735 -0.3665 -1.6532
11284TIP3   OH255266   6.210   0.776   5.126  0.1555 -0.1871 -0.2944
11284TIP3    H155267   6.152   0.758   5.201  0.8093 -1.1981 -0.0252
11284TIP3    H255268   6.279   0.710   5.133  0.1651 -0.3482 -1.8505
11285TIP3   OH255269   1.458   1.310   0.810  0.3111 -0.0935  0.2340
11285TIP3    H155270   1.462   1.217   0.787  0.6880  0.3481 -1.6171
11285TIP3    H255271   1.529   1.350   0.759 -1.2156  1.5213 -0.6750
11286TIP3   OH255272   3.271   0.972   2.438 -0.5192 -0.5143  0.6961
11286TIP3    H155273   3.219   1.013   2.507  2.1857  0.7036  2.0830
11286TIP3    H255274   3.229   0.887   2.423 -1.9062 -0.2460  2.9204
11287TIP3   OH255275   2.694   1.656  11.912  0.0177  0.0954 -0.2953
11287TIP3    H155276   2.720   1.595  11.981 -3.6991 -1.6307 -0.2788
11287TIP3    H255277   2.716   1.611  11.831 -0.1870 -0.0816 -0.2550
11288TIP3   OH255278   4.760   2.300  12.209 -0.0531 -0.6570 -0.1867
11288TIP3    H155279   4.781   2.249  12.130 -0.9421  0.4500 -1.1587
11288TIP3    H255280   4.739   2.388  12.176 -0.0716 -0.0768  1.3212
11289TIP3   OH255281   0.294   1.513  16.646  0.2805 -0.1167 -0.1977
11289TIP3    H155282   0.275   1.587  16.588  0.1351 -1.8572 -2.4071
11289TIP3    H255283   0.210   1.469  16.658  0.1607  0.6213  1.9553
11290TIP3   OH255284   5.459   2.411  15.529 -0.8246  0.5157 -0.4895
11290TIP3    H155285   5.527   2.412  15.597  0.5155  2.7291 -1.7686
11290TIP3    H255286   5.378   2.394  15.576  0.5181 -1.5214  1.1853
11291TIP3   OH255287   4.347   3.592   2.404 -0.0645  0.4689  0.2522
11291TIP3    H155288   4.319   3.677   2.438 -0.8178  0.9624 -1.5412
11291TIP3    H255289   4.285   3.529   2.442 -1.4007  1.1133 -0.8476
11292TIP3   OH255290   1.715   0.362  15.418 -0.0109  0.0505  0.1567
11292TIP3    H155291   1.703   0.325  15.331  0.1142  0.5449 -0.0727
11292TIP3    H255292   1.635   0.411  15.435 -0.0252 -0.0255  0.3115
11293TIP3   OH255293   0.546   0.946  13.344 -0.3039  0.2128 -0.9291
11293TIP3    H155294   0.471   0.910  13.391 -2.2678  2.5623 -2.1159
11293TIP3    H255295   0.615   0.881  13.355 -2.6550 -2.2501 -0.2008
11294TIP3   OH255296   6.143   2.603   0.800 -0.3701  0.7862  0.2831
11294TIP3    H155297   6.080   2.651   0.855  0.1028  1.1810  0.4837
11294TIP3    H255298   6.137   2.512   0.831  0.1540  1.0695  1.2368
11295TIP3   OH255299   1.662   3.957   0.192  0.1924  0.3906 -0.2226
11295TIP3    H155300   1.587   3.907   0.160 -0.4782 -0.0996  2.0392
11295TIP3    H255301   1.727   3.891   0.215  0.3082  0.6798  0.2949
11296TIP3   OH255302   3.420   1.647  14.032  0.1903  0.3136 -0.3144
11296TIP3    H155303   3.373   1.679  13.955 -2.0200 -1.1746  0.3799
11296TIP3    H255304   3.476   1.577  13.999 -1.0576 -0.5955 -0.5103
11297TIP3   OH255305   2.514   4.676   2.830 -0.2410  0.3025  0.2219
11297TIP3    H155306   2.543   4.756   2.874  0.3826  1.8067 -2.8054
11297TIP3    H255307   2.433   4.701   2.786  0.5050 -0.3984 -1.6163
11298TIP3   OH255308   3.213   4.362   4.569 -1.0870  0.1623 -0.5707
11298TIP3    H155309   3.290   4.416   4.550 -2.0587  1.6732 -0.2869
11298TIP3    H255310   3.169   4.354   4.484 -1.6497  0.9394 -0.3540
11299TIP3   OH255311   3.646   5.966   3.463  0.0943  0.0590 -0.6779
11299TIP3    H155312   3.700   5.934   3.536  0.1925 -1.0152 -1.1997
11299TIP3    H255313   3.580   6.022   3.503  1.2885  0.9729  0.0300
11300TIP3   OH255314   0.681   6.288  10.798  0.1480  0.3865  0.1887
11300TIP3    H155315   0.753   6.235  10.833 -0.3837 -0.2149  0.3854
11300TIP3    H255316   0.623   6.225  10.755 -0.5753  0.7909  0.5598
11301TIP3   OH255317   3.923   3.176   3.959 -0.1947 -0.3338 -0.1762
11301TIP3    H155318   3.841   3.128   3.952  0.1029 -1.4340  3.2086
11301TIP3    H255319   3.991   3.110   3.951  0.2885  0.0371  0.7856
11302TIP3   OH255320   1.201   4.727  10.657  0.4235 -0.3289  0.2829
11302TIP3    H155321   1.135   4.707  10.590 -0.4992  1.9383  0.4910
11302TIP3    H255322   1.249   4.802  10.622  1.8975 -1.0009  0.8400
11303TIP3   OH255323   1.476   1.640   4.569 -0.0901  0.2460 -0.8761
11303TIP3    H155324   1.521   1.718   4.602  0.1852 -0.7919  1.2954
11303TIP3    H255325   1.537   1.568   4.587 -2.0965 -1.0375  1.1249
11304TIP3   OH255326   5.025   2.838  14.738 -0.3243  0.0350 -0.5200
11304TIP3    H155327   4.993   2.873  14.821  1.1026  0.1489  0.0043
11304TIP3    H255328   5.088   2.771  14.763  1.1498  1.0200 -1.4667
11305TIP3   OH255329   3.199   0.839   6.483 -0.3354 -0.2659 -0.1930
11305TIP3    H155330   3.294   0.833   6.494 -0.2844 -1.5426 -1.1574
11305TIP3    H255331   3.166   0.860   6.571  0.8227  0.0231  0.1824
11306TIP3   OH255332   5.634   5.178  16.317 -0.2543 -0.0164  0.0778
11306TIP3    H155333   5.686   5.240  16.265  1.1707 -0.7214  0.6457
11306TIP3    H255334   5.586   5.234  16.379  0.5180  0.5637  0.1567
11307TIP3   OH255335   6.275   1.681  13.013  0.0021 -0.4824 -0.1213
11307TIP3    H155336   6.249   1.740  12.943  0.9848 -0.3483 -0.3895
11307TIP3    H255337   6.256   1.729  13.094  1.0732  0.3320 -0.3429
11308TIP3   OH255338   0.789   5.977   4.683  0.0078  0.2042 -0.2768
11308TIP3    H155339   0.813   6.016   4.767  0.2212 -0.6554  0.0715
11308TIP3    H255340   0.871   5.943   4.649 -0.1379  0.2641 -0.6839
11309TIP3   OH255341   6.523   3.026   1.713  0.2244 -0.2479 -0.3256
11309TIP3    H155342   6.496   3.091   1.648 -0.7211 -1.0455 -0.7633
11309TIP3    H255343   6.506   3.067   1.797  0.3702  0.3645 -0.5922
11310TIP3   OH255344   3.926   1.696   3.279  0.6538 -0.0410  0.2131
11310TIP3    H155345   3.883   1.727   3.359  1.0763  1.4024 -0.0962
11310TIP3    H255346   3.891   1.752   3.210  1.8129  0.0738 -0.2949
11311TIP3   OH255347   4.997   4.726  11.582 -0.4026  0.1440  0.0103
11311TIP3    H155348   5.086   4.757  11.566  0.0025 -0.4727  1.0414
11311TIP3    H255349   5.008   4.643  11.628 -1.5069  0.0145  0.0537
11312TIP3   OH255350   4.773   0.960   3.289 -0.5529 -0.5135  0.3444
11312TIP3    H155351   4.712   1.029   3.264  0.5070  0.5065  0.5400
11312TIP3    H255352   4.856   0.986   3.251 -0.2610 -1.9712 -0.0458
11313TIP3   OH255353   5.979   2.739   0.991 -0.1091 -0.4826 -0.0201
11313TIP3    H155354   5.918   2.682   1.038  0.2689 -0.6622  0.2559
11313TIP3    H255355   5.941   2.827   0.998  0.6688 -0.2632  1.8670
11314TIP3   OH255356   2.455   5.509   1.482  0.6470 -0.1172  0.3371
11314TIP3    H155357   2.399   5.479   1.553  0.0499 -1.3302 -0.6216
11314TIP3    H255358   2.536   5.536   1.525 -0.2320  0.5126  1.6086
11315TIP3   OH255359   4.471   5.215   4.391 -0.1580  0.1216 -0.5285
11315TIP3    H155360   4.563   5.208   4.414 -0.6616  0.3106  1.6630
11315TIP3    H255361   4.461   5.156   4.316  1.0346 -2.7565  1.4481
11316TIP3   OH255362   4.343   2.879  13.055 -0.1893  0.2090  0.0213
11316TIP3    H155363   4.386   2.944  12.998 -0.8770  0.1998 -0.5110
11316TIP3    H255364   4.383   2.796  13.030  1.4552  0.5456  1.4332
11317TIP3   OH255365   5.165   4.436   4.591  0.0825 -0.4687 -0.7870
11317TIP3    H155366   5.261   4.431   4.595  0.1396  0.4315 -0.7548
11317TIP3    H255367   5.135   4.348   4.613  0.9033 -0.7596 -0.7949
11318TIP3   OH255368   1.390   3.706  15.505  0.4852 -0.2807  0.2587
11318TIP3    H155369   1.385   3.611  15.509  0.4624 -0.2435  1.1769
11318TIP3    H255370   1.385   3.734  15.596  1.7685  0.5341  0.0853
11319TIP3   OH255371   0.449   1.237   3.513 -0.0632 -0.0890  0.0341
11319TIP3    H155372   0.405   1.266   3.593  0.6610 -1.3708  0.9033
11319TIP3    H255373   0.426   1.304   3.448  0.2907  1.6143  1.5975
11320TIP3   OH255374   3.075   4.606   5.305  0.0469 -0.5871  0.4246
11320TIP3    H155375   3.097   4.693   5.273 -0.3097 -0.6609 -0.0311
11320TIP3    H255376   3.013   4.572   5.240  0.3773 -1.2728  0.4639
11321TIP3   OH255377   2.793   6.213   3.191  0.3034 -0.5874  0.0813
11321TIP3    H155378   2.830   6.128   3.212 -1.3495 -1.6569 -1.2268
11321TIP3    H255379   2.861   6.257   3.140  1.4371 -0.8268  1.3644
11322TIP3   OH255380   2.607   1.110  13.639  0.7281  0.3529 -0.3142
11322TIP3    H155381   2.570   1.103  13.551  0.4926  0.6502 -0.2392
11322TIP3    H255382   2.605   1.020  13.672  2.5651 -0.0804 -1.3132
11323TIP3   OH255383   2.359   3.202  16.238  0.4644  0.1127  0.2595
11323TIP3    H155384   2.305   3.132  16.200 -0.2003  0.4451  0.5910
11323TIP3    H255385   2.326   3.282  16.198  0.5432  0.3455  0.6593
11324TIP3   OH255386   2.118   2.483  16.616 -0.0107  0.0501  0.5724
11324TIP3    H155387   2.176   2.542  16.568 -0.1700  0.2344  0.6104
11324TIP3    H255388   2.030   2.515  16.597 -0.1901 -1.1770 -0.7600
11325TIP3   OH255389   2.996   3.673  11.593  0.0677  0.0485 -0.0734
11325TIP3    H155390   3.030   3.762  11.599 -0.6918  0.1996  3.1092
11325TIP3    H255391   3.064   3.619  11.634 -0.0370 -0.6594 -0.8293
11326TIP3   OH255392   5.141   5.315   0.272  0.1136  0.1615  0.2519
11326TIP3    H155393   5.053   5.314   0.234  0.0225  3.3764  0.2652
11326TIP3    H255394   5.127   5.333   0.365  0.7420 -0.8453  0.5597
11327TIP3   OH255395   6.236   2.653   1.186  0.1244 -0.2363  0.0207
11327TIP3    H155396   6.254   2.646   1.093 -0.2139 -0.5241 -0.0237
11327TIP3    H255397   6.295   2.722   1.217  0.3010 -0.2055 -0.3858
11328TIP3   OH255398   5.769   3.332   6.275 -0.4589  0.3649  0.5051
11328TIP3    H155399   5.835   3.394   6.244 -0.1860  0.0453  0.4569
11328TIP3    H255400   5.819   3.259   6.310 -0.7089  1.2200  2.7733
11329TIP3   OH255401   1.385   2.954   0.225 -0.0123 -0.4362  0.1385
11329TIP3    H155402   1.297   2.941   0.189  0.0014 -0.1942  0.0212
11329TIP3    H255403   1.425   3.021   0.170 -0.2386  0.4369  1.0321
11330TIP3   OH255404   0.679   4.336   5.379 -0.1676 -0.4362  0.4614
11330TIP3    H155405   0.597   4.288   5.388  1.0391 -2.6334  0.1857
11330TIP3    H255406   0.746   4.274   5.408  1.7252 -0.0185 -2.7997
11331TIP3   OH255407   0.301   5.892  15.177 -0.0235 -0.4171 -0.2654
11331TIP3    H155408   0.375   5.950  15.160  1.1144 -1.6545  0.4346
11331TIP3    H255409   0.278   5.910  15.268 -0.2674 -0.4023 -0.3289
11332TIP3   OH255410   0.714   1.160   2.189 -0.3657 -0.4360  0.5830
11332TIP3    H155411   0.684   1.139   2.277 -1.4633  0.4334  0.4244
11332TIP3    H255412   0.774   1.089   2.167  0.0931 -0.5450  2.1136
11333TIP3   OH255413   5.143   2.931  12.426 -0.0345  0.0794 -0.0671
11333TIP3    H155414   5.062   2.982  12.416 -0.6695 -0.7545  0.8162
11333TIP3    H255415   5.118   2.842  12.403  0.8962  0.0107 -0.8287
11334TIP3   OH255416   0.765   6.048  15.394  0.1012 -0.0112  0.5994
11334TIP3    H155417   0.788   6.139  15.414  0.0498  0.0629  0.3278
11334TIP3    H255418   0.759   6.005  15.479 -1.8159  0.6941  0.8389
11335TIP3   OH255419   1.808   2.664   2.940 -0.3706 -0.2170  0.4646
11335TIP3    H155420   1.759   2.628   3.014  1.0878  0.6572  1.8984
11335TIP3    H255421   1.836   2.587   2.890 -0.5535 -0.8610  1.3456
11336TIP3   OH255422   1.379   6.311   2.453 -0.6360  0.1250 -0.5308
11336TIP3    H155423   1.376   6.245   2.384  0.2432 -1.2038  0.6832
11336TIP3    H255424   1.460   6.292   2.501 -1.0260  1.2948  0.6248
11337TIP3   OH255425   3.814   5.749  13.257  0.0275  0.3507  0.5997
11337TIP3    H155426   3.810   5.696  13.336  2.6703 -0.4003  0.2678
11337TIP3    H255427   3.744   5.716  13.201 -1.6344  0.6574  2.4497
11338TIP3   OH255428   2.440   5.054   0.447  0.4501  0.8664  0.6453
11338TIP3    H155429   2.352   5.050   0.409 -0.0075 -0.0691  1.7702
11338TIP3    H255430   2.471   4.964   0.444  1.6995  1.3155 -0.4595
11339TIP3   OH255431   3.204   4.472   5.023 -0.3246  0.2293  0.0644
11339TIP3    H155432   3.246   4.516   5.097  0.3591  0.5062 -0.4829
11339TIP3    H255433   3.182   4.542   4.962  0.9853 -0.1904 -0.9173
11340TIP3   OH255434   0.318   2.751   1.915 -0.4951 -0.4024 -0.2627
11340TIP3    H155435   0.369   2.686   1.866 -1.0792 -0.6951 -0.4900
11340TIP3    H255436   0.298   2.818   1.850 -1.2790 -0.7957 -0.4387
11341TIP3   OH255437   5.251   2.180  13.681  0.5199  0.1272 -0.6699
11341TIP3    H155438   5.266   2.176  13.775  0.4210  3.3826 -0.4527
11341TIP3    H255439   5.280   2.095  13.648  2.0986 -0.4556  2.0871
11342TIP3   OH255440   3.500   4.500  11.985  0.1877  0.1473 -0.6773
11342TIP3    H155441   3.405   4.493  11.974  0.0950  0.4696 -0.0724
11342TIP3    H255442   3.525   4.574  11.930 -0.0739  0.8078  0.0887
11343TIP3   OH255443   1.578   3.799   4.258  0.1379 -0.0763  0.1038
11343TIP3    H155444   1.642   3.852   4.306 -0.7062  0.2816  0.8445
11343TIP3    H255445   1.530   3.863   4.204 -0.7585 -0.1026  0.8597
11344TIP3   OH255446   4.798   5.824  11.156 -0.2432 -0.4913 -0.4965
11344TIP3    H155447   4.752   5.814  11.073 -1.0742  1.3860 -0.2835
11344TIP3    H255448   4.729   5.843  11.220  0.6162  0.4519  0.1703
11345TIP3   OH255449   0.581   4.591  12.589 -0.1166  1.1230 -0.4494
11345TIP3    H155450   0.500   4.586  12.640  0.7216 -0.4112  0.7759
11345TIP3    H255451   0.574   4.519  12.527  0.3628  0.9048 -0.2498
11346TIP3   OH255452   6.331   3.233   2.332  0.3549  0.3574 -0.3741
11346TIP3    H155453   6.302   3.144   2.353  1.6750 -0.0157 -0.1004
11346TIP3    H255454   6.292   3.287   2.401  2.0589 -0.4425  1.2523
11347TIP3   OH255455   6.619   2.648  16.459 -0.2851  0.0191  0.1345
11347TIP3    H155456   6.617   2.703  16.380 -0.8991  0.4467  0.4388
11347TIP3    H255457   6.528   2.644  16.488 -0.4773 -2.4244 -0.7285
11348TIP3   OH255458   6.565   1.881  15.331  0.4071  0.3063  0.4003
11348TIP3    H155459   6.638   1.858  15.273  0.3408  0.4645  0.2549
11348TIP3    H255460   6.546   1.972  15.311 -0.8470 -0.1762 -0.6753
11349TIP3   OH255461   0.170   0.368  14.116 -0.1697  0.4490  0.2866
11349TIP3    H155462   0.101   0.388  14.053 -0.6368  0.4513  0.7864
11349TIP3    H255463   0.247   0.416  14.085  0.0850 -0.9258 -1.2210
11350TIP3   OH255464   0.019   4.147   4.960  0.6219 -0.1739  0.2055
11350TIP3    H155465  -0.017   4.219   5.012 -0.4726 -0.5148 -0.0654
11350TIP3    H255466   0.082   4.188   4.902  0.9781  0.3768  0.9726
11351TIP3   OH255467   5.075   1.929  12.046  0.0234  0.6270  0.2637
11351TIP3    H155468   5.071   1.875  11.967  1.9078  0.8052  0.0286
11351TIP3    H255469   4.990   1.916  12.088 -1.0224  0.5587 -1.8118
11352TIP3   OH255470   6.445   3.285   5.959  0.6570 -0.0385  0.0779
11352TIP3    H155471   6.389   3.362   5.950  0.2165 -0.3695 -0.0032
11352TIP3    H255472   6.476   3.290   6.050  1.7902  1.0220 -0.3569
11353TIP3   OH255473   5.048   4.281  16.139  0.2146  0.2599  0.1547
11353TIP3    H155474   5.096   4.225  16.078  0.2679  0.1049  0.3362
11353TIP3    H255475   4.968   4.233  16.157  0.3664  0.1331  0.4914
11354TIP3   OH255476   2.494   2.584   2.976 -0.5320  0.0545  0.3119
11354TIP3    H155477   2.548   2.509   2.949 -0.9503  0.2543 -1.1539
11354TIP3    H255478   2.407   2.547   2.991 -1.0419  0.3988 -1.5880
11355TIP3   OH255479   6.752   3.919   5.604  0.2508 -0.7868 -0.3619
11355TIP3    H155480   6.835   3.891   5.643  0.3460 -1.3469 -0.9531
11355TIP3    H255481   6.743   3.864   5.526 -0.7051 -0.7727 -0.2643
11356TIP3   OH255482   2.248   4.016   3.736  0.2187  0.0554 -0.2438
11356TIP3    H155483   2.186   4.001   3.807 -0.5851 -0.6773 -1.0849
11356TIP3    H255484   2.228   4.103   3.703 -0.3970 -0.2067 -0.5536
11357TIP3   OH255485   6.774   5.034   3.170  0.3583 -0.2865  0.0749
11357TIP3    H155486   6.680   5.021   3.156  0.3575 -0.6287  0.3898
11357TIP3    H255487   6.807   4.947   3.195  0.8772 -0.3121 -0.6927
11358TIP3   OH255488   6.229   2.643   4.818 -0.0718  0.2072  0.1078
11358TIP3    H155489   6.176   2.708   4.864  0.1240  0.6975 -0.3573
11358TIP3    H255490   6.318   2.658   4.849 -0.4666 -1.9762  2.4779
11359TIP3   OH255491   6.131   4.080  16.845  0.3457 -0.4338 -0.4656
11359TIP3    H155492   6.067   4.151  16.838 -0.5220 -1.1712 -0.0867
11359TIP3    H255493   6.136   4.060  16.938  2.3531  0.7007 -0.2883
11360TIP3   OH255494   5.729   0.523   4.798 -0.3421  0.2074 -0.3988
11360TIP3    H155495   5.711   0.430   4.781  0.6750 -0.0014 -0.3500
11360TIP3    H255496   5.787   0.522   4.874 -0.6594  0.9121 -0.1427
11361TIP3   OH255497   2.566   3.940   4.827  0.5574  0.0087  0.1715
11361TIP3    H155498   2.552   3.847   4.809 -0.7701  0.0728  0.8731
11361TIP3    H255499   2.653   3.944   4.868  0.2733 -1.0090  0.8688
11362TIP3   OH255500   2.185   4.948  13.364  0.3942 -0.3420 -0.0431
11362TIP3    H155501   2.219   5.006  13.432 -0.7291 -1.0392  1.1294
11362TIP3    H255502   2.263   4.922  13.314  1.0204  1.4579 -0.0634
11363TIP3   OH255503   3.021   1.553  16.832 -0.4981 -0.3964  0.6729
11363TIP3    H155504   3.073   1.492  16.780  1.2761  1.2999  0.3788
11363TIP3    H255505   3.017   1.514  16.919  1.4678 -0.4940  0.7485
11364TIP3   OH255506   1.455   4.164   5.495  0.0498 -0.2464  0.2935
11364TIP3    H155507   1.382   4.169   5.556  0.9122  0.7589  1.2701
11364TIP3    H255508   1.414   4.157   5.409 -1.1697 -1.8721  0.9855
11365TIP3   OH255509   6.327   3.345  17.040 -0.1641 -0.2235  0.1954
11365TIP3    H155510   6.423   3.336  17.033  0.0865 -0.6360  3.2583
11365TIP3    H255511   6.309   3.434  17.011  1.3770  0.4554  1.2406
11366TIP3   OH255512   3.904   6.289   1.811  0.0489 -0.5509 -0.4378
11366TIP3    H155513   3.918   6.269   1.718 -1.8422  0.5896 -0.9873
11366TIP3    H255514   3.859   6.373   1.812 -0.2530 -0.7003  1.5171
11367TIP3   OH255515   0.352   4.007  11.711 -0.2575 -0.1918  0.4516
11367TIP3    H155516   0.359   4.006  11.616  0.4164 -0.4743  0.4957
11367TIP3    H255517   0.380   4.095  11.737  0.4249 -0.4033  0.4410
11368TIP3   OH255518   1.155   3.596  12.119 -0.1663  0.3003  0.0279
11368TIP3    H155519   1.171   3.513  12.164  1.2440  1.2509  1.3181
11368TIP3    H255520   1.165   3.662  12.187 -0.1475  1.6170 -1.2340
11369TIP3   OH255521   2.322   5.460  14.920  0.1471  0.1309 -0.2467
11369TIP3    H155522   2.330   5.375  14.875 -0.2193 -0.3601  0.6055
11369TIP3    H255523   2.317   5.437  15.013 -2.8720  0.8847 -0.1608
11370TIP3   OH255524   4.529   0.345   5.945 -0.3027 -0.1965 -0.1024
11370TIP3    H155525   4.533   0.257   5.906 -1.2740 -0.2660 -0.0649
11370TIP3    H255526   4.551   0.332   6.037 -0.4724 -0.4116 -0.0905
11371TIP3   OH255527   1.424   1.034   2.756  0.5439  0.6095 -1.0036
11371TIP3    H155528   1.506   1.063   2.796  0.0694  0.3986  0.1239
11371TIP3    H255529   1.364   1.022   2.829  0.6793 -3.1274 -1.4131
11372TIP3   OH255530   2.986   5.260  14.807 -0.2136 -0.3432  0.4670
11372TIP3    H155531   2.953   5.184  14.855  0.6079 -0.2309  1.2323
11372TIP3    H255532   2.921   5.276  14.739  0.3402 -2.6551 -0.6555
11373TIP3   OH255533   0.853   6.603   4.826  0.3908 -0.2104  0.7440
11373TIP3    H155534   0.903   6.602   4.744 -0.2677  1.0530  0.3190
11373TIP3    H255535   0.761   6.604   4.798  0.1088 -2.0683  1.5148
11374TIP3   OH255536   1.120   2.047  13.079  0.2777  0.2468  0.5854
11374TIP3    H155537   1.174   1.969  13.092  1.4523  0.6786 -1.4956
11374TIP3    H255538   1.119   2.060  12.984 -3.0233  0.6181  0.6171
11375TIP3   OH255539   3.093   3.034  10.689 -0.1623  0.0692 -0.6445
11375TIP3    H155540   3.114   3.097  10.757 -1.3020 -0.1504 -0.0658
11375TIP3    H255541   3.122   3.074  10.608 -1.6173  1.7117 -0.3844
11376TIP3   OH255542   5.509   3.086   3.523  0.0526  0.3856  0.0135
11376TIP3    H155543   5.516   3.163   3.579 -1.1100 -0.5548  1.5037
11376TIP3    H255544   5.591   3.038   3.537  1.7389  2.3955 -2.5848
11377TIP3   OH255545   2.314   3.780  12.918 -0.4407  0.1355 -0.2000
11377TIP3    H155546   2.229   3.813  12.945 -0.4525 -0.2974  0.3183
11377TIP3    H255547   2.354   3.852  12.870 -0.5517  0.8313  0.7225
11378TIP3   OH255548   5.811   2.239  16.173 -0.3283  0.1368 -0.0568
11378TIP3    H155549   5.739   2.225  16.234 -0.4643  1.7182  0.1615
11378TIP3    H255550   5.886   2.260  16.228  0.4587 -1.9525 -0.2566
11379TIP3   OH255551   3.859   2.813  13.724 -0.1777  0.1984 -0.5452
11379TIP3    H155552   3.856   2.733  13.671 -0.3236 -0.6448  0.7110
11379TIP3    H255553   3.770   2.849  13.719 -0.1803  0.1399 -0.9049
11380TIP3   OH255554   3.477   1.892  13.680  0.2176 -0.2195  0.3854
11380TIP3    H155555   3.436   1.967  13.722 -0.3036 -0.8583  1.0552
11380TIP3    H255556   3.464   1.906  13.586 -0.6223  0.1039  0.5444
11381TIP3   OH255557   1.142   6.143  11.842 -0.2909  0.0728 -0.4687
11381TIP3    H155558   1.130   6.087  11.918 -0.8329 -0.3514 -0.8650
11381TIP3    H255559   1.068   6.123  11.785 -0.7068  1.4574 -0.4467
11382TIP3   OH255560   3.283   2.170   1.131  0.0309 -0.6413  0.6863
11382TIP3    H155561   3.290   2.120   1.212  3.0273  0.0020  0.8955
11382TIP3    H255562   3.358   2.142   1.078 -2.1634 -1.4442 -2.1359
11383TIP3   OH255563   6.181   0.795  13.358  0.3064  0.4486  0.5182
11383TIP3    H155564   6.096   0.760  13.330 -0.8050  2.0079  1.8337
11383TIP3    H255565   6.220   0.724  13.410 -0.5887  0.0393  0.6499
11384TIP3   OH255566   6.639   3.257  13.964 -0.0645  0.3539  0.6320
11384TIP3    H155567   6.686   3.259  13.881 -2.9160 -0.2638 -1.0592
11384TIP3    H255568   6.697   3.302  14.026  1.9934  1.0141 -1.7206
11385TIP3   OH255569   3.839   5.599   5.005 -0.9568  0.7822 -0.6536
11385TIP3    H155570   3.846   5.605   5.101  0.2102 -0.5280 -0.6466
11385TIP3    H255571   3.891   5.673   4.973 -2.3091  1.9236 -0.2751
11386TIP3   OH255572   6.562   4.504   0.575 -0.1450 -0.0619  0.5028
11386TIP3    H155573   6.625   4.522   0.644  0.7406 -0.5905 -0.1541
11386TIP3    H255574   6.493   4.453   0.617 -1.1427  2.1984  1.6819
11387TIP3   OH255575   4.188   5.736  14.212 -0.5203  0.1999  0.2497
11387TIP3    H155576   4.156   5.738  14.122  0.3360  0.2897 -0.0601
11387TIP3    H255577   4.187   5.827  14.240 -0.6698  0.1874  0.2827
11388TIP3   OH255578   3.141   2.304  12.746 -0.1428  0.0739 -0.0159
11388TIP3    H155579   3.183   2.316  12.660  0.1290 -0.2641  0.0712
11388TIP3    H255580   3.164   2.215  12.772 -0.1989  0.1875  0.4259
11389TIP3   OH255581   6.140   5.322  12.844 -0.1571  0.1947  0.0341
11389TIP3    H155582   6.213   5.273  12.884 -1.5224 -1.1343  0.9606
11389TIP3    H255583   6.181   5.402  12.811  1.4656  0.2307  1.9761
11390TIP3   OH255584   5.376   5.074  10.825 -0.4199 -0.1679  0.7180
11390TIP3    H155585   5.339   5.039  10.906  1.9336 -1.4456  1.2875
11390TIP3    H255586   5.470   5.059  10.833 -0.1130 -0.0274 -2.1310
11391TIP3   OH255587   5.876   5.089  11.712 -0.3932  0.0089 -0.2200
11391TIP3    H155588   5.930   5.122  11.784 -2.3442 -0.7596  1.6314
11391TIP3    H255589   5.813   5.159  11.695 -1.4482 -0.7739  0.4316
11392TIP3   OH255590   0.218   5.667   2.213 -0.2688  0.0237  0.5064
11392TIP3    H155591   0.178   5.599   2.160  0.4225 -0.4581  0.5967
11392TIP3    H255592   0.179   5.749   2.181 -1.2633 -0.4322  0.5640
11393TIP3   OH255593   6.127   4.076   2.981  0.3501 -0.3078 -0.7150
11393TIP3    H155594   6.100   4.104   2.894  0.0660 -1.9310 -1.1727
11393TIP3    H255595   6.146   4.157   3.028 -0.5577  0.6287 -1.9367
11394TIP3   OH255596   4.477   2.919  13.968 -0.7562  0.2406  0.2993
11394TIP3    H155597   4.542   2.958  13.910 -0.3407 -0.4149  0.3168
11394TIP3    H255598   4.505   2.828  13.978 -0.0345  0.6639  2.5991
11395TIP3   OH255599   2.563   4.059   2.689 -0.3015 -0.1459  0.3637
11395TIP3    H155600   2.512   4.065   2.608  0.2741  1.9597  0.1382
11395TIP3    H255601   2.501   4.083   2.757 -0.5939 -1.2167  0.4795
11396TIP3   OH255602   6.750   3.962   4.227  0.1097  0.0570 -0.1083
11396TIP3    H155603   6.758   4.031   4.294 -0.0412 -1.6017  1.6536
11396TIP3    H255604   6.836   3.921   4.224 -0.6329 -1.6473  1.0638
11397TIP3   OH255605   2.245   5.984  10.953  0.2050 -0.3202  0.2728
11397TIP3    H155606   2.274   5.896  10.976  1.9354  0.3132  0.5994
11397TIP3    H255607   2.275   5.996  10.862  1.6023  0.5692  0.8238
11398TIP3   OH255608   4.252   5.775   4.429 -0.1431  0.0303  0.2322
11398TIP3    H155609   4.263   5.870   4.431 -1.4424  0.1886 -0.0887
11398TIP3    H255610   4.335   5.743   4.394  0.9098  0.9289  1.8247
11399TIP3   OH255611   4.039   3.596   1.404  0.0984 -0.4129 -0.1287
11399TIP3    H155612   3.999   3.614   1.488  5.1794  0.2872  2.3604
11399TIP3    H255613   4.038   3.681   1.359  0.4195  0.0136  0.6565
11400TIP3   OH255614   6.025   0.360   2.807 -0.2017  0.4504  0.0133
11400TIP3    H155615   5.935   0.328   2.806 -0.0502  0.0302 -1.0421
11400TIP3    H255616   6.068   0.309   2.876 -0.5909  0.1577  0.0396
11401TIP3   OH255617   4.640   1.846   0.891  0.3160 -0.1437  0.0794
11401TIP3    H155618   4.617   1.878   0.978 -0.8464  0.8610 -0.5766
11401TIP3    H255619   4.625   1.751   0.896 -2.6872  0.2730  0.1245
11402TIP3   OH255620   1.456   4.901   4.262  0.3528 -0.0811 -0.0543
11402TIP3    H155621   1.367   4.867   4.260  0.5285 -0.6437  1.4615
11402TIP3    H255622   1.509   4.832   4.222  0.3723 -0.5806  0.8226
11403TIP3   OH255623   1.624   3.475  16.840 -0.1357 -1.1417  0.2809
11403TIP3    H155624   1.588   3.406  16.784 -0.1451 -0.5954 -0.4049
11403TIP3    H255625   1.714   3.486  16.809  0.2883 -1.7733  1.2819
11404TIP3   OH255626   3.142   0.684  16.573  0.1105  0.1092  0.6888
11404TIP3    H155627   3.232   0.714  16.561  0.7996 -2.7439 -1.8040
11404TIP3    H255628   3.144   0.637  16.656  0.8579  0.2214  0.7420
11405TIP3   OH255629   1.912   3.564  14.264  0.2955 -0.1406 -0.5078
11405TIP3    H155630   1.896   3.587  14.355  1.0214  0.9719 -0.6572
11405TIP3    H255631   1.903   3.469  14.261  1.0047 -0.2514  0.8629
11406TIP3   OH255632   4.011   5.264  16.857 -0.0808  0.5661  0.3885
11406TIP3    H155633   3.922   5.275  16.891 -0.0380  0.7687  0.4411
11406TIP3    H255634   4.057   5.343  16.885  0.0174  0.6311  0.0557
11407TIP3   OH255635   2.223   5.568  11.417 -0.1892 -0.2451 -0.3725
11407TIP3    H155636   2.285   5.641  11.424 -0.7761  0.0841  1.6798
11407TIP3    H255637   2.275   5.491  11.440 -0.3453 -0.0758  0.5379
11408TIP3   OH255638   2.870   2.484   5.667 -0.4604  0.3461  0.1877
11408TIP3    H155639   2.931   2.448   5.732  2.3188  0.5297 -2.2054
11408TIP3    H255640   2.858   2.412   5.605 -2.6427  0.3584  0.5743
11409TIP3   OH255641   6.240   2.123   0.076  0.3877 -0.2378  0.0369
11409TIP3    H155642   6.172   2.099   0.140 -1.7204 -1.2953 -2.5036
11409TIP3    H255643   6.308   2.166   0.129 -1.0844 -1.4012  3.0352
11410TIP3   OH255644   5.800   5.590   5.714 -0.3815 -0.0424 -0.2842
11410TIP3    H155645   5.830   5.645   5.786  1.7100 -2.7961  1.0239
11410TIP3    H255646   5.845   5.625   5.637  0.5064  0.3864  0.4315
11411TIP3   OH255647   6.603   3.048   2.888 -0.0020 -0.0773 -0.0044
11411TIP3    H155648   6.691   3.011   2.877  0.8866  1.8971  0.2530
11411TIP3    H255649   6.545   2.983   2.849  1.5869 -1.3469 -0.3062
11412TIP3   OH255650   1.755   6.563   2.973 -0.0355  0.8604  0.0113
11412TIP3    H155651   1.787   6.619   3.043 -1.2397  0.9072  0.5475
11412TIP3    H255652   1.707   6.493   3.019  2.5507 -1.3603 -0.5626
11413TIP3   OH255653   0.871   1.383   0.224  0.6812 -0.0649 -0.2493
11413TIP3    H155654   0.802   1.317   0.229  0.8244 -0.2158 -0.2836
11413TIP3    H255655   0.899   1.396   0.314  0.6858 -0.0838 -0.2481
11414TIP3   OH255656   1.301   3.101   5.858 -0.1883 -0.0660 -0.1177
11414TIP3    H155657   1.385   3.056   5.846  0.0809  0.5968 -0.7359
11414TIP3    H255658   1.308   3.143   5.944 -0.2654 -0.8131  0.2607
11415TIP3   OH255659   1.418   3.791  14.555 -0.0517 -0.3840  0.6445
11415TIP3    H155660   1.473   3.780  14.633  1.1215 -1.3386 -0.3061
11415TIP3    H255661   1.335   3.749  14.578  0.4558 -1.0912  1.1986
11416TIP3   OH255662   1.152   5.300  14.958 -0.2905  0.6783  0.1559
11416TIP3    H155663   1.131   5.393  14.949  0.3718  0.8605  0.4784
11416TIP3    H255664   1.221   5.297  15.024  1.5802  0.2052 -1.7329
11417TIP3   OH255665   4.883   2.046   5.625 -0.3373 -0.3796 -0.0346
11417TIP3    H155666   4.875   1.962   5.579  0.5064 -2.1669  2.9244
11417TIP3    H255667   4.977   2.065   5.622 -0.2553 -0.5943  1.0704
11418TIP3   OH255668   5.597   3.532   1.715 -0.2874  0.2900  0.2705
11418TIP3    H155669   5.637   3.613   1.747 -0.7501  1.6487 -2.4550
11418TIP3    H255670   5.503   3.547   1.721 -0.3758  0.0015 -0.2747
11419TIP3   OH255671   5.845   1.068   0.257  0.4693 -0.1287 -0.1633
11419TIP3    H155672   5.925   1.015   0.265  0.0277 -0.7852 -0.1222
11419TIP3    H255673   5.774   1.007   0.272 -0.0339  0.5618  0.2896
11420TIP3   OH255674   2.961   3.170   4.541 -0.2427  0.3887  0.0220
11420TIP3    H155675   3.057   3.175   4.547 -0.1425  2.1939 -2.3597
11420TIP3    H255676   2.934   3.135   4.626  2.5644 -0.6961  0.5354
11421TIP3   OH255677   6.368   4.645   6.531  0.0855 -0.3582 -0.2340
11421TIP3    H155678   6.439   4.591   6.567  1.9591  1.0887 -1.6236
11421TIP3    H255679   6.362   4.720   6.591 -0.6439 -0.7430  0.1781
11422TIP3   OH255680   6.022   4.229  16.164 -0.0789 -0.5089 -0.0118
11422TIP3    H155681   5.944   4.175  16.182  0.4490 -0.9541  0.9680
11422TIP3    H255682   6.093   4.166  16.154  0.3031 -0.0614 -0.1182
11423TIP3   OH255683   1.454   1.853   4.129  0.0945  0.1630 -0.3415
11423TIP3    H155684   1.433   1.800   4.205  1.0372 -2.0250 -1.5557
11423TIP3    H255685   1.532   1.812   4.092 -0.8298  0.6768 -2.9645
11424TIP3   OH255686   1.308   0.903  15.629 -0.1334 -0.2932  0.0909
11424TIP3    H155687   1.330   0.961  15.703 -0.9304 -1.1311  1.0038
11424TIP3    H255688   1.227   0.940  15.594 -0.1962 -0.3738  0.1528
11425TIP3   OH255689   5.270   6.575  17.106  0.1633  0.1164 -0.2388
11425TIP3    H155690   5.296   6.663  17.132  0.4938 -0.4518  1.4071
11425TIP3    H255691   5.347   6.521  17.122 -0.0345 -0.4817 -1.2504
11426TIP3   OH255692   6.555   0.438  16.748  0.0023  0.0996  1.3193
11426TIP3    H155693   6.491   0.423  16.678 -0.7150 -1.1163  2.2141
11426TIP3    H255694   6.503   0.437  16.828  0.7908  1.7537  1.8564
11427TIP3   OH255695   4.258   0.418   1.818  0.6689  0.1484  0.3342
11427TIP3    H155696   4.321   0.359   1.776  0.4449  0.0826  0.0823
11427TIP3    H255697   4.176   0.367   1.820 -0.2474  1.3796 -2.3372
11428TIP3   OH255698   2.898   1.667  12.352 -0.0690  0.2035  0.1585
11428TIP3    H155699   2.879   1.574  12.335 -1.5796  0.2159  1.6202
11428TIP3    H255700   2.842   1.714  12.290  1.2452  0.1378 -1.0892
11429TIP3   OH255701   5.099   5.490  16.573 -0.5946  0.2619 -0.0379
11429TIP3    H155702   5.095   5.396  16.557 -0.7042 -0.1129  2.0508
11429TIP3    H255703   5.128   5.528  16.490 -1.7079 -1.4899 -1.2387
11430TIP3   OH255704   4.549   3.525   4.718  0.5400  0.4024 -1.0849
11430TIP3    H155705   4.617   3.577   4.761 -0.4966  0.5283  0.4183
11430TIP3    H255706   4.575   3.434   4.733  0.8047  0.4542 -1.2237
11431TIP3   OH255707   3.964   1.911   5.079  0.1869 -0.1944 -0.5970
11431TIP3    H155708   3.925   1.865   5.154 -0.5223  0.5762 -0.4826
11431TIP3    H255709   3.889   1.945   5.030  0.6361 -1.0195 -1.8767
11432TIP3   OH255710   3.578   5.651   1.412 -0.7095 -0.0599 -0.4346
11432TIP3    H155711   3.620   5.694   1.486  0.4575 -1.0367 -0.5175
11432TIP3    H255712   3.509   5.597   1.452  0.3061 -1.0497  0.0096
11433TIP3   OH255713   1.105   0.237   0.144  0.3322 -0.4803 -0.4516
11433TIP3    H155714   1.117   0.171   0.075  0.4563 -1.2167  0.2646
11433TIP3    H255715   1.187   0.236   0.193  0.3106  0.1695 -0.4063
11434TIP3   OH255716   0.138   0.745  13.264  0.4042 -0.1699 -0.4446
11434TIP3    H155717   0.157   0.819  13.205 -1.5623  0.1084 -0.7711
11434TIP3    H255718   0.156   0.667  13.211 -0.4520  0.0836 -1.1220
11435TIP3   OH255719   2.596   2.087  11.693  0.5229  0.0509  0.1363
11435TIP3    H155720   2.528   2.022  11.674 -1.6004  2.0233  0.8055
11435TIP3    H255721   2.638   2.103  11.608 -0.2343 -0.7776 -0.4031
11436TIP3   OH255722   6.038   2.261  17.133  0.2098  0.0097  0.0765
11436TIP3    H155723   6.095   2.251  17.057 -0.2454 -1.0584 -0.1234
11436TIP3    H255724   6.082   2.214  17.203 -0.2317 -0.4955  0.0185
11437TIP3   OH255725   6.646   3.710  15.871  0.2385  0.4320  0.3080
11437TIP3    H155726   6.724   3.762  15.850  0.4080  0.2906  0.5828
11437TIP3    H255727   6.613   3.747  15.953  0.1273  0.3684  0.2917
11438TIP3   OH255728   4.499   0.325   1.748  0.5978 -0.2643  0.4858
11438TIP3    H155729   4.539   0.412   1.751 -0.0140  0.1087 -1.4091
11438TIP3    H255730   4.567   0.266   1.779  1.4350  0.7448  0.6112
11439TIP3   OH255731   4.130   0.850   3.362 -0.4132  0.1101  0.3303
11439TIP3    H155732   4.222   0.852   3.334 -0.6082 -0.2803 -0.3380
11439TIP3    H255733   4.125   0.916   3.432  0.1036  0.9756 -0.4390
11440TIP3   OH255734   6.079   2.653  16.222  0.0751 -0.1766 -0.3217
11440TIP3    H155735   6.104   2.561  16.211  2.3439  0.4771 -1.0240
11440TIP3    H255736   6.023   2.671  16.147 -1.0177 -1.1822  0.2335
11441TIP3   OH255737   6.285   1.764  10.960  0.0323 -0.2002 -0.5234
11441TIP3    H155738   6.211   1.801  10.912 -0.9116 -1.4453 -0.0527
11441TIP3    H255739   6.299   1.678  10.920  0.1514 -0.6561  0.4817
11442TIP3   OH255740   0.590   5.460  12.890 -1.0108 -0.2981 -0.6970
11442TIP3    H155741   0.543   5.396  12.837 -0.0399 -3.0227  1.6386
11442TIP3    H255742   0.558   5.447  12.979  0.4577  1.2674  0.0977
11443TIP3   OH255743   3.340   1.844   3.080 -0.3610 -0.4087  0.2990
11443TIP3    H155744   3.341   1.868   3.172  1.9577 -0.0797  0.2218
11443TIP3    H255745   3.428   1.810   3.063 -0.4907  0.3049 -1.9811
11444TIP3   OH255746   0.289   3.409   0.696  0.1312 -0.4330  0.3128
11444TIP3    H155747   0.242   3.326   0.688  1.0116 -0.9579  0.4187
11444TIP3    H255748   0.279   3.450   0.610 -1.2073 -0.1480  0.5936
11445TIP3   OH255749   1.629   4.030   3.930  0.1209  0.3949  0.1013
11445TIP3    H155750   1.587   4.106   3.970  1.0871  0.5626  0.8158
11445TIP3    H255751   1.566   3.958   3.943 -1.1199  1.2255 -1.2465
11446TIP3   OH255752   6.206   1.317   1.007  0.1818 -0.6956  0.2188
11446TIP3    H155753   6.276   1.283   1.061 -1.1386 -1.1150  1.6997
11446TIP3    H255754   6.152   1.369   1.066  0.0497  0.8620 -1.2072
11447TIP3   OH255755   3.472   3.297   3.869 -0.2966 -0.2694  0.8559
11447TIP3    H155756   3.403   3.327   3.927  0.3905  2.5659  0.2629
11447TIP3    H255757   3.552   3.336   3.904  0.3882  0.0014 -0.9275
11448TIP3   OH255758   0.776   4.021   0.088 -0.1739 -0.4128 -0.3910
11448TIP3    H155759   0.745   3.936   0.119  0.2578 -0.3852  0.1217
11448TIP3    H255760   0.795   4.070   0.167  0.0604 -0.0140 -0.6918
11449TIP3   OH255761   2.192   6.414   5.314  0.3297 -0.3633 -1.0450
11449TIP3    H155762   2.108   6.371   5.330  0.0591  0.1009 -1.2048
11449TIP3    H255763   2.256   6.358   5.358 -0.5116  1.6503  3.0409
11450TIP3   OH255764   3.501   0.253  13.092 -0.4908  0.2156 -0.4080
11450TIP3    H155765   3.422   0.246  13.039 -1.3326  0.5286  0.8068
11450TIP3    H255766   3.519   0.163  13.121 -0.0267  0.0434 -1.2056
11451TIP3   OH255767   3.060   0.047  14.136  0.1148 -0.5214  0.1430
11451TIP3    H155768   3.111   0.077  14.211 -1.0920  1.3522  0.2470
11451TIP3    H255769   2.983   0.004  14.176  0.5382 -1.4564 -0.0265
11452TIP3   OH255770   6.721   6.492  10.897  0.6247  0.0519  0.6125
11452TIP3    H155771   6.751   6.577  10.929 -1.3810  0.7354  0.7182
11452TIP3    H255772   6.679   6.511  10.813  0.5490 -0.9194  0.4152
11453TIP3   OH255773   5.566   0.557  13.725  0.2574  0.1157 -0.0544
11453TIP3    H155774   5.610   0.479  13.691  0.2420  0.4749 -0.9112
11453TIP3    H255775   5.512   0.525  13.797 -0.3844 -0.8045 -0.9287
11454TIP3   OH255776   1.958   1.142  11.747  0.0543  0.4278  0.0758
11454TIP3    H155777   1.991   1.210  11.687  0.4592  0.7029  0.6073
11454TIP3    H255778   1.907   1.190  11.812 -1.2825  0.0145 -0.6549
11455TIP3   OH255779   3.860   3.934  14.383  0.5748  0.3329 -0.0440
11455TIP3    H155780   3.887   4.012  14.335 -0.5841  0.6514 -0.1920
11455TIP3    H255781   3.769   3.951  14.407  0.0888 -1.2836 -0.7183
11456TIP3   OH255782   1.942   2.465  11.290  0.3316  0.8211  0.2004
11456TIP3    H155783   1.966   2.438  11.202 -3.8356  0.4565 -0.9414
11456TIP3    H255784   1.970   2.556  11.297  2.7175  0.1794 -0.6273
11457TIP3   OH255785   2.001   5.906  15.017 -0.3815  0.1357  0.3883
11457TIP3    H155786   1.956   5.983  15.053 -0.2434  0.3642  0.0738
11457TIP3    H255787   1.935   5.865  14.960 -0.3509  0.1968  0.3096
11458TIP3   OH255788   3.385   6.186  17.212  0.3497  0.1343 -0.2899
11458TIP3    H155789   3.376   6.247  17.139 -0.1873  1.4209  0.8304
11458TIP3    H255790   3.346   6.232  17.287 -1.2188 -2.1029  0.3030
11459TIP3   OH255791   0.774   5.064  11.009  0.2514  0.5276  0.6134
11459TIP3    H155792   0.710   5.039  11.075 -0.3892 -0.2873 -0.2964
11459TIP3    H255793   0.788   4.984  10.958  2.2657  0.5973  1.0239
11460TIP3   OH255794   0.346   4.563  12.743  0.5427 -0.1130 -0.3298
11460TIP3    H155795   0.373   4.626  12.810  0.5591 -2.4893  1.9868
11460TIP3    H255796   0.257   4.539  12.768  0.9293 -1.8166 -0.5448
11461TIP3   OH255797   4.767   3.382   2.694 -0.7019  0.0236  0.2190
11461TIP3    H155798   4.802   3.465   2.727 -0.0242 -0.2339  0.1684
11461TIP3    H255799   4.680   3.404   2.660  0.1184  1.0544 -1.2887
11462TIP3   OH255800   0.138   1.194  10.771  0.0579 -0.8627 -0.3362
11462TIP3    H155801   0.210   1.182  10.709  0.3226 -0.3277 -0.1360
11462TIP3    H255802   0.137   1.289  10.788 -0.0251 -1.0057  0.4606
11463TIP3   OH255803   4.854   1.750   0.023  0.0939 -0.0319  0.6723
11463TIP3    H155804   4.872   1.675  -0.034 -1.5331 -0.9130  1.3053
11463TIP3    H255805   4.794   1.804  -0.028  1.2952  0.8902  0.2017
11464TIP3   OH255806   6.496   4.290   1.681  0.5492  0.2427  0.0137
11464TIP3    H155807   6.560   4.233   1.639  0.1194 -0.0508 -0.2587
11464TIP3    H255808   6.503   4.373   1.634  0.6630  0.1827 -0.0762
11465TIP3   OH255809   3.356   1.232  14.337  0.2763  0.0269 -0.0173
11465TIP3    H155810   3.298   1.207  14.265  2.3283  2.4188 -2.6285
11465TIP3    H255811   3.314   1.308  14.377  0.3981  0.2674 -0.3449
11466TIP3   OH255812   3.460   6.086  12.013  0.4903 -0.7535 -0.1225
11466TIP3    H155813   3.451   6.119  12.103 -2.5039  1.5979 -1.2097
11466TIP3    H255814   3.520   6.147  11.971 -0.3040 -0.2057 -0.4710
11467TIP3   OH255815   0.375   4.814   2.770  0.3066  0.2207 -0.3958
11467TIP3    H155816   0.345   4.732   2.809 -1.1155  1.3535  0.9353
11467TIP3    H255817   0.306   4.839   2.710 -0.5909  1.8667  1.2816
11468TIP3   OH255818   5.788   4.775  17.228  0.4620  0.0355 -0.3695
11468TIP3    H155819   5.849   4.750  17.297  1.2361  2.0419 -0.2881
11468TIP3    H255820   5.702   4.765  17.267  0.8732  0.6470  0.7130
11469TIP3   OH255821   3.281   6.565   5.477  0.1895  0.0745  0.4502
11469TIP3    H155822   3.245   6.654   5.475  2.2019  0.8986 -0.4154
11469TIP3    H255823   3.356   6.571   5.537  0.2595 -1.0618  0.4780
11470TIP3   OH255824   5.825   1.186   3.072 -0.2003 -0.4868 -0.1618
11470TIP3    H155825   5.842   1.280   3.064 -1.5225 -0.0917  1.3504
11470TIP3    H255826   5.749   1.170   3.017  0.0938 -0.6888 -0.5084
11471TIP3   OH255827   0.212   4.725  14.341  0.2595  0.1751  0.1812
11471TIP3    H155828   0.180   4.635  14.331  0.3407 -0.0201  1.5600
11471TIP3    H255829   0.144   4.770  14.391  0.1639  0.9213 -0.6056
11472TIP3   OH255830   1.557   0.250  11.842 -0.4173 -0.0888 -0.2259
11472TIP3    H155831   1.600   0.331  11.815  0.7758 -0.4847  0.4527
11472TIP3    H255832   1.500   0.275  11.914 -0.5135  0.2406 -0.4121
11473TIP3   OH255833   3.831   0.751   1.761 -0.1570  0.0333  0.8414
11473TIP3    H155834   3.827   0.766   1.666  0.5883  1.4208  1.0150
11473TIP3    H255835   3.773   0.818   1.797 -3.3626 -2.7745  1.1918
11474TIP3   OH255836   1.612   6.174   2.500  0.7802  0.5021 -0.0025
11474TIP3    H155837   1.632   6.097   2.446  0.4599  0.1622  0.3669
11474TIP3    H255838   1.577   6.138   2.581  2.1947  0.9888  0.8322
11475TIP3   OH255839   4.639   1.457   2.499  0.2513  0.3518 -0.1954
11475TIP3    H155840   4.544   1.462   2.510 -0.0413 -2.2205 -1.1403
11475TIP3    H255841   4.651   1.445   2.404  1.4067 -1.1657  0.1317
11476TIP3   OH255842   2.625   0.792   5.310  0.4901 -0.4163 -0.2241
11476TIP3    H155843   2.713   0.813   5.279  0.7691 -0.8137  0.2987
11476TIP3    H255844   2.588   0.738   5.240  1.6324 -2.5103  0.7252
11477TIP3   OH255845   4.973   5.724   2.071  0.3698  0.0853  0.2426
11477TIP3    H155846   5.004   5.790   2.133  0.0327  1.7164 -1.2513
11477TIP3    H255847   4.890   5.759   2.039 -0.0490 -1.3151 -0.2277
11478TIP3   OH255848   1.569   4.018   4.676  0.0062  0.2225  0.1965
11478TIP3    H155849   1.527   4.057   4.753  2.3460 -1.1854  2.2973
11478TIP3    H255850   1.557   3.924   4.688  0.7337 -0.0299 -0.9909
11479TIP3   OH255851   1.211   4.659   5.292 -0.0352  0.2174  0.2807
11479TIP3    H155852   1.303   4.636   5.301  0.2950  1.9032  1.3226
11479TIP3    H255853   1.173   4.644   5.379 -0.9359 -1.2643 -0.3517
11480TIP3   OH255854   1.066   3.769  11.916  0.1080  0.1726  0.1325
11480TIP3    H155855   1.003   3.714  11.870  0.5380  0.0950 -0.3689
11480TIP3    H255856   1.106   3.712  11.980  1.9729 -0.6532 -1.7037
11481TIP3   OH255857   4.869   4.755  13.492 -0.4323 -0.0029  0.5467
11481TIP3    H155858   4.864   4.850  13.488 -1.5915 -0.0973 -0.3898
11481TIP3    H255859   4.962   4.737  13.508 -0.1167  1.2569  0.2110
11482TIP3   OH255860   1.646   0.713   3.522  0.3689 -0.3098 -0.4629
11482TIP3    H155861   1.741   0.702   3.514  0.4272  0.6624 -1.2194
11482TIP3    H255862   1.628   0.797   3.479 -0.6780  0.0962  0.7288
11483TIP3   OH255863   6.175   5.667   2.472  0.6149 -0.0296  0.2676
11483TIP3    H155864   6.164   5.688   2.379 -0.6593 -1.0394  0.1875
11483TIP3    H255865   6.101   5.710   2.515 -0.0724 -1.4574  0.5276
11484TIP3   OH255866   6.252   5.530  13.464 -0.4046 -1.1375  0.2508
11484TIP3    H155867   6.225   5.605  13.517 -0.8283 -0.6595 -0.6198
11484TIP3    H255868   6.196   5.458  13.493 -1.2974 -0.6323 -0.2207
11485TIP3   OH255869   3.605   1.479   3.405 -0.5639  0.3727 -0.7873
11485TIP3    H155870   3.563   1.511   3.485 -1.3926  0.5182 -1.2674
11485TIP3    H255871   3.694   1.456   3.431 -0.7775  0.5889  0.1350
11486TIP3   OH255872   0.572   4.157  15.051 -0.6068  0.2807 -0.6079
11486TIP3    H155873   0.588   4.063  15.045 -0.5984  0.3663 -2.0673
11486TIP3    H255874   0.656   4.195  15.077 -0.7011 -0.1437  0.3337
11487TIP3   OH255875   5.579   1.201   0.058 -0.3347 -0.0615  0.5028
11487TIP3    H155876   5.485   1.193   0.078 -0.4500  0.4432  0.1810
11487TIP3    H255877   5.591   1.294   0.037  0.4091  0.0466  1.3974
11488TIP3   OH255878   5.675   2.555   1.659  0.1790 -0.1029 -0.6057
11488TIP3    H155879   5.658   2.481   1.717  0.2062  1.3766  1.3484
11488TIP3    H255880   5.606   2.549   1.593 -1.9151  0.0348  1.4715
11489TIP3   OH255881   5.140   3.367  16.617  0.0485  0.3394 -0.2545
11489TIP3    H155882   5.204   3.416  16.668  0.1485 -0.0543 -0.0012
11489TIP3    H255883   5.055   3.400  16.646  0.1158  0.3538 -0.0726
11490TIP3   OH255884   5.802   0.822   2.875  0.2480  0.8383 -0.1046
11490TIP3    H155885   5.837   0.787   2.792  0.3956 -1.5742  0.9468
11490TIP3    H255886   5.713   0.848   2.854  0.6742  1.3873 -1.3165
11491TIP3   OH255887   0.370   4.487   2.766 -0.0920  0.3266 -0.4777
11491TIP3    H155888   0.354   4.397   2.737  2.5445 -0.8572  1.4850
11491TIP3    H255889   0.440   4.519   2.709  0.4489  0.3752  0.2128
11492TIP3   OH255890   4.688   3.557   1.476 -0.0928 -0.3710 -0.0334
11492TIP3    H155891   4.766   3.612   1.470 -0.1587 -0.1087  1.2470
11492TIP3    H255892   4.708   3.479   1.425  0.2436  0.5784 -1.3587
11493TIP3   OH255893   5.361   4.927  12.790  0.3479 -0.0273 -0.7185
11493TIP3    H155894   5.289   4.985  12.765  1.4335  0.6222 -2.4191
11493TIP3    H255895   5.391   4.888  12.707 -0.0449 -2.6745  0.3231
11494TIP3   OH255896   1.809   1.069  10.430 -0.3841 -0.0548 -0.1086
11494TIP3    H155897   1.795   1.089  10.522 -1.0979 -0.5722 -0.1031
11494TIP3    H255898   1.865   1.140  10.398 -0.9078  0.6328  0.4955
11495TIP3   OH255899   5.543   3.814  11.168  0.1802  0.4371  1.5272
11495TIP3    H155900   5.470   3.849  11.117 -0.0002  0.3966  1.7625
11495TIP3    H255901   5.512   3.730  11.202  0.6055  0.0550  0.9886
11496TIP3   OH255902   3.195   0.999   3.347  0.2607 -0.0464 -0.0741
11496TIP3    H155903   3.185   1.092   3.364  0.4338  0.2108 -1.3837
11496TIP3    H255904   3.243   0.966   3.423  0.3441  0.9571  0.3094
11497TIP3   OH255905   5.491   1.505   4.526  0.1219 -0.2671 -0.4169
11497TIP3    H155906   5.431   1.432   4.512  1.8442 -1.2519 -2.9357
11497TIP3    H255907   5.568   1.465   4.567 -0.7322  0.9356  2.5053
11498TIP3   OH255908   0.905   2.120  16.514  0.1023  0.5499  0.0667
11498TIP3    H155909   0.862   2.036  16.530 -0.2916  0.9357  1.0505
11498TIP3    H255910   0.992   2.109  16.552  0.4009  0.2556 -0.6791
11499TIP3   OH255911   5.235   3.529   4.385 -0.5163 -0.2590 -0.4906
11499TIP3    H155912   5.306   3.466   4.398  0.5962  0.6604 -1.9984
11499TIP3    H255913   5.176   3.514   4.459  1.9564 -0.0813  1.5870
11500TIP3   OH255914   4.011   4.762  12.688 -0.1063  0.1364  0.0496
11500TIP3    H155915   4.097   4.800  12.671  0.0695 -0.5496 -0.6516
11500TIP3    H255916   3.989   4.717  12.606  0.2967 -2.4071  1.3049
11501TIP3   OH255917   1.786   4.318  12.203 -1.1531 -0.8960 -0.2785
11501TIP3    H155918   1.715   4.369  12.243 -0.7230  0.1810 -0.8699
11501TIP3    H255919   1.866   4.360  12.234 -0.7926 -1.0854 -0.9418
11502TIP3   OH255920   3.570   4.832  11.229 -0.2279  0.3656  0.0748
11502TIP3    H155921   3.635   4.902  11.235  0.8223 -0.5759 -0.0279
11502TIP3    H255922   3.593   4.785  11.148 -1.2088  0.1828 -0.1065
11503TIP3   OH255923   1.806   6.166   5.787 -0.4312 -0.3328 -0.2208
11503TIP3    H155924   1.719   6.204   5.802 -0.8987 -0.5326 -2.3036
11503TIP3    H255925   1.864   6.214   5.847 -1.4064  2.0853 -1.1645
11504TIP3   OH255926   5.276   0.334   2.496  0.1041 -0.5641 -0.0039
11504TIP3    H155927   5.268   0.254   2.445 -1.2402 -1.0871  1.0216
11504TIP3    H255928   5.279   0.305   2.587 -0.9273  0.5695  0.4090
11505TIP3   OH255929   1.297   6.169  16.104 -0.1680 -0.1313 -0.5608
11505TIP3    H155930   1.225   6.187  16.043  0.9730  0.7601 -1.6649
11505TIP3    H255931   1.376   6.179  16.051  0.7312 -2.8788  0.1974
11506TIP3   OH255932   0.028   0.433  15.508 -0.3068  0.2403  0.1487
11506TIP3    H155933  -0.050   0.488  15.517 -0.2988  0.3958 -0.7240
11506TIP3    H255934   0.043   0.428  15.414  2.3548  2.5103  0.3795
11507TIP3   OH255935   3.194   0.937   1.245  0.2666 -0.0466  0.4012
11507TIP3    H155936   3.244   0.979   1.174 -1.2504 -1.0031 -1.2783
11507TIP3    H255937   3.143   1.007   1.284 -0.8845  0.0508 -1.2129
11508TIP3   OH255938   2.952   4.971   3.195  0.3092 -0.5120 -0.5368
11508TIP3    H155939   3.027   4.958   3.253 -1.0098  1.1911  1.6233
11508TIP3    H255940   2.952   5.065   3.177 -1.0895 -0.5546 -0.8235
11509TIP3   OH255941   1.236   5.772   3.757 -0.6312  0.0340 -0.0167
11509TIP3    H155942   1.274   5.860   3.750 -3.2431  1.2371  0.5576
11509TIP3    H255943   1.244   5.749   3.849 -0.3521 -0.1468 -0.0860
11510TIP3   OH255944   3.905   5.970   3.891 -0.1182 -0.1150 -0.1765
11510TIP3    H155945   3.889   6.011   3.976 -1.9251  0.2660 -0.6852
11510TIP3    H255946   3.983   6.014   3.857  0.1514  0.2733  0.9377
11511TIP3   OH255947   6.306   6.555  14.029 -0.1505  0.7518  0.0318
11511TIP3    H155948   6.235   6.491  14.027  0.7160 -0.2190 -0.2992
11511TIP3    H255949   6.344   6.546  14.116  0.9462 -0.2850 -0.5404
11512TIP3   OH255950   4.349   5.759   4.757 -0.0816  0.5422 -0.0720
11512TIP3    H155951   4.256   5.736   4.758 -0.1691  0.9275  0.4568
11512TIP3    H255952   4.392   5.681   4.721 -0.6135  0.3950 -0.3963
11513TIP3   OH255953   2.201   1.687  13.241  0.3184  0.6217  0.2655
11513TIP3    H155954   2.263   1.760  13.239 -0.0435  0.9085 -0.5290
11513TIP3    H255955   2.141   1.703  13.168  0.1309 -0.3724  0.1842
11514TIP3   OH255956   2.670   2.310   2.086 -0.4220  0.0252 -0.2357
11514TIP3    H155957   2.696   2.399   2.110 -1.5188 -0.0054  1.1184
11514TIP3    H255958   2.721   2.291   2.007  0.9013  1.3164  0.2741
11515TIP3   OH255959   1.955   6.344  14.027 -0.0477 -0.1136 -0.0238
11515TIP3    H155960   1.933   6.336  14.119  1.7223  1.0063  0.5231
11515TIP3    H255961   1.971   6.438  14.014 -0.2783 -0.2520 -1.4618
11516TIP3   OH255962   6.297   4.184   4.500 -0.3631 -0.2267  0.1695
11516TIP3    H155963   6.204   4.176   4.482 -0.2357 -0.1217 -0.5711
11516TIP3    H255964   6.303   4.204   4.593 -1.1109  0.5431  0.0486
11517TIP3   OH255965   0.309   5.425   4.678  0.7049  0.1106 -0.0989
11517TIP3    H155966   0.373   5.423   4.607 -1.0876  0.6390 -1.7631
11517TIP3    H255967   0.330   5.505   4.727  1.5775  0.0494 -0.3677
11518TIP3   OH255968   1.344   3.689   6.427  0.2936  0.0726 -0.3100
11518TIP3    H155969   1.393   3.635   6.489  2.3472 -0.4831 -2.3538
11518TIP3    H255970   1.322   3.769   6.477  2.9642  0.1751  0.7671
11519TIP3   OH255971   3.571   4.296  11.215 -0.3658  0.1794 -0.1171
11519TIP3    H155972   3.522   4.373  11.244 -1.0383  1.3112 -3.9550
11519TIP3    H255973   3.643   4.332  11.164  0.8353 -1.6892  0.2253
11520TIP3   OH255974   2.890   2.681   3.098 -0.5654 -0.0884  0.5460
11520TIP3    H155975   2.863   2.636   3.018  0.9717  0.4186 -0.2907
11520TIP3    H255976   2.874   2.617   3.168  0.6021 -1.5817 -0.5027
11521TIP3   OH255977   4.758   2.347  15.827  0.2892  0.2164 -0.2750
11521TIP3    H155978   4.822   2.289  15.870 -0.2776  1.2850  2.1102
11521TIP3    H255979   4.699   2.288  15.781  2.1350 -0.8649 -1.2834
11522TIP3   OH255980   4.584   5.253   2.728 -0.2609  0.2588  0.2922
11522TIP3    H155981   4.549   5.266   2.816 -0.6921  1.3708 -0.0383
11522TIP3    H255982   4.507   5.228   2.675 -0.3605  1.5307 -0.1820
11523TIP3   OH255983   2.182   5.561  16.070 -0.6233  0.0405  0.1448
11523TIP3    H155984   2.201   5.596  16.157 -0.8038 -0.6549  0.4672
11523TIP3    H255985   2.227   5.620  16.010  1.7835 -1.0190  0.8396
11524TIP3   OH255986   0.660   0.738  16.876 -0.3137 -0.2873  0.2235
11524TIP3    H155987   0.676   0.716  16.968  0.0667  0.5033  0.3478
11524TIP3    H255988   0.592   0.805  16.878 -0.8416 -0.8017 -0.1192
11525TIP3   OH255989   2.481   3.281  15.884 -0.2545 -0.2004 -0.3107
11525TIP3    H155990   2.461   3.188  15.873 -1.5801 -0.1075  1.0811
11525TIP3    H255991   2.395   3.323  15.888  0.3341  1.0373 -0.5215
11526TIP3   OH255992   0.020   2.909  11.317  0.0356  0.0003 -0.3269
11526TIP3    H155993   0.089   2.861  11.365  0.0739 -0.0802 -0.4626
11526TIP3    H255994   0.029   2.879  11.227  0.8852  1.2197 -0.6578
11527TIP3   OH255995   6.426   2.735   3.771 -0.2523 -0.0460  0.6164
11527TIP3    H155996   6.383   2.649   3.763  1.6749 -1.0128  0.4090
11527TIP3    H255997   6.405   2.764   3.859 -0.9290 -0.7292  0.6870
11528TIP3   OH255998   0.405   5.332  14.723 -0.4960 -0.2964 -0.1378
11528TIP3    H155999   0.441   5.285  14.798 -1.0167  1.7818  1.4837
11528TIP3    H256000   0.314   5.349  14.748  0.0379  2.7264 -0.0545
11529TIP3   OH256001   1.649   1.641  15.419  0.6760 -0.1689 -0.3336
11529TIP3    H156002   1.720   1.699  15.393  1.9071 -1.2700  0.4639
11529TIP3    H256003   1.619   1.602  15.337  1.2012  0.0767 -0.6461
11530TIP3   OH256004   5.693   5.025   0.816  0.4160 -0.0769  0.8891
11530TIP3    H156005   5.640   5.102   0.796  0.8545  0.0809  0.3158
11530TIP3    H256006   5.697   4.978   0.733  0.8558 -0.2847  1.0284
11531TIP3   OH256007   3.659   1.142   2.635  0.0181 -0.1807  0.5025
11531TIP3    H156008   3.646   1.065   2.580 -0.4201 -0.7006  1.3263
11531TIP3    H256009   3.639   1.112   2.723  1.4427  0.4392  1.0596
11532TIP3   OH256010   4.433   4.946   5.032 -0.0233 -0.1015 -0.3702
11532TIP3    H156011   4.519   4.963   4.992 -0.4433 -2.1226 -2.2342
11532TIP3    H256012   4.370   4.960   4.961 -1.1470  0.1547  0.6589
11533TIP3   OH256013   6.483   1.844  10.509  0.1267 -0.3943 -0.2581
11533TIP3    H156014   6.455   1.860  10.599  0.6795  0.5185 -0.2476
11533TIP3    H256015   6.408   1.802  10.468 -0.0644 -0.9945  0.6775
11534TIP3   OH256016   5.412   5.735  11.389 -0.6698  0.2665 -0.4313
11534TIP3    H156017   5.413   5.761  11.481 -0.8438  0.3938 -0.4657
11534TIP3    H256018   5.378   5.812  11.342 -1.6837 -0.1983 -0.4729
11535TIP3   OH256019   3.436   4.647   2.133  1.1871 -0.3511 -0.3383
11535TIP3    H156020   3.524   4.671   2.161  0.9124 -0.1711  0.3874
11535TIP3    H256021   3.429   4.680   2.043  1.3327  0.9535  0.1334
11536TIP3   OH256022   2.260   4.589  13.173 -0.1195  0.0784  0.7576
11536TIP3    H156023   2.304   4.674  13.177 -0.0182  0.0286  0.7229
11536TIP3    H256024   2.203   4.587  13.250 -2.0106  1.2077 -0.5852
11537TIP3   OH256025   2.894   0.365   5.369  0.0216  0.3662 -0.4105
11537TIP3    H156026   2.894   0.449   5.322  0.5446  0.2124 -0.6920
11537TIP3    H256027   2.940   0.305   5.310  0.4047  0.0910  0.1654
11538TIP3   OH256028   4.231   4.414  14.660 -0.0468 -0.0520 -0.3489
11538TIP3    H156029   4.145   4.394  14.697  0.0532  0.6597  0.2863
11538TIP3    H256030   4.292   4.404  14.732  0.3081  0.1755 -0.6120
11539TIP3   OH256031   0.143   2.514   2.735 -0.6574  0.0262 -1.1425
11539TIP3    H156032   0.090   2.482   2.662  0.3421 -0.8462 -1.5206
11539TIP3    H256033   0.231   2.522   2.697 -0.3307  0.5046 -0.2815
11540TIP3   OH256034   5.753   0.523   4.220 -0.1577  0.2406 -0.3076
11540TIP3    H156035   5.741   0.617   4.238  0.0127  0.2029  0.0106
11540TIP3    H256036   5.671   0.483   4.249  0.3658  0.0953  1.0410
11541TIP3   OH256037   1.718   2.040  13.323  0.2064 -0.1536 -0.1516
11541TIP3    H156038   1.636   2.083  13.347 -0.2418 -0.7263 -0.6681
11541TIP3    H256039   1.707   1.949  13.349  0.9705 -0.0772  0.4710
11542TIP3   OH256040   5.213   0.912   1.032 -0.2830  0.9662 -0.4185
11542TIP3    H156041   5.240   0.940   1.119  0.5639  1.1454 -0.7359
11542TIP3    H256042   5.187   0.820   1.044 -1.6880  1.4458  0.3267
11543TIP3   OH256043   5.991   0.176  13.994 -0.3368  0.5001  0.0745
11543TIP3    H156044   5.992   0.221  14.079 -0.9648 -1.1314  0.9736
11543TIP3    H256045   6.062   0.113  14.000 -0.1290  0.6540 -0.7679
11544TIP3   OH256046   4.746   2.023   5.317  0.2897 -0.2279  0.1989
11544TIP3    H156047   4.780   1.995   5.233 -0.4227  0.6899 -0.3991
11544TIP3    H256048   4.748   2.118   5.314  0.2930 -0.1871  1.2336
11545TIP3   OH256049   1.891   3.471  16.549 -0.4623 -0.3274  0.6599
11545TIP3    H156050   1.893   3.518  16.633 -0.9735 -0.4357  0.7341
11545TIP3    H256051   1.943   3.392  16.564 -1.8200 -1.1019  1.3298
11546TIP3   OH256052   0.930   6.743   4.589  0.1298 -0.4048  0.1932
11546TIP3    H156053   1.024   6.738   4.570 -0.1250 -0.6380 -1.0035
11546TIP3    H256054   0.918   6.830   4.627  0.7897 -0.2869  0.1371
11547TIP3   OH256055   2.571   0.976  15.607 -0.3242 -0.0438 -0.0267
11547TIP3    H156056   2.579   1.002  15.699  0.2497  3.0805 -0.8993
11547TIP3    H256057   2.633   0.903  15.597  1.9385  1.6254  1.3609
11548TIP3   OH256058   4.983   2.778   0.480  0.4887  0.0042 -0.1553
11548TIP3    H156059   5.043   2.705   0.471  1.7481  0.6893  2.3161
11548TIP3    H256060   4.997   2.831   0.401  1.8089 -0.7894 -0.4562
11549TIP3   OH256061   0.550   4.556  15.584 -0.7817  0.3266  0.1079
11549TIP3    H156062   0.540   4.553  15.679  0.2633  0.2750  0.2272
11549TIP3    H256063   0.645   4.561  15.570 -0.8830 -0.4477 -0.9512
11550TIP3   OH256064   5.193   5.728  12.229  0.1101 -0.9476 -0.0973
11550TIP3    H156065   5.242   5.704  12.307  0.0290 -1.8272 -0.3005
11550TIP3    H256066   5.188   5.823  12.230  0.4253 -0.9443  0.7724
11551TIP3   OH256067   4.687   2.884   1.470  0.2910  0.1436 -1.0199
11551TIP3    H156068   4.773   2.926   1.469  0.8817 -1.0347 -0.2150
11551TIP3    H256069   4.632   2.945   1.521  1.3490 -0.4254  0.8634
11552TIP3   OH256070   4.631   2.265  15.141 -0.2309  0.1161  0.2956
11552TIP3    H156071   4.632   2.261  15.046 -1.4728 -1.3028  0.3315
11552TIP3    H256072   4.586   2.186  15.169 -1.3395  1.3040  2.0217
11553TIP3   OH256073   5.673   4.660  15.585 -0.1975  0.5801 -0.6129
11553TIP3    H156074   5.728   4.738  15.580  0.3450  0.1151 -2.0133
11553TIP3    H256075   5.699   4.618  15.667  0.0916  1.4361 -0.2616
11554TIP3   OH256076   0.667   3.729   1.146  0.1169 -0.1575  0.2051
11554TIP3    H156077   0.728   3.694   1.211 -0.1275  0.7320  0.9150
11554TIP3    H256078   0.580   3.712   1.183 -0.0366 -0.0903 -0.1237
11555TIP3   OH256079   5.251   2.210   3.466  0.0592  0.9144  0.1245
11555TIP3    H156080   5.225   2.123   3.493  0.4785  1.4844  2.5425
11555TIP3    H256081   5.182   2.240   3.407 -0.9679 -0.3750  0.6669
11556TIP3   OH256082   5.855   3.734  16.590  0.1195  0.2899  0.0368
11556TIP3    H156083   5.770   3.689  16.586 -0.6040  1.6121  0.4342
11556TIP3    H256084   5.834   3.826  16.579  1.6422  0.5206 -1.0539
11557TIP3   OH256085   2.964   0.333  11.655 -0.2175 -0.0911  0.0181
11557TIP3    H156086   3.049   0.373  11.675  0.1687 -0.8461 -0.1138
11557TIP3    H256087   2.985   0.258  11.600 -1.0984  0.7210 -1.4702
11558TIP3   OH256088   1.587   5.476   3.532 -0.3847 -0.9124  0.1466
11558TIP3    H156089   1.682   5.485   3.533 -0.7038  3.6779  0.9303
11558TIP3    H256090   1.562   5.476   3.625 -1.3841  2.8158 -0.0375
11559TIP3   OH256091   5.575   3.252   2.078 -0.4317 -0.0780 -0.1951
11559TIP3    H156092   5.545   3.251   1.987 -3.1654 -1.9481  0.6742
11559TIP3    H256093   5.503   3.291   2.127  0.1840 -0.9384  1.4251
11560TIP3   OH256094   3.703   6.529   5.123  0.3258 -0.6405 -0.8295
11560TIP3    H156095   3.738   6.489   5.203 -2.2536 -1.8133 -0.2174
11560TIP3    H256096   3.693   6.621   5.144  0.1063 -0.8616  0.0594
11561TIP3   OH256097   3.563   1.354   6.316  0.4405 -0.2241  0.3053
11561TIP3    H156098   3.648   1.311   6.306  0.2042 -0.3773 -1.3124
11561TIP3    H256099   3.575   1.441   6.278 -0.7201 -1.0660 -2.1089
11562TIP3   OH256100   3.247   5.992   3.220 -0.1716  0.3149 -0.5795
11562TIP3    H156101   3.275   6.070   3.269 -1.0662 -0.0244  0.4863
11562TIP3    H256102   3.216   6.026   3.136  0.8016  0.9604 -0.6902
11563TIP3   OH256103   5.435   6.022  14.215 -0.2067  0.5414  0.5038
11563TIP3    H156104   5.365   6.082  14.188 -2.2380 -0.3354  3.5983
11563TIP3    H256105   5.442   6.035  14.309  4.2111  0.9534  0.2035
11564TIP3   OH256106   2.665   1.175  11.549  0.4104 -0.2416 -0.6734
11564TIP3    H156107   2.664   1.196  11.643  0.2605 -0.3552 -0.6483
11564TIP3    H256108   2.656   1.080  11.546  1.0255 -0.2998 -0.7833
11565TIP3   OH256109   5.509   3.054   0.977  0.1322 -0.2320  0.8071
11565TIP3    H156110   5.542   3.125   0.922  0.0155 -1.4455 -0.8734
11565TIP3    H256111   5.585   3.025   1.027  1.1715 -1.5310 -1.4229
11566TIP3   OH256112   2.907   1.874   3.740  0.1068 -0.2003 -0.0292
11566TIP3    H156113   2.911   1.779   3.730 -0.2090  0.0401 -3.0282
11566TIP3    H256114   2.978   1.895   3.801 -0.4049 -2.4324  1.3827
11567TIP3   OH256115   0.042   2.163  17.145  0.1117 -0.2716  0.1890
11567TIP3    H156116   0.042   2.092  17.209  4.0349 -0.4199  0.1517
11567TIP3    H256117   0.035   2.243  17.198  2.1772 -0.4447  0.7719
11568TIP3   OH256118   5.351   5.000   0.603 -0.7390 -0.4903 -0.4610
11568TIP3    H156119   5.382   4.912   0.582 -0.0529 -0.5661  0.7956
11568TIP3    H256120   5.387   5.056   0.535  0.8000 -0.8351  0.0544
11569TIP3   OH256121   5.185   3.897  11.293 -0.0433  0.0024 -0.2881
11569TIP3    H156122   5.232   3.856  11.365  1.3518 -0.3472 -1.3727
11569TIP3    H256123   5.248   3.959  11.256 -1.2273  1.2051 -0.3246
11570TIP3   OH256124   6.693   3.223   2.668 -0.3105  0.4022 -0.0320
11570TIP3    H156125   6.771   3.174   2.695 -0.6629  0.1396  0.5089
11570TIP3    H256126   6.632   3.213   2.740 -0.6392  1.0885 -0.2060
11571TIP3   OH256127   1.158   3.372   4.286  0.1754 -0.2629 -0.4611
11571TIP3    H156128   1.229   3.308   4.298 -0.1100 -1.4114 -4.3082
11571TIP3    H256129   1.103   3.335   4.217 -1.7666  2.6790 -0.5859
11572TIP3   OH256130   2.539   2.476   0.764  0.3148 -0.2021  0.1314
11572TIP3    H156131   2.607   2.542   0.752 -0.3210  1.1142  3.3469
11572TIP3    H256132   2.459   2.520   0.736  0.1383 -0.1864  0.6573
11573TIP3   OH256133   6.685   2.222  10.749  0.4157 -0.2515  0.0687
11573TIP3    H156134   6.635   2.301  10.771 -0.6031 -0.1679 -2.4645
11573TIP3    H256135   6.706   2.183  10.834 -2.8363  0.4214  1.2344
11574TIP3   OH256136   2.560   2.281   3.216  0.1905  0.5998 -0.2146
11574TIP3    H156137   2.504   2.207   3.195  1.1169 -0.7261  1.8338
11574TIP3    H256138   2.646   2.242   3.235 -0.0821  1.7863  4.0138
11575TIP3   OH256139   5.232   3.913   6.344  0.6324  0.5451  0.0987
11575TIP3    H156140   5.156   3.921   6.402  0.8804  1.3245  0.3214
11575TIP3    H256141   5.308   3.915   6.402  0.8615  0.8150 -0.2058
11576TIP3   OH256142   4.311   5.321  13.830 -0.0706 -0.5184  0.0723
11576TIP3    H156143   4.241   5.276  13.783 -2.5199  1.9190  1.2559
11576TIP3    H256144   4.267   5.363  13.904  2.4136  2.3393 -0.0026
11577TIP3   OH256145   2.863   3.665  16.943 -0.0251  0.0687  0.9070
11577TIP3    H156146   2.839   3.651  16.851 -0.1054  0.9720  0.7865
11577TIP3    H256147   2.955   3.694  16.940 -0.7034  2.3277  0.9239
11578TIP3   OH256148   0.910   5.637   2.315  0.2075 -0.2975  0.1163
11578TIP3    H156149   1.003   5.659   2.310  0.2727 -0.9417 -1.9563
11578TIP3    H256150   0.901   5.590   2.398  1.5227  0.6402  0.8147
11579TIP3   OH256151   6.651   5.837  12.777 -0.0042  0.2023  0.4866
11579TIP3    H156152   6.607   5.753  12.766 -1.2420  0.8676  0.3283
11579TIP3    H256153   6.690   5.833  12.864  0.2565 -0.6704  0.3339
11580TIP3   OH256154   2.237   3.524   3.604 -0.0779  0.3335  0.3633
11580TIP3    H156155   2.245   3.538   3.509  2.3561  0.4186  0.5501
11580TIP3    H256156   2.199   3.605   3.637 -1.1609  0.2181 -0.5528
11581TIP3   OH256157   1.055   5.524  15.532 -0.0507  0.1982  0.1016
11581TIP3    H156158   1.148   5.501  15.525 -0.3213 -1.0695  0.6332
11581TIP3    H256159   1.030   5.497  15.620 -0.8287  0.8983  0.1007
11582TIP3   OH256160   5.754   1.441  13.892  0.5282  0.2275  0.4944
11582TIP3    H156161   5.725   1.445  13.801  1.0266 -2.1768  0.2003
11582TIP3    H256162   5.826   1.504  13.898 -2.5012  3.9007  0.4362
11583TIP3   OH256163   2.858   5.071   4.227  0.1222 -0.2988 -0.1938
11583TIP3    H156164   2.892   5.131   4.293  0.1682  0.1381 -0.6075
11583TIP3    H256165   2.864   4.984   4.267  3.2398 -0.4553 -0.8005
11584TIP3   OH256166   4.505   2.199   1.427 -0.1167  0.0266 -0.3693
11584TIP3    H156167   4.595   2.229   1.417 -0.7100  2.6836  1.4955
11584TIP3    H256168   4.456   2.248   1.361 -0.5273  0.3491  0.1678
11585TIP3   OH256169   3.260   4.748  12.684  0.5891  0.1432 -0.1767
11585TIP3    H156170   3.234   4.765  12.594 -0.9433  0.5391  0.3268
11585TIP3    H256171   3.220   4.818  12.734 -0.6671 -1.4625  1.1366
11586TIP3   OH256172   2.047   6.754   2.896  0.0423  0.1619 -0.0164
11586TIP3    H156173   2.111   6.684   2.885 -0.8450 -0.6656  0.0623
11586TIP3    H256174   2.002   6.734   2.977  0.1729  1.1479  0.3116
11587TIP3   OH256175   2.607   2.707   3.188 -0.0206  0.4784 -0.3484
11587TIP3    H156176   2.544   2.697   3.116 -1.0204 -1.3205  0.7393
11587TIP3    H256177   2.677   2.761   3.151 -0.9790  0.3891 -2.3733
11588TIP3   OH256178   1.055   4.251  13.927  0.4699  0.3209 -0.6421
11588TIP3    H156179   1.015   4.200  13.997  1.0024  0.8022  0.0152
11588TIP3    H256180   1.046   4.196  13.849  3.1412 -1.8021  0.4794
11589TIP3   OH256181   0.091   3.703   4.786  0.0922  0.0046  0.1954
11589TIP3    H156182   0.036   3.765   4.834  1.6216  0.8669  0.8720
11589TIP3    H256183   0.180   3.733   4.802  0.7937 -1.6524 -0.4917
11590TIP3   OH256184   0.347   4.234   4.902  0.3108 -0.0334 -0.4793
11590TIP3    H156185   0.307   4.297   4.841 -2.4713  0.1152  1.3748
11590TIP3    H256186   0.367   4.158   4.847 -2.5304 -0.0817 -1.5860
11591TIP3   OH256187   4.615   0.586   6.380  0.1990 -0.2581  0.0657
11591TIP3    H156188   4.681   0.520   6.362  0.8567 -0.1299  1.9469
11591TIP3    H256189   4.580   0.563   6.465 -2.0780 -0.2225 -0.8208
11592TIP3   OH256190   4.517   2.732  16.130  0.4169 -0.3444 -0.0221
11592TIP3    H156191   4.567   2.659  16.095 -1.9783 -1.3646 -1.4277
11592TIP3    H256192   4.446   2.745  16.067 -0.0827  2.1993  0.9981
11593TIP3   OH256193   6.112   1.021   0.657 -0.1189 -0.4213 -0.4739
11593TIP3    H156194   6.038   1.072   0.625  0.3054 -0.6144 -1.7621
11593TIP3    H256195   6.167   1.084   0.703  0.7246  0.4141 -2.5854
11594TIP3   OH256196   2.637   2.353  11.797  0.4506  0.2251  0.2099
11594TIP3    H156197   2.634   2.258  11.784 -0.3159  0.1914  0.5610
11594TIP3    H256198   2.553   2.374  11.839  0.3871  1.1284 -0.3520
11595TIP3   OH256199   3.026   4.945  16.451 -0.2481  0.2822  0.8213
11595TIP3    H156200   3.103   5.001  16.448 -0.0828  0.0477  0.7258
11595TIP3    H256201   3.000   4.935  16.360 -0.1174 -0.0187  0.8172
11596TIP3   OH256202   6.530   4.538   4.587  0.1468  0.2082 -0.1452
11596TIP3    H156203   6.558   4.455   4.626 -0.0208 -0.0753 -0.6135
11596TIP3    H256204   6.457   4.513   4.531 -0.6109  0.8345  0.5489
11597TIP3   OH256205   6.215   4.773  14.271  0.1059  0.1511 -0.6029
11597TIP3    H156206   6.190   4.845  14.329 -0.0644  0.3475 -0.9210
11597TIP3    H256207   6.279   4.811  14.212 -1.2180  0.4870 -1.8480
11598TIP3   OH256208   4.409   6.290   5.686  0.8759  0.1160  0.1157
11598TIP3    H156209   4.408   6.196   5.703 -0.3862  0.3253  1.2560
11598TIP3    H256210   4.390   6.330   5.770  1.5366  1.4033 -0.3388
11599TIP3   OH256211   5.667   0.944   0.500  0.3778  0.1926  0.0614
11599TIP3    H156212   5.607   0.949   0.426  0.6331  0.9159 -0.0986
11599TIP3    H256213   5.664   0.852   0.527  1.3152 -0.3896 -1.7100
11600TIP3   OH256214   2.017   0.566  11.764  0.4989  0.0770 -0.1106
11600TIP3    H156215   1.987   0.553  11.674  0.5442  0.7851 -0.2322
11600TIP3    H256216   1.993   0.485  11.810  0.1173 -0.1224 -0.6612
11601TIP3   OH256217   1.492   6.784  16.781  0.2311 -0.1440  0.2621
11601TIP3    H156218   1.456   6.721  16.719  1.6579 -0.5068 -0.2231
11601TIP3    H256219   1.583   6.757  16.793 -0.0748 -0.2546  2.7396
11602TIP3   OH256220   4.652   5.882   5.426  0.8245 -0.2320 -0.3306
11602TIP3    H156221   4.689   5.870   5.338 -0.0777  0.0174 -0.7447
11602TIP3    H256222   4.574   5.826   5.427  0.3885  0.3866  0.0371
11603TIP3   OH256223   4.130   6.606   2.958 -0.1379  0.1420 -0.1973
11603TIP3    H156224   4.118   6.596   3.053 -0.2930 -0.4205 -0.2731
11603TIP3    H256225   4.138   6.517   2.926 -2.7553  0.1615 -1.0456
11604TIP3   OH256226   0.973   4.389  13.089 -0.2418 -0.3774 -0.0033
11604TIP3    H156227   0.985   4.334  13.011  0.5457  0.3563 -0.4106
11604TIP3    H256228   1.061   4.395  13.126 -0.3032  0.7119 -0.0297
11605TIP3   OH256229   1.440   1.888   1.572 -0.0016 -0.4627  0.0936
11605TIP3    H156230   1.392   1.807   1.588 -0.0269 -0.8121 -1.6256
11605TIP3    H256231   1.411   1.947   1.641 -1.2985 -1.3689  0.3432
11606TIP3   OH256232   5.554   1.056   4.590  0.1837 -0.9692  0.6455
11606TIP3    H156233   5.508   0.982   4.551 -0.8366  1.0204 -2.0615
11606TIP3    H256234   5.644   1.047   4.560  0.1001 -1.1672  0.4543
11607TIP3   OH256235   5.940   6.724   2.659 -0.4219 -0.4930  0.9348
11607TIP3    H156236   5.879   6.702   2.729 -1.8551 -0.4901 -0.2934
11607TIP3    H256237   5.884   6.741   2.583  1.0239  0.9365  0.1659
11608TIP3   OH256238   3.204   0.627  15.463  0.6193  0.4112  0.1825
11608TIP3    H156239   3.145   0.649  15.391  0.8694 -0.2878 -0.2386
11608TIP3    H256240   3.188   0.695  15.529  0.3607  1.0275 -0.5154
11609TIP3   OH256241   6.002   0.146  10.651  0.2538  0.7991 -0.5659
11609TIP3    H156242   5.939   0.087  10.693 -0.2655  1.3818 -0.5175
11609TIP3    H256243   5.949   0.219  10.619  1.1569  2.3236  1.3035
11610TIP3   OH256244   5.295   1.401  10.652 -0.1927 -0.3051 -0.0220
11610TIP3    H156245   5.231   1.408  10.724  0.3855  0.2841  0.4359
11610TIP3    H256246   5.340   1.319  10.668  0.7320  0.3755  0.9612
11611TIP3   OH256247   4.942   1.754   1.222  0.7738 -0.1293 -0.2057
11611TIP3    H156248   4.940   1.780   1.130  2.5064 -0.7870 -0.4381
11611TIP3    H256249   4.905   1.829   1.268 -0.4332  0.0662 -1.4614
11612TIP3   OH256250   6.258   5.576  12.811 -0.2923  0.0654 -0.6762
11612TIP3    H156251   6.201   5.648  12.839  0.5083  1.2051 -1.9021
11612TIP3    H256252   6.343   5.617  12.796  0.1516 -1.1315 -1.5064
11613TIP3   OH256253   3.799   4.168   3.411  0.2699 -0.2471 -0.1804
11613TIP3    H156254   3.891   4.176   3.434 -0.1105 -0.9076  1.6452
11613TIP3    H256255   3.778   4.076   3.424 -0.7032 -0.0605 -0.3683
11614TIP3   OH256256   1.289   1.828   5.046  0.3824 -0.2643 -0.7349
11614TIP3    H156257   1.239   1.784   4.976 -2.8626 -0.7992  1.8076
11614TIP3    H256258   1.306   1.759   5.110 -0.0776  1.0123  0.7911
11615TIP3   OH256259   0.801   6.349   4.436 -0.0655 -0.2632 -0.4325
11615TIP3    H156260   0.727   6.317   4.487  0.3674  0.3278  0.5613
11615TIP3    H256261   0.761   6.406   4.370 -0.5546 -0.5034 -0.3515
11616TIP3   OH256262   5.907   3.396  14.890 -0.4599  0.2752 -0.8895
11616TIP3    H156263   5.989   3.438  14.914 -0.0020 -0.8187 -0.5548
11616TIP3    H256264   5.918   3.304  14.914 -2.3837  0.4170  0.6704
11617TIP3   OH256265   6.130   0.677  12.715  0.4211 -0.0286 -0.2287
11617TIP3    H156266   6.143   0.582  12.715  1.0689  0.0558  0.0297
11617TIP3    H256267   6.043   0.690  12.753  1.2644 -0.4001  1.8619
11618TIP3   OH256268   4.795   4.068  15.963 -0.5233 -0.1908 -0.0038
11618TIP3    H156269   4.837   4.010  15.899  2.5447  0.9004  0.9276
11618TIP3    H256270   4.703   4.044  15.960  0.2703 -3.3464 -1.4956
11619TIP3   OH256271   0.401   3.975   0.017  0.0170 -0.9395 -0.3335
11619TIP3    H156272   0.344   3.913   0.061 -0.4504 -0.2426  0.0535
11619TIP3    H256273   0.459   3.921  -0.037 -0.2762 -1.7119  0.1229
11620TIP3   OH256274   0.702   1.452   0.533 -0.1473  0.5597 -0.2048
11620TIP3    H156275   0.728   1.489   0.449  2.2754 -1.5509 -0.4558
11620TIP3    H256276   0.749   1.506   0.598  0.5310  0.2085 -0.3929
11621TIP3   OH256277   3.448   3.971  12.638 -0.3370 -0.1897 -0.1332
11621TIP3    H156278   3.403   3.988  12.721  0.4439  0.6739  0.1071
11621TIP3    H256279   3.531   4.017  12.645 -1.2897  2.0186 -2.3765
11622TIP3   OH256280   5.844   0.349  12.449 -0.3411 -0.2271  0.0441
11622TIP3    H156281   5.833   0.441  12.424  3.4638  0.1468 -0.4575
11622TIP3    H256282   5.872   0.352  12.540  3.2320 -0.6518 -0.9894
11623TIP3   OH256283   0.075   2.484   5.853 -0.8902 -0.4718  0.8737
11623TIP3    H156284   0.125   2.539   5.792  0.8188 -1.3661  1.4195
11623TIP3    H256285  -0.016   2.493   5.825 -0.4455  1.3105 -0.0776
11624TIP3   OH256286   2.921   4.521   2.632  0.1223 -0.2335 -0.2550
11624TIP3    H156287   3.011   4.538   2.657  0.5852 -1.2850 -1.1670
11624TIP3    H256288   2.869   4.584   2.682  1.1153 -1.5057  2.4554
11625TIP3   OH256289   3.436   5.673  11.384 -0.5258  0.3185  0.3897
11625TIP3    H156290   3.464   5.606  11.446 -1.0558 -0.1740  0.0934
11625TIP3    H256291   3.417   5.749  11.439  0.1001  0.2392  0.7203
11626TIP3   OH256292   0.984   4.356  12.357 -0.7190 -0.3847  0.1845
11626TIP3    H156293   0.992   4.452  12.356  1.6144 -0.5352  0.8621
11626TIP3    H256294   0.953   4.334  12.269 -0.6041  0.9363 -0.2062
11627TIP3   OH256295   4.685   0.537   0.561  0.0761  0.0010 -0.3706
11627TIP3    H156296   4.780   0.529   0.552 -0.2017 -1.4124 -2.2685
11627TIP3    H256297   4.652   0.530   0.472 -1.9136 -0.8048  0.4057
11628TIP3   OH256298   1.926   1.383  14.157 -0.0282 -0.2706 -0.5298
11628TIP3    H156299   1.920   1.420  14.244  1.5640 -0.0260 -0.5092
11628TIP3    H256300   1.896   1.292  14.167 -0.0855 -0.1673  0.2151
11629TIP3   OH256301   3.650   6.600   0.575  0.2462  0.2925 -0.1629
11629TIP3    H156302   3.633   6.682   0.528 -1.9995 -0.5087 -0.7939
11629TIP3    H256303   3.610   6.612   0.661  0.9399  0.2794  0.1683
11630TIP3   OH256304   1.190   2.391  15.748 -0.5574  0.0709  0.1707
11630TIP3    H156305   1.111   2.368  15.698 -0.9626  0.3048  0.6989
11630TIP3    H256306   1.198   2.486  15.738  0.8987 -0.2166 -1.6836
11631TIP3   OH256307   2.229   3.182   1.487  0.3453  0.3299 -0.3060
11631TIP3    H156308   2.164   3.143   1.546  1.0706 -0.3670  0.0325
11631TIP3    H256309   2.222   3.276   1.502  0.2191  0.1833  0.5702
11632TIP3   OH256310   6.719   1.820  13.829 -0.2092 -0.0334 -0.1386
11632TIP3    H156311   6.756   1.901  13.864  0.4947 -0.1364 -0.6434
11632TIP3    H256312   6.727   1.757  13.901 -1.1623  0.4543  0.4108
11633TIP3   OH256313   1.108   2.411   4.263 -0.3593 -0.4847 -0.0664
11633TIP3    H156314   1.035   2.430   4.321  0.0252  0.0228  0.2593
11633TIP3    H256315   1.114   2.315   4.262  1.3224 -0.4953  2.9147
11634TIP3   OH256316   5.502   0.654  15.415 -0.1749 -0.7667 -0.3772
11634TIP3    H156317   5.533   0.711  15.486  0.5671 -0.1342 -1.1967
11634TIP3    H256318   5.567   0.584  15.410  0.3172 -0.2617 -1.0968
11635TIP3   OH256319   2.240   2.117  13.933  0.2139 -0.3685  0.2571
11635TIP3    H156320   2.219   2.066  14.011  0.6344  1.4481  1.5976
11635TIP3    H256321   2.246   2.208  13.965  2.6102  0.1127 -1.4647
11636TIP3   OH256322   6.636   4.855  12.368 -0.2914  0.3072  0.1704
11636TIP3    H156323   6.710   4.797  12.386  0.9400  1.5375 -0.7927
11636TIP3    H256324   6.575   4.801  12.317  0.8378 -0.1610 -0.7314
11637TIP3   OH256325   1.900   1.216  15.740  0.7808 -0.0612  0.6779
11637TIP3    H156326   1.892   1.247  15.830  1.9899 -0.8133  1.0619
11637TIP3    H256327   1.913   1.296  15.688 -1.3781  0.5015  0.9619
11638TIP3   OH256328   1.226   2.773   3.928  0.4057  0.0343 -0.6101
11638TIP3    H156329   1.175   2.723   3.992  2.1523 -1.2161 -0.1556
11638TIP3    H256330   1.190   2.748   3.843  0.9537 -1.6700 -0.3591
11639TIP3   OH256331   3.330   0.412   5.574  0.3060 -0.2758 -0.3217
11639TIP3    H156332   3.281   0.365   5.506 -1.0748  0.0180  0.4591
11639TIP3    H256333   3.389   0.345   5.611  0.0259 -0.7989 -0.8080
11640TIP3   OH256334   2.719   0.792  11.793 -0.5525  0.1808  0.0535
11640TIP3    H156335   2.656   0.738  11.841  1.5987 -0.4890  2.2337
11640TIP3    H256336   2.790   0.732  11.770  0.1795  1.3121 -0.7068
11641TIP3   OH256337   2.857   4.986   5.748  0.5111  0.3046  0.2221
11641TIP3    H156338   2.860   4.930   5.825 -1.9511  1.4400  1.1912
11641TIP3    H256339   2.821   5.069   5.780  1.1488  1.4052 -1.7978
11642TIP3   OH256340   4.944   2.790   1.777 -0.8695  0.1035  0.2641
11642TIP3    H156341   4.849   2.788   1.793 -0.7117  2.0828  1.7170
11642TIP3    H256342   4.979   2.838   1.852  1.6277 -2.9440  1.1314
11643TIP3   OH256343   2.523   2.856  11.912 -0.6972 -0.4522  0.4704
11643TIP3    H156344   2.578   2.837  11.988  0.5217  0.8057 -0.0776
11643TIP3    H256345   2.438   2.879  11.951 -0.5343 -1.3527  1.3744
11644TIP3   OH256346   2.030   3.928   1.687 -0.2096  0.5973  0.0098
11644TIP3    H156347   1.950   3.917   1.740 -0.3795  0.5206 -0.2620
11644TIP3    H256348   2.054   4.019   1.699  1.7977 -0.2600  3.1365
11645TIP3   OH256349   3.492   3.549   6.312  0.0204  0.2557 -0.2276
11645TIP3    H156350   3.530   3.563   6.399  0.7359 -1.1608 -0.2893
11645TIP3    H256351   3.398   3.539   6.328  0.2756 -1.0663  0.5208
11646TIP3   OH256352   1.065   6.448  10.989 -0.0878 -0.0983  0.3740
11646TIP3    H156353   1.042   6.499  11.067  0.3161  3.6980 -1.8397
11646TIP3    H256354   1.058   6.511  10.917  0.8101 -3.1587 -2.5068
11647TIP3   OH256355   5.294   1.146  13.419  0.2011  0.6501  0.7028
11647TIP3    H156356   5.247   1.073  13.379  1.5400  1.0291 -1.5799
11647TIP3    H256357   5.379   1.110  13.443  0.4150  1.1439  0.6964
11648TIP3   OH256358   5.297   3.650   1.029  0.2874  0.0391 -0.3399
11648TIP3    H156359   5.344   3.571   1.001 -1.3857 -1.4355  0.8687
11648TIP3    H256360   5.230   3.662   0.962 -1.0442 -1.0454  0.7711
11649TIP3   OH256361   2.197   2.307   4.547 -0.2950 -0.1065  0.5385
11649TIP3    H156362   2.292   2.298   4.548 -0.2079  0.7609  0.5874
11649TIP3    H256363   2.181   2.391   4.504 -0.9775  0.4786  1.8854
11650TIP3   OH256364   2.656   4.106   1.661  0.1421 -0.4680 -0.4644
11650TIP3    H156365   2.628   4.178   1.604 -0.1001  0.3979  0.7021
11650TIP3    H256366   2.580   4.092   1.719  0.2323 -1.5966 -0.6140
11651TIP3   OH256367   3.196   6.392  11.139 -0.5086  0.0048  0.4270
11651TIP3    H156368   3.163   6.311  11.178 -1.7556  0.3763  0.1493
11651TIP3    H256369   3.203   6.373  11.046  1.7180 -0.6227  0.6860
11652TIP3   OH256370   4.302   0.411  15.110 -0.3220  0.3766  0.5510
11652TIP3    H156371   4.357   0.384  15.036 -0.8093 -1.6875  0.9190
11652TIP3    H256372   4.231   0.347  15.113  0.1182 -0.0529  3.2934
11653TIP3   OH256373   4.289   3.424  16.637  0.2300  0.3520  0.1765
11653TIP3    H156374   4.326   3.359  16.577 -0.8662  0.4769 -0.6491
11653TIP3    H256375   4.319   3.396  16.724 -0.4170 -1.4065 -0.1395
11654TIP3   OH256376   0.875   2.113  14.908  0.2115  0.0517  0.4803
11654TIP3    H156377   0.894   2.205  14.929  0.2910 -0.0635  0.9023
11654TIP3    H256378   0.861   2.071  14.992  2.0929 -0.7680  0.4167
11655TIP3   OH256379   4.910   0.767  13.932  0.1745  0.1118  0.3499
11655TIP3    H156380   4.919   0.784  13.839  1.6587 -1.8439  0.0959
11655TIP3    H256381   4.884   0.851  13.970  0.2213  1.0817 -1.7258
11656TIP3   OH256382   0.935   2.742  17.224  0.1149  0.4491 -0.2898
11656TIP3    H156383   0.901   2.663  17.265 -0.3851  0.7224 -0.1809
11656TIP3    H256384   1.003   2.711  17.164  0.6378  0.0184  0.5183
11657TIP3   OH256385   5.597   2.028   0.512  0.5010  0.5761 -0.4461
11657TIP3    H156386   5.678   2.079   0.516  1.0390 -0.3498  0.9755
11657TIP3    H256387   5.574   2.012   0.603 -2.3894  2.5048 -0.7993
11658TIP3   OH256388   0.903   4.652   5.194 -0.2123  0.2633  0.1151
11658TIP3    H156389   0.913   4.744   5.167 -2.6576  1.1327  1.9762
11658TIP3    H256390   0.988   4.629   5.232  0.1756  2.0334  0.3630
11659TIP3   OH256391   0.600   3.120   4.966 -0.7033  0.6690  0.3178
11659TIP3    H156392   0.688   3.091   4.986 -0.3760  1.0058 -0.6136
11659TIP3    H256393   0.547   3.088   5.039  0.0467 -0.2162  0.4778
11660TIP3   OH256394   2.458   3.951  14.155  0.9255  0.8395 -0.4092
11660TIP3    H156395   2.535   3.968  14.101  1.0272  1.7506  0.0101
11660TIP3    H256396   2.483   3.981  14.242  0.9601 -1.1089  0.2894
11661TIP3   OH256397   4.731   3.715  13.375 -0.5782  0.1933  0.0681
11661TIP3    H156398   4.651   3.747  13.333 -0.1031  1.0174 -0.2130
11661TIP3    H256399   4.702   3.642  13.431 -1.2829 -0.6064 -1.3233
11662TIP3   OH256400   3.862   6.346  12.438  0.0287  0.0520 -0.5482
11662TIP3    H156401   3.786   6.344  12.380  1.2730 -1.9932 -2.1807
11662TIP3    H256402   3.936   6.363  12.379  1.1351 -0.4618  0.6788
11663TIP3   OH256403   1.734   0.790   4.977 -0.3448  0.4249 -0.5025
11663TIP3    H156404   1.716   0.696   4.975 -0.5246  0.4338  0.6512
11663TIP3    H256405   1.651   0.831   4.951 -0.4514  0.2912 -0.3699
11664TIP3   OH256406   3.447   6.298  13.727 -0.4117  0.2327 -0.7210
11664TIP3    H156407   3.390   6.325  13.799  0.9784  0.2375  0.3951
11664TIP3    H256408   3.428   6.204  13.716  1.7532 -0.5708  1.8988
11665TIP3   OH256409   1.273   5.255  15.724  0.0860  0.0915  0.4172
11665TIP3    H156410   1.180   5.231  15.719 -0.6077  2.7404 -0.3776
11665TIP3    H256411   1.298   5.270  15.633  1.5132 -1.2644  0.5656
11666TIP3   OH256412   6.289   5.140   4.773  0.1403 -0.3204  0.3734
11666TIP3    H156413   6.259   5.229   4.793 -0.2083 -0.4566  0.4530
11666TIP3    H256414   6.260   5.087   4.847 -1.4542 -0.8891 -0.6437
11667TIP3   OH256415   0.593   6.018  12.723 -0.3075  0.5171  0.3273
11667TIP3    H156416   0.652   6.089  12.699  1.4174 -0.9319  0.1039
11667TIP3    H256417   0.569   6.036  12.814 -1.9353  2.7145 -0.4987
11668TIP3   OH256418   1.929   4.790   5.982 -0.3236  0.0952  0.5325
11668TIP3    H156419   1.997   4.724   5.995 -1.8945 -1.7984 -0.6118
11668TIP3    H256420   1.875   4.784   6.061 -1.7619 -1.5921 -0.5526
11669TIP3   OH256421   1.169   2.433  15.167 -0.0779  0.3393  0.0032
11669TIP3    H156422   1.149   2.499  15.233  0.4542 -0.4318  0.9556
11669TIP3    H256423   1.173   2.351  15.216  1.6593 -0.0583 -0.7478
11670TIP3   OH256424   3.029   1.802  16.224 -0.2602 -0.2542  0.3216
11670TIP3    H156425   3.022   1.878  16.281 -1.0923 -0.2344  0.2043
11670TIP3    H256426   3.035   1.727  16.283 -1.2589 -0.2453  0.4379
11671TIP3   OH256427   2.716   4.436  10.637 -0.4283  0.3835 -0.0762
11671TIP3    H156428   2.708   4.510  10.698  0.3698  0.4606 -0.0580
11671TIP3    H256429   2.689   4.360  10.689 -1.3977  0.6757 -0.1412
11672TIP3   OH256430   4.689   0.597  11.317 -0.0325 -0.4006  0.1252
11672TIP3    H156431   4.645   0.560  11.240 -1.0953  0.3941  0.3434
11672TIP3    H256432   4.702   0.523  11.375 -0.9628 -0.6716 -0.0068
11673TIP3   OH256433   5.291   3.402   6.979  0.5159  0.7042  1.4431
11673TIP3    H156434   5.274   3.474   7.039 -0.3410  0.8039  1.0900
11673TIP3    H256435   5.340   3.338   7.031  0.8583  1.3240  1.8919
11674TIP3   OH256436   2.829   3.481   1.342  0.2591  0.2745 -0.1706
11674TIP3    H156437   2.763   3.458   1.278  1.8615 -1.3989 -1.2803
11674TIP3    H256438   2.805   3.434   1.422  1.0343 -1.7014 -1.0864
11675TIP3   OH256439   4.625   2.297   5.232  0.0736 -0.5735 -0.0804
11675TIP3    H156440   4.718   2.318   5.244  0.3030 -2.2665  1.4009
11675TIP3    H256441   4.602   2.338   5.149  2.1579 -0.1324 -0.4825
11676TIP3   OH256442   3.906   5.220  11.413 -0.0479 -0.0749  1.0678
11676TIP3    H156443   3.922   5.258  11.326 -1.2202 -0.6696  0.5699
11676TIP3    H256444   3.909   5.125  11.398 -1.4216 -0.1848  1.4339
11677TIP3   OH256445   5.024   0.289   3.350  0.1178  0.0597 -0.5704
11677TIP3    H156446   5.048   0.342   3.274  1.9865  0.1603  0.0619
11677TIP3    H256447   4.960   0.226   3.316  1.5410 -0.4379 -2.4039
11678TIP3   OH256448   5.628   5.499  13.815  0.3479 -0.2711 -0.1172
11678TIP3    H156449   5.586   5.544  13.742 -0.2052  2.1220  1.6190
11678TIP3    H256450   5.678   5.567  13.859  2.1373 -2.0644  0.7031
11679TIP3   OH256451   6.237   0.382   4.066  0.2374 -0.1755  0.1416
11679TIP3    H156452   6.310   0.320   4.065  1.0494  0.7723 -0.0104
11679TIP3    H256453   6.204   0.382   3.976  0.4880 -0.0991  0.0489
11680TIP3   OH256454   0.911   1.728  14.005  0.1826 -0.1666  0.1668
11680TIP3    H156455   0.935   1.752  14.095  1.8189 -0.9153 -0.0586
11680TIP3    H256456   0.815   1.734  14.004  0.1453 -0.1040  1.9589
11681TIP3   OH256457   3.747   3.863   1.889 -0.5346 -0.0238 -0.1058
11681TIP3    H156458   3.693   3.790   1.861 -0.2145 -0.3192  0.0456
11681TIP3    H256459   3.797   3.888   1.811  0.3642 -0.8523  0.1976
11682TIP3   OH256460   4.467   2.498   0.369 -0.4368 -0.1836 -0.0915
11682TIP3    H156461   4.510   2.488   0.454 -1.1950  1.0060  0.4527
11682TIP3    H256462   4.532   2.468   0.306 -1.0801 -4.2649  1.0832
11683TIP3   OH256463   3.304   3.384   2.602 -0.2828 -0.0271  0.1842
11683TIP3    H156464   3.334   3.294   2.603 -0.2886 -0.0271  0.6938
11683TIP3    H256465   3.273   3.398   2.513  0.8279 -0.1514 -0.2305
11684TIP3   OH256466   1.747   1.468  14.799 -0.2258 -0.0180  0.0627
11684TIP3    H156467   1.696   1.489  14.878 -0.5884 -2.6156  0.5566
11684TIP3    H256468   1.828   1.430  14.833  0.9960  1.7582 -0.7861
11685TIP3   OH256469   5.820   0.338  14.440  0.4023 -0.3538 -0.0136
11685TIP3    H156470   5.743   0.357  14.494  0.7746  0.5318  0.2156
11685TIP3    H256471   5.894   0.349  14.499  0.5553 -5.4286  0.9416
11686TIP3   OH256472   4.504   0.274   5.141  0.1797 -0.7181 -0.3100
11686TIP3    H156473   4.469   0.187   5.158  2.3478 -1.5070  0.2410
11686TIP3    H256474   4.509   0.315   5.227  0.7276 -0.6787 -0.3553
11687TIP3   OH256475   6.505   3.260   6.582  0.1219  0.3098 -0.1967
11687TIP3    H156476   6.510   3.355   6.593  0.0127  0.2782  0.1247
11687TIP3    H256477   6.433   3.246   6.521  0.0116  0.4205 -0.0909
11688TIP3   OH256478   0.708   0.414   0.232  0.1485  0.4154  0.4116
11688TIP3    H156479   0.720   0.323   0.258 -0.2015  0.6540  1.4253
11688TIP3    H256480   0.625   0.414   0.184  0.7601 -0.0124 -0.6568
11689TIP3   OH256481   4.210   0.754   2.590  0.0707 -0.5409  0.0344
11689TIP3    H156482   4.184   0.707   2.669  0.0595  0.2409  0.5012
11689TIP3    H256483   4.165   0.838   2.595  2.8398  0.9507  1.0067
11690TIP3   OH256484   5.559   3.854  15.795  0.2250 -0.2343 -0.4557
11690TIP3    H156485   5.603   3.914  15.735 -0.9272  0.5796 -0.5087
11690TIP3    H256486   5.615   3.776  15.797  1.4253  0.5998 -0.8535
11691TIP3   OH256487   0.741   4.938  16.963 -0.1546  0.1835  0.3585
11691TIP3    H156488   0.831   4.972  16.959 -0.2469  0.4449  0.5086
11691TIP3    H256489   0.728   4.897  16.878  0.7553 -1.5078  0.9998
11692TIP3   OH256490   2.830   5.972  15.544 -0.2134  0.7970 -0.4676
11692TIP3    H156491   2.874   5.995  15.463 -0.1984  0.4063 -0.5726
11692TIP3    H256492   2.819   6.055  15.590  0.4893  0.9157 -0.5078
11693TIP3   OH256493   2.330   1.319  12.233  0.2983  0.2704  0.1390
11693TIP3    H156494   2.414   1.363  12.218 -0.8564  2.5345  0.1085
11693TIP3    H256495   2.340   1.234  12.191  2.1237  1.0319 -1.0353
11694TIP3   OH256496   1.429   1.525   1.220  0.1310 -0.0831 -0.3384
11694TIP3    H156497   1.439   1.476   1.302  1.0095 -0.4573 -0.6685
11694TIP3    H256498   1.515   1.563   1.204 -0.5148  1.5096 -0.1405
11695TIP3   OH256499   5.330   5.815   1.391 -0.0570 -0.1380 -0.3421
11695TIP3    H156500   5.298   5.768   1.468 -0.9291  1.3781  0.2409
11695TIP3    H256501   5.274   5.785   1.320 -0.9534  0.3802  0.1277
11696TIP3   OH256502   3.693   4.618  11.530 -0.1086  0.1954 -0.6227
11696TIP3    H156503   3.657   4.705  11.545 -0.1360  0.3193 -1.4097
11696TIP3    H256504   3.758   4.629  11.461  0.7719 -0.1984  0.1229
11697TIP3   OH256505   6.643   1.705  14.087 -0.2559 -0.5525 -0.9946
11697TIP3    H156506   6.638   1.688  14.181  0.5422 -0.1879 -0.8795
11697TIP3    H256507   6.674   1.623  14.049  1.2785 -0.1242 -0.7124
11698TIP3   OH256508   0.897   3.415  15.695 -0.1008 -0.6251 -0.5163
11698TIP3    H156509   0.828   3.370  15.647  1.0649 -0.3087 -2.5417
11698TIP3    H256510   0.952   3.455  15.627  2.1849 -1.0373  1.0258
11699TIP3   OH256511   2.489   1.685   1.017 -0.4464 -0.3139  0.1144
11699TIP3    H156512   2.514   1.602   1.057 -0.2002 -0.4141 -0.2476
11699TIP3    H256513   2.406   1.708   1.060 -1.1354 -1.3549 -0.6318
11700TIP3   OH256514   0.509   2.490  15.854  0.0372 -0.2788 -0.3175
11700TIP3    H156515   0.468   2.536  15.927 -0.6120 -1.7260  0.2579
11700TIP3    H256516   0.602   2.494  15.872 -0.1251 -0.7418  0.6625
11701TIP3   OH256517   2.745   1.808  14.038  0.2372 -0.3555  0.1656
11701TIP3    H156518   2.682   1.779  13.972 -2.2413  2.2345  1.2711
11701TIP3    H256519   2.802   1.870  13.991 -0.4307  0.1732  0.0512
11702TIP3   OH256520   6.176   5.837  14.641 -0.3219  0.1213 -0.2006
11702TIP3    H156521   6.086   5.816  14.616 -0.2787 -0.6668  0.2813
11702TIP3    H256522   6.186   5.800  14.729  1.0752 -1.5373 -1.0297
11703TIP3   OH256523   4.168   3.894  16.403  0.5561 -0.0443 -0.2285
11703TIP3    H156524   4.099   3.941  16.450 -1.0458 -1.9119 -0.6274
11703TIP3    H256525   4.220   3.852  16.471  2.1602  2.4944  0.1434
11704TIP3   OH256526   2.976   0.954   6.174 -0.5123 -0.7166 -0.1838
11704TIP3    H156527   2.966   1.005   6.254 -0.1375  0.3146 -0.7878
11704TIP3    H256528   3.052   0.898   6.189  1.1348  1.3362 -0.7882
11705TIP3   OH256529   3.428   1.972   2.464  0.0697 -0.2238  0.7178
11705TIP3    H156530   3.408   1.962   2.557  1.1237  1.7155  1.1832
11705TIP3    H256531   3.367   1.913   2.419 -0.0893 -1.5505  2.6613
11706TIP3   OH256532   5.326   2.506   2.731 -0.1953 -0.9310  0.2373
11706TIP3    H156533   5.407   2.479   2.774  0.7704 -0.0086 -0.9982
11706TIP3    H256534   5.276   2.549   2.800  0.8827 -0.4345  0.7249
11707TIP3   OH256535   5.049   6.274   1.973  0.5002  0.1156 -0.0373
11707TIP3    H156536   5.141   6.269   2.000  1.2305 -1.1592 -2.5964
11707TIP3    H256537   5.006   6.205   2.024  1.5096 -1.1111 -0.8112
11708TIP3   OH256538   3.744   4.849   0.588 -0.2113 -0.5010 -0.0390
11708TIP3    H156539   3.828   4.896   0.579 -0.1441 -0.7697 -0.8505
11708TIP3    H256540   3.680   4.918   0.602  0.3243 -0.3773  1.9045
11709TIP3   OH256541   3.056   4.964  17.125 -0.5056 -0.1249 -0.6785
11709TIP3    H156542   3.105   5.002  17.198 -1.6530  2.0708 -1.0160
11709TIP3    H256543   3.121   4.917  17.075  0.6648  0.0079  0.6839
11710TIP3   OH256544   6.087   6.114  15.569 -0.6265  0.6527  0.3468
11710TIP3    H156545   6.037   6.047  15.522  1.3971 -0.0482 -0.8664
11710TIP3    H256546   6.071   6.194  15.520  0.3343  0.2013 -0.7338
11711TIP3   OH256547   5.228   3.724  15.579  0.1255 -0.3807  0.4627
11711TIP3    H156548   5.224   3.755  15.670 -1.1576  0.6828  0.0591
11711TIP3    H256549   5.147   3.756  15.539  1.0557 -0.1252 -1.2793
11712TIP3   OH256550   0.963   1.445  13.983 -0.9707  0.3062  0.0996
11712TIP3    H156551   1.026   1.383  14.020 -1.4792  0.7186  1.7115
11712TIP3    H256552   0.976   1.526  14.034 -0.1898  1.6002 -2.0856
11713TIP3   OH256553   1.053   1.631   0.462  0.1137 -0.4380  0.2989
11713TIP3    H156554   1.054   1.535   0.458  1.5185 -0.5214  1.9706
11713TIP3    H256555   1.032   1.651   0.553 -1.6575  0.8895 -0.3542
11714TIP3   OH256556   2.737   3.985  10.865 -0.1217 -0.5258 -0.2061
11714TIP3    H156557   2.755   3.997  10.959  2.2807  2.0662 -0.9402
11714TIP3    H256558   2.792   3.910  10.840  1.5286  0.6364 -0.1367
11715TIP3   OH256559   0.917   6.415  16.586 -0.1729 -0.3499  0.2326
11715TIP3    H156560   0.932   6.459  16.502  0.3900 -2.3610 -0.7593
11715TIP3    H256561   0.835   6.367  16.573 -0.6908  0.2503  1.2342
11716TIP3   OH256562   3.793   4.118  15.222 -0.1173  0.0289  0.0646
11716TIP3    H156563   3.732   4.075  15.283 -1.1950  0.4887 -0.6761
11716TIP3    H256564   3.845   4.175  15.278 -0.5702 -0.1417  0.6725
11717TIP3   OH256565   2.835   0.906  12.441 -0.3800 -0.1145 -1.0242
11717TIP3    H156566   2.823   0.907  12.346 -0.1354 -0.5007 -1.0595
11717TIP3    H256567   2.758   0.951  12.475 -0.9195 -0.7678 -1.3600
11718TIP3   OH256568   3.869   3.937  12.237  0.1779 -0.2771  0.3679
11718TIP3    H156569   3.832   3.872  12.296 -0.5389  1.4569  1.8678
11718TIP3    H256570   3.957   3.903  12.216 -0.4309 -2.0232  0.5895
11719TIP3   OH256571   1.590   2.493   3.867  0.2091  0.5213 -0.4471
11719TIP3    H156572   1.546   2.463   3.788 -1.1539  0.8083  0.1936
11719TIP3    H256573   1.624   2.414   3.907  1.4905  0.4341 -1.6431
11720TIP3   OH256574   3.378   0.211   3.960  0.5121 -0.4661  0.0418
11720TIP3    H156575   3.457   0.230   3.909  1.5542 -1.4527  1.2372
11720TIP3    H256576   3.308   0.211   3.895  1.3077  1.5414 -0.8701
11721TIP3   OH256577   2.571   0.313  12.029 -0.4215 -0.0430  0.4898
11721TIP3    H156578   2.476   0.329  12.022 -0.3907 -0.5530 -1.5038
11721TIP3    H256579   2.602   0.318  11.939  1.2608 -1.1105  1.0009
11722TIP3   OH256580   1.120   4.087  16.148 -0.3062  0.4495  0.1666
11722TIP3    H156581   1.153   3.998  16.133  0.2680  0.9121 -1.3185
11722TIP3    H256582   1.190   4.144  16.117 -0.3372  1.4441  1.8542
11723TIP3   OH256583   6.202   5.788  13.152 -0.2163  0.2290  0.2389
11723TIP3    H156584   6.290   5.791  13.188 -0.0428  2.4478 -0.2732
11723TIP3    H256585   6.146   5.818  13.224 -0.2218  1.5324 -0.2911
11724TIP3   OH256586   4.812   0.140  14.107 -0.2871  0.7148 -0.2302
11724TIP3    H156587   4.785   0.082  14.177  0.6226 -0.3077 -0.7097
11724TIP3    H256588   4.736   0.145  14.049  0.0220 -0.9505 -0.8023
11725TIP3   OH256589   2.793   6.079   3.603 -0.1010 -0.3737  0.5035
11725TIP3    H156590   2.755   5.994   3.582  1.2445 -1.2277  1.4873
11725TIP3    H256591   2.737   6.142   3.557  0.3907 -1.9201 -2.3390
11726TIP3   OH256592   5.980   0.742   0.448  0.5683  0.0098  0.0889
11726TIP3    H156593   5.890   0.748   0.478  0.2996  1.7096 -0.9854
11726TIP3    H256594   6.002   0.831   0.421  1.0663 -1.2221 -3.8303
11727TIP3   OH256595   1.317   1.372  15.104  0.4964 -0.3191  0.1556
11727TIP3    H156596   1.239   1.427  15.111  0.2299 -0.6809  0.0982
11727TIP3    H256597   1.337   1.348  15.195 -0.2142 -1.2525  0.0767
11728TIP3   OH256598   6.545   6.016   3.309 -0.2738  0.1667 -0.4196
11728TIP3    H156599   6.555   5.969   3.226 -0.4630  0.6172 -0.6942
11728TIP3    H256600   6.451   6.017   3.325 -0.1028 -1.8850  0.9295
11729TIP3   OH256601   2.276   3.156   2.460  0.2271 -0.0548 -0.7371
11729TIP3    H156602   2.277   3.157   2.556  0.7957  1.1679 -0.7451
11729TIP3    H256603   2.344   3.092   2.436  1.0153  0.6123 -0.3208
11730TIP3   OH256604   0.452   6.279  15.342 -0.1971  0.7649 -0.5289
11730TIP3    H156605   0.434   6.325  15.424 -0.3617 -0.2842  0.0408
11730TIP3    H256606   0.415   6.335  15.274 -1.8828  0.6664  0.2818
11731TIP3   OH256607   1.295   6.730   2.574 -0.3084 -0.3017 -0.2419
11731TIP3    H156608   1.296   6.665   2.503  0.1335 -0.2715 -0.2651
11731TIP3    H256609   1.340   6.687   2.646  0.7094  0.2801 -0.5266
11732TIP3   OH256610   0.734   1.502  11.386  0.1500 -0.1304 -0.2067
11732TIP3    H156611   0.750   1.519  11.293  0.0528 -0.8465 -0.3578
11732TIP3    H256612   0.800   1.554  11.431  0.3073  0.0884 -0.6823
11733TIP3   OH256613   3.592   3.233   0.571 -0.6773  0.2362 -0.3962
11733TIP3    H156614   3.584   3.210   0.479  3.2252 -1.0418 -0.5126
11733TIP3    H256615   3.540   3.166   0.617  0.3516 -1.3422 -1.4838
11734TIP3   OH256616   2.297   5.211  11.567  0.8716 -0.1312  0.0612
11734TIP3    H156617   2.337   5.262  11.638  3.5105 -1.7249 -0.2414
11734TIP3    H256618   2.330   5.252  11.487  1.1740 -0.8661 -0.1955
11735TIP3   OH256619   1.176   1.705   0.067  0.3413  0.0092 -0.0537
11735TIP3    H156620   1.159   1.771   0.135  1.4160 -0.1950  0.4208
11735TIP3    H256621   1.099   1.710   0.010 -0.1931  0.7672  0.7049
11736TIP3   OH256622   0.548   4.261  14.548 -0.0006  0.3000 -0.0205
11736TIP3    H156623   0.600   4.180  14.541 -0.6857 -0.3438  2.0414
11736TIP3    H256624   0.507   4.255  14.634 -3.3958  0.8804 -1.5370
11737TIP3   OH256625   3.754   6.787   0.111 -0.0001  0.0438 -0.7094
11737TIP3    H156626   3.785   6.869   0.150 -2.1754  0.3798  0.3772
11737TIP3    H256627   3.754   6.804   0.017  1.5406  0.5532 -0.6474
11738TIP3   OH256628   3.197   5.174  13.709 -0.4189  0.4686  0.1211
11738TIP3    H156629   3.186   5.214  13.795  0.8731  1.9312 -0.3711
11738TIP3    H256630   3.284   5.202  13.680 -0.2457 -1.1932 -1.0429
11739TIP3   OH256631   4.825   0.344  13.829 -1.1608 -0.2205  0.1533
11739TIP3    H156632   4.771   0.269  13.806 -1.5327  0.1115 -0.0617
11739TIP3    H256633   4.765   0.404  13.873 -0.6267 -0.5082  1.2860
11740TIP3   OH256634   4.037   3.072   3.011  0.0583  0.0600 -0.7080
11740TIP3    H156635   3.961   3.127   2.994 -0.5640 -0.3479  0.7196
11740TIP3    H256636   4.033   3.053   3.104 -0.0372 -2.8197 -1.2462
11741TIP3   OH256637   5.978   5.898   0.946 -0.4334  0.5489  0.4934
11741TIP3    H156638   5.971   5.982   0.990 -1.5142  0.5763  0.2783
11741TIP3    H256639   5.955   5.833   1.012 -1.4070  0.5496  0.1705
11742TIP3   OH256640   5.630   5.850   2.634  0.3961  0.3927 -0.3597
11742TIP3    H156641   5.666   5.762   2.630  2.1015  1.1293 -1.9541
11742TIP3    H256642   5.591   5.857   2.721 -0.4855 -2.1908 -0.5006
11743TIP3   OH256643   3.522   2.099  14.386 -0.2696 -0.0692  0.2725
11743TIP3    H156644   3.576   2.106  14.307  0.7813 -0.5862  0.9302
11743TIP3    H256645   3.488   2.009  14.384 -0.9958  0.2092 -0.0623
11744TIP3   OH256646   5.949   4.931   6.041 -0.1112 -0.4347 -0.4087
11744TIP3    H156647   5.967   4.983   6.119  1.9171  0.1457 -1.2140
11744TIP3    H256648   5.926   4.995   5.974 -3.5013 -1.0503  0.0985
11745TIP3   OH256649   4.614   3.340   3.501  0.0820  0.1339 -0.1831
11745TIP3    H156650   4.616   3.434   3.483 -0.4677  0.0350 -0.7605
11745TIP3    H256651   4.621   3.334   3.597  0.8734  0.7308 -0.1984
11746TIP3   OH256652   0.829   2.167   5.723 -0.1625 -0.2710 -0.0159
11746TIP3    H156653   0.882   2.160   5.802  1.7154  0.4540 -1.1682
11746TIP3    H256654   0.739   2.172   5.755  0.6175  1.1044  2.1378
11747TIP3   OH256655   4.575   1.696  16.426 -0.1825 -0.2987  0.1569
11747TIP3    H156656   4.581   1.790  16.439  0.0761 -0.5095  1.6499
11747TIP3    H256657   4.484   1.674  16.449 -1.3366  0.0678 -3.6342
11748TIP3   OH256658   6.394   0.234  16.193 -0.1489  0.0707 -0.1908
11748TIP3    H156659   6.303   0.260  16.181 -0.8195 -1.1355  1.9513
11748TIP3    H256660   6.391   0.139  16.205  1.3754  0.0298  0.0484
11749TIP3   OH256661   2.990   5.191  13.183  0.2441  0.4489  0.0239
11749TIP3    H156662   3.074   5.197  13.138  0.5502  2.7279  0.8208
11749TIP3    H256663   3.008   5.223  13.272 -0.5704 -3.0143  1.4911
11750TIP3   OH256664   0.841   4.748   5.956 -0.2465 -0.0909 -0.3686
11750TIP3    H156665   0.913   4.795   5.914 -0.2724 -0.1681 -0.4999
11750TIP3    H256666   0.762   4.785   5.917 -0.2406 -0.8608 -1.1276
11751TIP3   OH256667   2.579   1.001   0.306 -0.0220  0.2904  0.2957
11751TIP3    H156668   2.575   1.063   0.233 -0.1953  1.3749  1.2243
11751TIP3    H256669   2.623   1.049   0.376  2.4476 -1.5875  0.0992
11752TIP3   OH256670   4.331   0.442   1.523  0.0270 -0.6149  0.2077
11752TIP3    H156671   4.399   0.429   1.589  1.2359  0.2414 -0.8557
11752TIP3    H256672   4.317   0.536   1.521 -0.5274 -0.7069 -0.2414
11753TIP3   OH256673   6.341   5.916   0.689 -0.4796 -0.0799  0.3793
11753TIP3    H156674   6.341   5.971   0.767  0.9525 -0.4332  0.6408
11753TIP3    H256675   6.427   5.932   0.649 -0.5328 -1.2181 -0.1878
11754TIP3   OH256676   5.145   6.074  13.304 -0.6008 -0.0850  0.1570
11754TIP3    H156677   5.118   6.097  13.215  0.7588  0.7114 -0.0667
11754TIP3    H256678   5.218   6.133  13.322 -0.8366 -0.2834  1.7883
11755TIP3   OH256679   4.720   4.920  13.021 -0.1344 -0.2865 -0.0565
11755TIP3    H156680   4.656   4.869  13.071  1.3087 -1.8246  0.2785
11755TIP3    H256681   4.713   5.009  13.055 -1.2129 -0.7140  0.8442
11756TIP3   OH256682   3.821   6.514   3.954  0.1010 -0.1862  0.2343
11756TIP3    H156683   3.744   6.566   3.979  0.5955  0.6414  0.0527
11756TIP3    H256684   3.850   6.553   3.872  1.0511 -0.1570  0.5852
11757TIP3   OH256685   6.047   2.966  16.034 -0.2963  0.9417 -0.2543
11757TIP3    H156686   6.084   2.882  16.008 -0.3200  0.3314  1.6139
11757TIP3    H256687   5.961   2.969  15.992 -0.4092 -0.0988 -0.1028
11758TIP3   OH256688   2.290   2.026  12.310  0.2105 -0.1880  0.0928
11758TIP3    H156689   2.317   2.101  12.257 -0.3416 -0.4533 -0.5653
11758TIP3    H256690   2.196   2.037  12.320 -0.2163 -2.0040 -1.8896
11759TIP3   OH256691   6.456   0.668   4.280 -0.2580 -0.5038  0.2970
11759TIP3    H156692   6.497   0.587   4.250  0.2818 -0.8469  1.9278
11759TIP3    H256693   6.519   0.706   4.342 -0.1087  1.6117 -1.0877
11760TIP3   OH256694   5.389   3.401   2.174 -0.3816  0.2085 -0.0015
11760TIP3    H156695   5.313   3.425   2.120 -0.3626 -0.0043 -0.1230
11760TIP3    H256696   5.360   3.415   2.264 -0.9167 -0.8716  0.0057
11761TIP3   OH256697   0.735   2.355   0.643  0.5767  0.1431  0.0529
11761TIP3    H156698   0.747   2.264   0.616  0.8314  0.2726 -0.2741
11761TIP3    H256699   0.650   2.356   0.687  0.8488 -0.3700  0.5846
11762TIP3   OH256700   2.377   0.061   1.011  0.3906  0.1000  0.6158
11762TIP3    H156701   2.307   0.041   1.073  0.5887 -0.0938  0.7754
11762TIP3    H256702   2.450   0.090   1.066  0.4424  0.2882  0.4499
11763TIP3   OH256703   4.614   6.545  12.072 -0.1096  0.0667 -0.2077
11763TIP3    H156704   4.532   6.546  12.024 -0.4043  1.2925  0.3040
11763TIP3    H256705   4.588   6.531  12.163  0.2381  0.5553 -0.0307
11764TIP3   OH256706   4.903   3.136  11.012 -0.1842  0.4182 -0.2152
11764TIP3    H156707   4.844   3.132  10.937  0.4864  0.7093 -0.7589
11764TIP3    H256708   4.991   3.124  10.975  0.2374  1.5060  0.3918
11765TIP3   OH256709   3.950   4.142  10.554  0.3030  0.1029 -0.1329
11765TIP3    H156710   3.911   4.186  10.478 -1.3834 -2.4911 -0.8436
11765TIP3    H256711   4.034   4.186  10.567 -1.4366  3.7430 -0.5607
11766TIP3   OH256712   0.083   6.049  14.847  0.0730  0.0642 -0.0151
11766TIP3    H156713   0.016   6.025  14.782  0.3917 -0.0966 -0.2859
11766TIP3    H256714   0.062   6.140  14.869 -0.4616 -0.1060  0.1822
11767TIP3   OH256715   1.631   2.308   0.636  0.4159  0.3325 -0.0752
11767TIP3    H156716   1.634   2.325   0.542 -2.3707  0.0876 -0.2431
11767TIP3    H256717   1.707   2.252   0.653  1.6249  1.3570 -1.9418
11768TIP3   OH256718   6.294   2.140   2.163 -0.0010 -0.0623  0.0639
11768TIP3    H156719   6.370   2.165   2.110  0.5099  0.5624  1.0818
11768TIP3    H256720   6.309   2.047   2.183  0.2342 -0.0741 -0.1613
11769TIP3   OH256721   5.573   4.882  15.918  0.0810 -0.7041 -0.1244
11769TIP3    H156722   5.477   4.878  15.925 -0.0007  0.3057 -0.6686
11769TIP3    H256723   5.603   4.859  16.006 -0.7529  2.3124  1.0024
11770TIP3   OH256724   0.338   0.736   2.793 -0.4133 -0.5466  0.2036
11770TIP3    H156725   0.377   0.780   2.718 -1.8245 -0.5396 -0.5397
11770TIP3    H256726   0.305   0.654   2.757  0.8857 -1.5602  1.2807
11771TIP3   OH256727   3.486   5.483  16.130  0.2792 -0.5215 -0.3786
11771TIP3    H156728   3.446   5.505  16.046 -3.9274 -1.7627  1.1505
11771TIP3    H256729   3.470   5.389  16.140 -0.8072 -0.0995  2.4673
11772TIP3   OH256730   6.641   4.773   2.763  0.0841 -0.1980  0.4081
11772TIP3    H156731   6.557   4.818   2.748  0.2725  0.4089  1.1813
11772TIP3    H256732   6.707   4.836   2.733  0.3351 -0.0548  1.2537
11773TIP3   OH256733   1.025   3.958  11.273  0.4930  0.5270 -0.3935
11773TIP3    H156734   1.074   4.035  11.243 -1.0760  1.8257  0.2802
11773TIP3    H256735   0.936   3.991  11.288  0.0972 -1.1509  1.0746
11774TIP3   OH256736   1.887   4.709  14.802  0.3587  0.0058 -0.1767
11774TIP3    H156737   1.967   4.685  14.850  0.0732 -0.5715  0.0109
11774TIP3    H256738   1.836   4.760  14.864  1.2947  1.7398 -0.8112
11775TIP3   OH256739   0.920   2.594  15.577 -0.2013  0.2557 -0.4388
11775TIP3    H156740   0.938   2.619  15.668  0.1417  0.7400 -0.6327
11775TIP3    H256741   0.932   2.499  15.575 -1.6791  0.0366  0.3564
11776TIP3   OH256742   2.624   0.275  13.635 -0.0350  0.5830 -0.0766
11776TIP3    H156743   2.605   0.225  13.715  0.4341  0.2312 -0.1827
11776TIP3    H256744   2.549   0.333  13.625 -0.5790 -0.0971  0.0485
11777TIP3   OH256745   0.029   2.428   3.366  0.6811  0.6084  0.1383
11777TIP3    H156746   0.023   2.334   3.382 -0.0758  0.7985  1.0020
11777TIP3    H256747   0.032   2.436   3.271 -0.4865 -0.2147  0.0258
11778TIP3   OH256748   5.072   6.386   4.686 -0.2957 -0.0845  0.0259
11778TIP3    H156749   5.064   6.383   4.781 -0.1092  0.9059  0.0839
11778TIP3    H256750   5.099   6.298   4.661  0.2373 -0.1894  0.9456
11779TIP3   OH256751   2.986   0.216  12.539  0.0447  0.6404 -0.6435
11779TIP3    H156752   3.036   0.193  12.460  0.1069  0.0034 -0.4228
11779TIP3    H256753   3.009   0.307  12.556  2.5672 -0.1600  0.4884
11780TIP3   OH256754   5.518   5.740  10.341  0.0033  0.0731 -0.2960
11780TIP3    H156755   5.560   5.822  10.364 -0.0587 -0.4627  1.8081
11780TIP3    H256756   5.441   5.766  10.290  1.7901  1.1322 -2.5262
11781TIP3   OH256757   2.621   6.422   4.846  0.3651 -0.7449 -0.0622
11781TIP3    H156758   2.579   6.403   4.762  0.6655 -0.3495 -0.2992
11781TIP3    H256759   2.548   6.438   4.906  0.1879  1.9514 -0.9346
11782TIP3   OH256760   5.171   4.921   2.729  1.0985 -0.4603  0.7068
11782TIP3    H156761   5.233   4.852   2.708 -1.0117 -2.9481  2.4077
11782TIP3    H256762   5.107   4.920   2.658  1.0207 -0.2905  0.7732
11783TIP3   OH256763   2.257   6.454  10.588 -0.1684  0.2055 -0.1855
11783TIP3    H156764   2.318   6.467  10.516 -0.5456 -1.2314 -0.7757
11783TIP3    H256765   2.198   6.530  10.585  1.6743  1.7038  0.5064
11784TIP3   OH256766   4.908   0.162   0.690  0.0019  0.3860 -0.5234
11784TIP3    H156767   4.920   0.086   0.633 -1.0797  0.1423 -0.4545
11784TIP3    H256768   4.945   0.135   0.774 -0.2692 -0.0268 -0.5347
11785TIP3   OH256769   0.975   0.199   2.871  0.4367 -0.1675 -0.4745
11785TIP3    H156770   0.973   0.202   2.966 -0.5616  0.8305 -0.5130
11785TIP3    H256771   0.940   0.284   2.843  1.0850 -0.2950 -1.7247
11786TIP3   OH256772   2.565   0.690  15.077 -0.1142 -0.5988 -0.2556
11786TIP3    H156773   2.491   0.748  15.057  1.3014  1.5005  0.3567
11786TIP3    H256774   2.553   0.667  15.169 -0.1424 -0.4440 -0.2192
11787TIP3   OH256775   1.402   6.331  13.577 -0.1729  0.1490  0.3733
11787TIP3    H156776   1.431   6.421  13.594  0.1327  0.2512 -0.6383
11787TIP3    H256777   1.389   6.328  13.482 -0.6108 -0.7522  0.4567
11788TIP3   OH256778   2.973   0.854  13.251  0.3647  0.0521 -0.4535
11788TIP3    H156779   3.033   0.880  13.182 -0.4337 -0.3100 -1.2919
11788TIP3    H256780   2.887   0.883  13.220  0.1815  1.2215  1.0546
11789TIP3   OH256781   6.490   5.252  12.639  0.6023 -0.2562  0.0592
11789TIP3    H156782   6.583   5.271  12.623  0.7368 -1.4459 -0.6473
11789TIP3    H256783   6.444   5.325  12.598  1.2696  1.1193  1.7107
11790TIP3   OH256784   5.570   1.374  13.114  0.3932  0.0856 -0.5694
11790TIP3    H156785   5.544   1.287  13.083  1.1762 -0.3104 -0.1339
11790TIP3    H256786   5.507   1.434  13.073 -1.8842 -0.9236  1.2714
11791TIP3   OH256787   5.985   5.059  12.403  0.2927 -0.2146  0.0351
11791TIP3    H156788   6.027   5.051  12.318 -0.7359  0.3228 -0.5333
11791TIP3    H256789   6.057   5.082  12.463  0.7318  1.3076 -1.0312
11792TIP3   OH256790   2.062   4.090   4.967  0.2590 -0.5298  0.3504
11792TIP3    H156791   2.009   4.018   4.935  0.2544 -0.9176  1.2100
11792TIP3    H256792   2.152   4.057   4.965  0.2227 -0.6855  1.0569
11793TIP3   OH256793   2.699   1.508   0.775 -0.3903  0.0335  0.7869
11793TIP3    H156794   2.757   1.431   0.778 -0.0802  0.2882  2.0602
11793TIP3    H256795   2.752   1.578   0.814 -0.4136  1.0783 -1.0210
11794TIP3   OH256796   0.004   2.298  13.279  0.2371 -0.3030 -0.3732
11794TIP3    H156797  -0.013   2.228  13.341  1.2745 -0.0065  0.2529
11794TIP3    H256798   0.026   2.253  13.197  0.9943 -0.7067  0.0530
11795TIP3   OH256799   6.368   6.424   4.950 -0.5640  0.6471 -0.7087
11795TIP3    H156800   6.456   6.457   4.936 -0.8431  1.2654 -1.0355
11795TIP3    H256801   6.316   6.465   4.881 -1.0759  0.1752 -0.6067
11796TIP3   OH256802   1.978   1.168   2.558 -0.0491  0.3722  0.1212
11796TIP3    H156803   1.903   1.151   2.615 -1.6062  0.8515 -1.7320
11796TIP3    H256804   2.032   1.231   2.607 -0.2873 -0.7997  1.9255
11797TIP3   OH256805   5.757   0.949  12.930 -0.0093  0.2496 -0.0552
11797TIP3    H156806   5.787   1.038  12.916 -1.2523  0.4576 -1.5466
11797TIP3    H256807   5.716   0.950  13.017 -0.9607  1.3965 -0.5113
11798TIP3   OH256808   3.674   1.465  11.593 -0.5319 -0.2326 -0.5098
11798TIP3    H156809   3.763   1.457  11.559 -0.3924 -0.1251 -0.1751
11798TIP3    H256810   3.637   1.377  11.584 -0.5900 -0.1364 -1.1986
11799TIP3   OH256811   1.249   2.314  13.085  0.0348 -0.3595  0.5760
11799TIP3    H156812   1.237   2.311  12.990  1.4659 -0.5684  0.3959
11799TIP3    H256813   1.235   2.223  13.113  0.3383 -0.4419  0.4673
11800TIP3   OH256814   4.830   4.620   4.954  0.1471  0.2402  0.0447
11800TIP3    H156815   4.920   4.608   4.984 -0.2581  2.1304  2.1288
11800TIP3    H256816   4.800   4.532   4.934  1.9513 -0.5955  0.8589
11801TIP3   OH256817   4.566   6.584  14.385  0.1373 -0.0553 -0.1097
11801TIP3    H156818   4.587   6.670  14.349 -0.1057  0.4142  0.8534
11801TIP3    H256819   4.473   6.573  14.367 -0.1697  0.5187  1.0238
11802TIP3   OH256820   6.331   4.118  15.468  0.2361 -0.3590  0.3467
11802TIP3    H156821   6.302   4.162  15.547  0.8008 -0.8967  0.8553
11802TIP3    H256822   6.381   4.043  15.499  0.4177 -0.6023 -0.5180
11803TIP3   OH256823   4.051   6.149   3.119  0.8503  0.9748  0.0850
11803TIP3    H156824   4.012   6.219   3.068  1.5605  0.1854 -1.5646
11803TIP3    H256825   3.979   6.086   3.133  0.6067  1.2900  0.2616
11804TIP3   OH256826   5.368   0.427   3.006  0.4359  0.0338  0.0961
11804TIP3    H156827   5.457   0.402   3.032  1.0210  0.9922 -0.9547
11804TIP3    H256828   5.372   0.523   2.996 -0.8301  0.1379  0.4913
11805TIP3   OH256829   5.118   2.531  16.816 -0.1372  0.6545  0.1294
11805TIP3    H156830   5.053   2.601  16.815  0.7722  1.5386  1.7015
11805TIP3    H256831   5.075   2.459  16.862 -0.2401  1.0235  0.6188
11806TIP3   OH256832   6.057   2.370  15.649 -0.0001  0.4769 -0.4461
11806TIP3    H156833   6.034   2.284  15.615  0.4626  0.9032 -1.8665
11806TIP3    H256834   6.145   2.387  15.615 -0.0824  1.5085 -0.1663
11807TIP3   OH256835   0.536   4.306  16.950 -0.3225 -0.1372  0.6226
11807TIP3    H156836   0.607   4.290  16.888 -0.5975 -1.4227  0.6178
11807TIP3    H256837   0.549   4.241  17.019  0.5548  1.9095  2.4380
11808TIP3   OH256838   3.661   1.701  11.210  0.2012  0.5383  0.4484
11808TIP3    H156839   3.604   1.673  11.282  1.1234  0.4360  1.1470
11808TIP3    H256840   3.602   1.706  11.134 -0.1122 -2.9993  0.3479
11809TIP3   OH256841   2.307   4.396   1.793 -0.0635 -0.0222  0.5582
11809TIP3    H156842   2.223   4.388   1.748 -0.4483  0.7409  1.1154
11809TIP3    H256843   2.304   4.330   1.862  0.1874 -0.6343 -0.0126
11810TIP3   OH256844   4.995   4.335   3.619 -1.0979 -0.2378  0.3194
11810TIP3    H156845   4.927   4.286   3.666 -0.8863 -2.4355 -1.5828
11810TIP3    H256846   5.075   4.318   3.668 -1.2229 -0.8980  0.2963
11811TIP3   OH256847   2.459   0.288   5.783 -0.5727  0.5205 -0.6896
11811TIP3    H156848   2.531   0.290   5.845 -1.9129 -1.8540  1.0148
11811TIP3    H256849   2.494   0.240   5.708  0.0403  0.5747 -0.4420
11812TIP3   OH256850   5.283   0.959   4.285 -0.0282  0.1531 -0.3891
11812TIP3    H156851   5.339   0.917   4.351 -0.5044 -0.5864 -0.4495
11812TIP3    H256852   5.343   1.011   4.232  0.5402 -0.2926 -0.1852
11813TIP3   OH256853   0.348   3.662  13.826  0.1775 -0.5524  0.1516
11813TIP3    H156854   0.261   3.635  13.854  0.0844 -0.0403  0.3721
11813TIP3    H256855   0.387   3.702  13.904  0.5262 -0.5771 -0.0044
11814TIP3   OH256856   2.355   3.850  11.917 -0.3753  0.3322 -0.3505
11814TIP3    H156857   2.416   3.923  11.929  1.0448 -0.7766 -0.7256
11814TIP3    H256858   2.395   3.777  11.963 -0.7695 -0.7748 -1.7176
11815TIP3   OH256859   0.220   4.973  11.364 -0.3837 -0.1915 -0.0332
11815TIP3    H156860   0.224   4.917  11.441  0.4048 -1.4759 -0.9936
11815TIP3    H256861   0.143   4.942  11.316 -1.9604  1.7949  1.1079
11816TIP3   OH256862   2.917   6.667  12.023  0.2643  0.1545 -0.3277
11816TIP3    H156863   2.892   6.701  12.108 -0.8509  0.5427 -0.8055
11816TIP3    H256864   2.909   6.572  12.031  0.8142  0.1535  0.2028
11817TIP3   OH256865   1.504   0.704  16.472  0.2440  0.5981  0.2470
11817TIP3    H156866   1.463   0.768  16.413 -0.9351  1.2489  1.7386
11817TIP3    H256867   1.598   0.720  16.462 -0.0022  1.9061 -0.1474
11818TIP3   OH256868   4.410   5.300  15.373  0.1553  0.1238 -0.0329
11818TIP3    H156869   4.454   5.373  15.329  2.2497 -1.0130  0.0833
11818TIP3    H256870   4.317   5.312  15.352  0.7388  1.4037 -2.1058
11819TIP3   OH256871   5.628   4.964  12.900  0.7122  0.1672  0.3098
11819TIP3    H156872   5.634   4.924  12.813 -0.8439  2.6189 -1.0023
11819TIP3    H256873   5.535   4.974  12.916  1.0117  2.0658  1.1093
11820TIP3   OH256874   4.158   4.767   0.080 -0.0390 -0.1195 -0.1024
11820TIP3    H156875   4.112   4.834   0.030  1.2688  2.1214  1.5559
11820TIP3    H256876   4.176   4.698   0.017 -0.5612  1.5307 -2.1346
11821TIP3   OH256877   3.182   3.019  11.036  0.4779  0.1587  0.4578
11821TIP3    H156878   3.160   2.926  11.038 -0.1390  0.2845 -0.3848
11821TIP3    H256879   3.257   3.025  10.978  0.2253  0.2483  0.1405
11822TIP3   OH256880   3.415   3.532   5.562 -0.1597  0.0798 -0.5611
11822TIP3    H156881   3.452   3.583   5.634  0.9270  0.1207 -1.1510
11822TIP3    H256882   3.405   3.444   5.598 -0.3988  0.2945 -0.0981
11823TIP3   OH256883   0.898   4.172   5.003  0.3499  0.0617  0.3611
11823TIP3    H156884   0.904   4.201   4.912 -0.3735 -0.4544  0.1448
11823TIP3    H256885   0.814   4.208   5.033 -0.8179 -2.2173 -0.0671
11824TIP3   OH256886   5.382   3.092  15.067 -0.7365 -0.0198 -0.4125
11824TIP3    H156887   5.354   3.002  15.047 -1.9027 -0.0952  1.4322
11824TIP3    H256888   5.451   3.110  15.004  0.2990 -2.6209 -0.1051
11825TIP3   OH256889   3.636   0.063  15.824  0.7546 -0.0193  0.2080
11825TIP3    H156890   3.699  -0.006  15.845  1.2553  0.7539  1.2663
11825TIP3    H256891   3.684   0.125  15.769  0.7873  0.3582  0.6661
11826TIP3   OH256892   0.774   6.620   2.043 -0.0877 -0.2794  0.1310
11826TIP3    H156893   0.681   6.602   2.027 -0.6842  2.5047  0.3300
11826TIP3    H256894   0.791   6.581   2.129 -0.9257 -1.2105 -0.1111
11827TIP3   OH256895   6.231   2.972   3.514 -0.3304 -0.4021  0.0448
11827TIP3    H156896   6.280   3.047   3.479  0.9968 -0.2264  2.1867
11827TIP3    H256897   6.144   3.006   3.532 -0.5921 -0.1276 -1.7040
11828TIP3   OH256898   2.659   6.499   3.701 -0.0973 -0.1495  0.5251
11828TIP3    H156899   2.742   6.546   3.694  0.1558 -0.5837  0.5333
11828TIP3    H256900   2.625   6.523   3.787  1.1611 -1.7583  1.5231
11829TIP3   OH256901   3.646   1.547   5.967  0.0300 -0.0710 -0.2733
11829TIP3    H156902   3.551   1.560   5.958  0.2306  1.6655 -0.1040
11829TIP3    H256903   3.661   1.540   6.061 -0.1030 -1.9917 -0.3674
11830TIP3   OH256904   5.987   3.454   1.703  0.3510  0.1801  0.4207
11830TIP3    H156905   5.964   3.439   1.795  0.2991  0.3108  0.4276
11830TIP3    H256906   5.916   3.413   1.653 -0.3525  1.3546  0.4451
11831TIP3   OH256907   6.142   6.726  10.992 -0.5144  0.0730  0.0750
11831TIP3    H156908   6.226   6.690  10.963  0.3016  0.2429  2.1474
11831TIP3    H256909   6.146   6.819  10.966 -0.7600 -0.2709 -1.2575
11832TIP3   OH256910   4.566   3.327   3.770 -0.1998  0.2740 -0.4988
11832TIP3    H156911   4.572   3.334   3.865 -1.4733  0.4602 -0.4175
11832TIP3    H256912   4.534   3.238   3.754 -1.8110  0.8549 -0.6436
11833TIP3   OH256913   4.302   0.563  15.327  0.5314  0.1225  0.4299
11833TIP3    H156914   4.397   0.555  15.321  0.3467 -2.1445  0.2457
11833TIP3    H256915   4.268   0.495  15.270 -1.1951 -0.4987  2.1373
11834TIP3   OH256916   1.601   4.101  12.358  0.3018  0.0683  0.4389
11834TIP3    H156917   1.528   4.159  12.334  0.3214 -0.2047 -0.3190
11834TIP3    H256918   1.649   4.089  12.276  1.6543  0.8752  1.1105
11835TIP3   OH256919   1.780   6.782  15.055  0.0404 -0.0022  0.5706
11835TIP3    H156920   1.814   6.731  14.982  0.5363 -2.7070  2.6161
11835TIP3    H256921   1.792   6.873  15.028 -1.6928 -0.8595 -3.5756
11836TIP3   OH256922   0.922   6.315   5.208 -0.5583  0.5544 -0.0635
11836TIP3    H156923   0.952   6.330   5.298  1.7318  1.3926 -0.9145
11836TIP3    H256924   0.927   6.220   5.197 -1.0811  0.4289  0.7846
11837TIP3   OH256925   5.908   0.307  11.082  0.3754  0.9983 -0.1637
11837TIP3    H156926   5.904   0.372  11.012 -0.6170  0.1601 -0.8832
11837TIP3    H256927   5.837   0.331  11.141 -0.3461  0.2354 -0.7185
11838TIP3   OH256928   3.077   3.218  12.720 -0.0590 -0.3154  0.2971
11838TIP3    H156929   3.025   3.159  12.773 -1.0992 -0.1493 -0.5305
11838TIP3    H256930   3.052   3.198  12.629 -1.0207  1.9089  0.0392
11839TIP3   OH256931   2.475   3.936   3.210  0.0811  0.5103  0.3194
11839TIP3    H156932   2.510   4.017   3.248  0.6312  0.4295 -0.0128
11839TIP3    H256933   2.508   3.936   3.120  1.2995 -0.8244  0.7524
11840TIP3   OH256934   0.955   2.824  12.224  0.4244 -0.5982  0.2908
11840TIP3    H156935   0.974   2.733  12.248  0.5928 -0.0746  2.2656
11840TIP3    H256936   1.013   2.842  12.150 -0.6196 -2.5091 -1.0175
11841TIP3   OH256937   0.731   3.922   4.515  0.2275 -0.4445  0.1519
11841TIP3    H156938   0.765   4.012   4.516 -0.4686 -0.1807  0.6399
11841TIP3    H256939   0.718   3.902   4.423  2.0586 -0.6826 -0.0620
11842TIP3   OH256940   4.642   0.507  14.279 -0.5333 -0.0324 -0.0389
11842TIP3    H156941   4.558   0.543  14.250 -1.1113  0.5607  2.2898
11842TIP3    H256942   4.696   0.505  14.200 -2.0331  1.6016 -1.1380
11843TIP3   OH256943   0.809   5.496  13.564  0.1418 -0.1545 -0.4253
11843TIP3    H156944   0.722   5.534  13.555 -0.0094 -0.7274 -1.4916
11843TIP3    H256945   0.846   5.499  13.476  1.1497 -0.0467 -0.0088
11844TIP3   OH256946   3.030   1.742   3.281  0.2815 -0.1829  0.5241
11844TIP3    H156947   3.064   1.662   3.242 -2.3266 -0.9108 -0.3848
11844TIP3    H256948   2.983   1.713   3.359  0.6369  0.6454  1.0555
11845TIP3   OH256949   5.235   3.804  13.810 -0.1106 -0.2473 -0.5563
11845TIP3    H156950   5.281   3.755  13.878 -0.3891 -0.2970 -0.4047
11845TIP3    H256951   5.215   3.738  13.743  2.2507  0.2312 -1.7980
11846TIP3   OH256952   2.009   4.426  14.318  0.3109  0.3349 -0.1472
11846TIP3    H156953   1.919   4.404  14.343  0.8833  0.6584  2.3625
11846TIP3    H256954   2.038   4.489  14.384  2.1308  0.8434 -1.3771
11847TIP3   OH256955   3.803   5.860   3.662 -0.6015  0.1044 -0.1785
11847TIP3    H156956   3.732   5.806   3.697 -2.1613  1.0889 -1.7745
11847TIP3    H256957   3.842   5.900   3.740 -1.6491 -0.6155  0.7344
11848TIP3   OH256958   2.740   3.951   1.962  0.1795 -0.3110  0.2743
11848TIP3    H156959   2.814   3.956   2.022 -0.2955  1.3974  0.7518
11848TIP3    H256960   2.763   3.881   1.900  1.7490 -0.4368  0.9890
11849TIP3   OH256961   3.926   1.355   5.959 -0.5867 -0.0628  0.2394
11849TIP3    H156962   3.994   1.419   5.979 -0.7491 -0.4046  1.9420
11849TIP3    H256963   3.966   1.270   5.978  0.3758 -0.6842 -4.0899
11850TIP3   OH256964   6.207   5.194   3.679 -0.1924 -0.8719 -0.6591
11850TIP3    H156965   6.149   5.134   3.727  0.4778 -1.0315 -0.0411
11850TIP3    H256966   6.276   5.138   3.644 -0.6700 -0.7519 -1.8193
11851TIP3   OH256967   2.656   3.600  11.264  0.4917  0.2479  0.4638
11851TIP3    H156968   2.721   3.537  11.232 -1.9947 -1.7799 -0.7542
11851TIP3    H256969   2.673   3.680  11.214  1.6273 -0.4563 -0.2909
11852TIP3   OH256970   3.521   0.752  16.166 -0.8597 -0.2734  1.0162
11852TIP3    H156971   3.548   0.755  16.258  2.0976  1.5913  0.1406
11852TIP3    H256972   3.547   0.836  16.130 -0.5946 -1.5337 -1.8998
11853TIP3   OH256973   5.032   3.165  13.934  0.7313 -1.1732 -0.5066
11853TIP3    H156974   5.116   3.189  13.973 -0.1058  0.8363  0.1365
11853TIP3    H256975   5.041   3.072  13.912  2.1902 -1.6507  1.9398
11854TIP3   OH256976   0.765   4.486   1.797  0.0504  0.4453  0.1149
11854TIP3    H156977   0.799   4.522   1.715  1.9875 -1.2376  0.1519
11854TIP3    H256978   0.747   4.394   1.778 -1.9436  0.6330  0.8945
11855TIP3   OH256979   3.286   1.532   0.666 -0.1979  0.0848  0.1534
11855TIP3    H156980   3.248   1.579   0.740 -1.3155 -0.6909  0.0929
11855TIP3    H256981   3.366   1.493   0.700 -1.5057 -1.5783  1.4145
11856TIP3   OH256982   2.686   4.123  15.648  0.5784  0.2714 -0.1012
11856TIP3    H156983   2.602   4.105  15.691  0.3131 -3.7555 -2.1208
11856TIP3    H256984   2.750   4.120  15.719 -0.4103 -1.5830  0.7459
11857TIP3   OH256985   1.181   4.192  15.776 -0.0025 -0.2606  0.0717
11857TIP3    H156986   1.105   4.140  15.802  0.7619 -0.7322  1.4151
11857TIP3    H256987   1.255   4.132  15.783  0.9862  1.1448  2.2950
11858TIP3   OH256988   4.226   5.814   0.263 -0.6578 -0.4361  0.4494
11858TIP3    H156989   4.252   5.906   0.268  0.9504 -0.7418 -1.6304
11858TIP3    H256990   4.185   5.806   0.177  1.4724 -2.2068 -0.4286
11859TIP3   OH256991   1.327   0.249   4.058  0.2153 -0.0890 -0.2129
11859TIP3    H156992   1.264   0.316   4.032  0.5712  0.0227 -0.7815
11859TIP3    H256993   1.407   0.272   4.012  0.9456  0.2892  1.2269
11860TIP3   OH256994   2.004   3.366  10.873 -0.1134  0.3730 -0.8633
11860TIP3    H156995   2.043   3.304  10.813 -0.8104  2.0191 -3.0786
11860TIP3    H256996   1.998   3.447  10.823 -2.6783  1.2079  0.7118
11861TIP3   OH256997   2.238   0.434  13.001 -0.4520  0.6305  0.2298
11861TIP3    H156998   2.183   0.512  12.998 -0.8160  0.3700  0.0847
11861TIP3    H256999   2.187   0.371  13.052 -0.0718  0.5560  0.5210
11862TIP3   OH257000   1.079   1.909   5.314  0.1477 -0.1697  0.2121
11862TIP3    H157001   1.038   1.882   5.396  1.3197  0.4823  1.0357
11862TIP3    H257002   1.078   1.831   5.259 -0.2882 -0.7240  1.0062
11863TIP3   OH257003   1.092   1.646   6.067  0.3139 -0.1567  0.1567
11863TIP3    H157004   1.100   1.574   6.005 -1.2010  2.1221 -2.7786
11863TIP3    H257005   1.056   1.605   6.146 -2.3888 -2.3338 -2.0854
11864TIP3   OH257006   6.654   1.088  11.480 -0.0920 -0.4799 -0.1717
11864TIP3    H157007   6.619   1.163  11.527  1.2710 -0.1255  0.3057
11864TIP3    H257008   6.748   1.106  11.471  0.2264 -2.0213 -0.2290
11865TIP3   OH257009   3.517   0.492   5.210  0.2700  0.1402 -0.0836
11865TIP3    H157010   3.428   0.478   5.177 -0.2615 -0.2530  1.5134
11865TIP3    H257011   3.540   0.579   5.177 -0.8124  0.3722 -0.2660
11866TIP3   OH257012   0.663   0.328  12.383  0.0744  0.4131  0.1415
11866TIP3    H157013   0.623   0.400  12.335  0.6756  0.2901 -0.5416
11866TIP3    H257014   0.636   0.249  12.337 -1.9102  0.0561  1.8158
11867TIP3   OH257015   2.862   0.644  16.503 -0.1122  0.2832  0.1346
11867TIP3    H157016   2.949   0.682  16.518  0.4545 -0.2704 -1.6801
11867TIP3    H257017   2.859   0.567  16.560  0.6310  0.2315  0.1008
11868TIP3   OH257018   4.287   5.979  14.463  0.1423 -0.1916  0.2878
11868TIP3    H157019   4.349   6.048  14.486  0.4115 -0.0331 -0.8922
11868TIP3    H257020   4.341   5.901  14.450 -0.0108 -0.2901  0.2383
11869TIP3   OH257021   4.473   0.768  11.573  0.0039 -0.3503 -0.2455
11869TIP3    H157022   4.480   0.672  11.579  1.3696 -0.2784 -0.4212
11869TIP3    H257023   4.555   0.795  11.532  0.1905  1.0072  0.9763
11870TIP3   OH257024   5.287   1.338  16.809  0.1645 -0.2626 -0.0400
11870TIP3    H157025   5.285   1.298  16.896 -1.9438  0.0958  0.1186
11870TIP3    H257026   5.335   1.276  16.755 -1.1666 -1.9712  0.7009
11871TIP3   OH257027   4.313   3.715  14.804 -0.0586  0.2276  0.1601
11871TIP3    H157028   4.320   3.642  14.866 -4.7377 -0.7929 -0.3627
11871TIP3    H257029   4.333   3.793  14.856  0.0900 -0.9607  1.9235
11872TIP3   OH257030   5.990   2.329  11.116  0.1201 -0.2971  0.0166
11872TIP3    H157031   6.073   2.363  11.150  0.0201  1.5016 -1.4557
11872TIP3    H257032   5.938   2.407  11.097 -0.6817 -1.3207 -2.1053
11873TIP3   OH257033   0.901   4.519  10.756  0.4379  0.3288  0.0247
11873TIP3    H157034   0.968   4.472  10.707 -0.2769  0.4316 -1.0729
11873TIP3    H257035   0.841   4.451  10.786  0.5197  0.3271  0.1810
11874TIP3   OH257036   1.656   5.424  14.445 -0.3409 -0.4352 -0.5434
11874TIP3    H157037   1.673   5.370  14.522  0.2955  1.2758  0.5304
11874TIP3    H257038   1.686   5.370  14.371 -2.1659 -2.6382  0.2382
11875TIP3   OH257039   6.746   1.923  12.797 -0.1266 -0.5166 -0.3919
11875TIP3    H157040   6.675   1.957  12.852 -0.2783 -0.9328 -0.3282
11875TIP3    H257041   6.809   1.888  12.860  0.1530 -0.1159 -0.4470
11876TIP3   OH257042   3.787   1.948  14.440 -0.2917  0.5125  0.0514
11876TIP3    H157043   3.782   1.996  14.523  0.4788  0.4035  0.1670
11876TIP3    H257044   3.717   1.883  14.446 -1.6876  1.9548 -0.3325
11877TIP3   OH257045   2.648   2.714   5.954  0.5376  0.1363 -0.0883
11877TIP3    H157046   2.600   2.750   5.879  0.0788  3.7215  1.8176
11877TIP3    H257047   2.696   2.640   5.918  0.8286  2.1397 -4.0750
11878TIP3   OH257048   0.395   1.245   4.985 -1.2668  0.1760  0.2706
11878TIP3    H157049   0.380   1.179   4.917  1.1029 -0.2436  0.1108
11878TIP3    H257050   0.408   1.194   5.065  1.7680  0.3060 -0.0643
11879TIP3   OH257051   5.359   4.076  15.585  0.0488 -0.4867  0.3479
11879TIP3    H157052   5.296   4.005  15.572  0.0444 -0.3039 -0.6526
11879TIP3    H257053   5.430   4.056  15.524  0.8035 -0.5065  1.2248
11880TIP3   OH257054   3.650   0.736   0.982  0.3834  0.3226 -0.3777
11880TIP3    H157055   3.677   0.716   1.071 -1.0215  2.9903  0.6978
11880TIP3    H257056   3.731   0.759   0.937  0.7381  1.8683  1.0260
11881TIP3   OH257057   2.727   5.919  12.594  0.1704 -0.5472  0.0223
11881TIP3    H157058   2.809   5.878  12.568  0.5966  0.0831  0.3600
11881TIP3    H257059   2.693   5.959  12.513  1.7556  1.8704  0.4817
11882TIP3   OH257060   3.095   2.772  12.939 -0.2876 -0.4507  0.1647
11882TIP3    H157061   3.055   2.692  12.904 -0.7923 -0.8082  1.5593
11882TIP3    H257062   3.089   2.763  13.034  0.8194  0.6610  0.3545
11883TIP3   OH257063   6.373   1.334   5.141  0.4222 -1.2564  0.4791
11883TIP3    H157064   6.366   1.427   5.163  1.1822 -1.1025  0.0734
11883TIP3    H257065   6.290   1.313   5.098 -0.0379 -0.9399  1.2041
11884TIP3   OH257066   2.968   5.527   3.256 -0.3294  0.7895 -0.1842
11884TIP3    H157067   3.015   5.531   3.173 -0.6835  1.0521 -0.3750
11884TIP3    H257068   3.035   5.543   3.322  0.1873 -0.6677 -0.3317
11885TIP3   OH257069   5.189   2.022   3.651 -0.1534  0.6820 -0.0826
11885TIP3    H157070   5.109   2.073   3.663  0.1155  0.8063  1.2019
11885TIP3    H257071   5.168   1.935   3.683 -0.7654 -0.2027 -2.7244
11886TIP3   OH257072   1.849   5.884   1.906  0.2104 -0.4169  0.0692
11886TIP3    H157073   1.850   5.805   1.959  2.8486 -0.2397  0.3761
11886TIP3    H257074   1.787   5.942   1.951 -0.4937 -1.6971  0.7700
11887TIP3   OH257075   3.673   3.902  15.383  0.2854  0.3308  0.1421
11887TIP3    H157076   3.686   3.808  15.398  1.3285  0.5660  0.7481
11887TIP3    H257077   3.719   3.945  15.456 -1.0416  1.2860  0.4377
11888TIP3   OH257078   2.656   4.833  16.074  0.5230 -0.5482  0.0240
11888TIP3    H157079   2.684   4.802  15.988  1.1710  0.6805 -0.2063
11888TIP3    H257080   2.577   4.884  16.056  0.1681 -1.0148  0.2586
11889TIP3   OH257081   0.521   5.527   5.024 -0.0723  0.0715  0.4813
11889TIP3    H157082   0.597   5.535   4.966 -0.9621 -1.3515 -0.9160
11889TIP3    H257083   0.483   5.442   5.002  0.0710 -0.8928  3.7725
11890TIP3   OH257084   5.806   5.927   4.413 -0.0354 -0.1286 -0.1205
11890TIP3    H157085   5.799   5.848   4.360 -0.2371  1.1581 -2.0791
11890TIP3    H257086   5.867   5.904   4.483 -0.3623 -2.1079 -0.4580
11891TIP3   OH257087   1.063   5.334   1.847  0.3565 -0.1907 -0.0327
11891TIP3    H157088   0.986   5.341   1.791 -0.0877 -0.7029  0.5062
11891TIP3    H257089   1.130   5.387   1.803  0.4698 -1.7737 -1.7948
11892TIP3   OH257090   6.459   6.362  14.615  0.0980 -0.4242  0.1272
11892TIP3    H157091   6.430   6.356  14.524 -0.7872  0.9778  0.2894
11892TIP3    H257092   6.485   6.454  14.625  0.9463 -0.7650  1.0721
11893TIP3   OH257093   3.892   2.784   5.461 -0.0580  0.1918  0.0348
11893TIP3    H157094   3.862   2.809   5.549  2.4657  1.1348  0.7031
11893TIP3    H257095   3.932   2.698   5.473 -0.2245  0.0641 -0.3185
11894TIP3   OH257096   4.192   3.366  14.682 -0.0387 -0.2550  0.2248
11894TIP3    H157097   4.132   3.376  14.756 -0.0135 -0.0673  0.2193
11894TIP3    H257098   4.279   3.367  14.721 -0.0675 -2.0179  0.4051
11895TIP3   OH257099   1.294   0.964   1.989  0.4384 -0.3477 -0.1254
11895TIP3    H157100   1.293   0.883   2.041 -0.7390  0.2048  0.7424
11895TIP3    H257101   1.384   0.970   1.956  1.1767 -0.8217  1.6986
11896TIP3   OH257102   2.751   2.794  14.345 -0.0606 -0.5390  0.2244
11896TIP3    H157103   2.801   2.868  14.311 -1.5768  0.5799  0.3320
11896TIP3    H257104   2.765   2.724  14.282  0.1013  0.3716 -0.7666
11897TIP3   OH257105   6.620   0.457  14.429  0.2190  0.0595  0.3836
11897TIP3    H157106   6.566   0.516  14.482  1.1740  1.0102  0.3153
11897TIP3    H257107   6.567   0.440  14.351 -0.0448  0.8716  0.3742
11898TIP3   OH257108   4.531   5.769  17.002  0.4734 -0.1092 -0.3558
11898TIP3    H157109   4.618   5.740  17.027  0.8174  0.2024 -1.1550
11898TIP3    H257110   4.509   5.717  16.925  0.4050  0.5539 -0.7967
11899TIP3   OH257111   2.814   4.922  14.059 -0.3317  0.5542 -0.0795
11899TIP3    H157112   2.810   4.981  14.134  1.0698  0.3851  0.1287
11899TIP3    H257113   2.739   4.948  14.005 -2.0915 -0.1345  1.9592
11900TIP3   OH257114   2.366   5.523   4.180 -0.3250 -0.2278  0.0125
11900TIP3    H157115   2.353   5.435   4.215 -0.4643 -1.0603 -2.0687
11900TIP3    H257116   2.453   5.548   4.210  0.0464 -1.4102 -0.0557
11901TIP3   OH257117   5.541   2.553  12.092 -0.0131  0.0311 -0.3930
11901TIP3    H157118   5.497   2.543  12.007  1.5283  1.9246 -1.4450
11901TIP3    H257119   5.625   2.595  12.071 -0.6466  2.8492  2.2952
11902TIP3   OH257120   2.394   3.956  10.830 -0.2309 -0.4671  0.4321
11902TIP3    H157121   2.391   4.048  10.855  3.5561 -0.1252 -0.1059
11902TIP3    H257122   2.449   3.915  10.897  0.3595 -1.7926 -0.8434
11903TIP3   OH257123   3.698   4.411   2.660  0.8548 -0.1333 -0.1555
11903TIP3    H157124   3.785   4.444   2.682  0.1801  0.7440  1.2961
11903TIP3    H257125   3.689   4.331   2.713  0.8919 -0.3937 -0.5403
11904TIP3   OH257126   2.152   3.211   5.189  0.0212 -0.2352  0.5266
11904TIP3    H157127   2.180   3.287   5.239 -1.0914  1.8337 -1.8522
11904TIP3    H257128   2.068   3.237   5.151  0.3046 -2.0925 -1.5116
11905TIP3   OH257129   1.245   3.285  14.495  0.8185  0.0354  0.7160
11905TIP3    H157130   1.239   3.251  14.584 -1.0518  1.0224  1.0025
11905TIP3    H257131   1.195   3.223  14.442  1.6896 -0.3986  0.4011
11906TIP3   OH257132   1.973   6.007  14.052  0.1943  0.1036  0.2355
11906TIP3    H157133   1.959   6.041  14.140 -0.0272 -0.3167  0.3652
11906TIP3    H257134   1.887   5.976  14.024  0.2447  0.3316 -0.1693
11907TIP3   OH257135   0.369   1.722   4.359  0.6680 -0.5058 -0.2691
11907TIP3    H157136   0.368   1.701   4.452 -0.3963 -1.2353 -0.4348
11907TIP3    H257137   0.460   1.708   4.332  1.2988  1.1206  0.9652
11908TIP3   OH257138   3.500   1.716  11.584 -0.0943 -0.1623  0.1737
11908TIP3    H157139   3.572   1.654  11.591 -0.1954 -0.2209  0.7861
11908TIP3    H257140   3.520   1.769  11.507 -1.1289 -2.3800 -1.6858
11909TIP3   OH257141   5.323   4.970  13.714 -0.1787  0.1010  0.0151
11909TIP3    H157142   5.398   4.975  13.654 -0.3092  0.1002 -0.1488
11909TIP3    H257143   5.267   4.902  13.677 -0.2321  0.0596  0.1710
11910TIP3   OH257144   5.010   0.918   0.142  0.3080 -0.2812 -0.2774
11910TIP3    H157145   4.948   0.933   0.070  2.1275 -0.4884 -1.9487
11910TIP3    H257146   4.964   0.859   0.202 -1.8453  1.1578 -0.4578
11911TIP3   OH257147   4.617   1.846   1.455 -0.9558  0.0493 -0.8150
11911TIP3    H157148   4.563   1.769   1.470  0.8450 -0.8296  1.4075
11911TIP3    H257149   4.682   1.844   1.525  1.1611  1.7807 -2.6552
11912TIP3   OH257150   6.197   1.097   1.926 -0.7262  0.2208  0.1764
11912TIP3    H157151   6.256   1.168   1.951 -2.3075  1.9400 -0.8414
11912TIP3    H257152   6.114   1.119   1.968 -1.4239 -0.6384 -0.7338
11913TIP3   OH257153   0.574   1.409  16.655 -0.1671 -0.3803  0.4561
11913TIP3    H157154   0.584   1.402  16.560  0.8559  1.0416  0.4375
11913TIP3    H257155   0.485   1.441  16.668 -0.8020 -1.9645  0.0464
11914TIP3   OH257156   5.475   1.204  16.676 -0.0734  0.1228 -0.0342
11914TIP3    H157157   5.528   1.197  16.755  0.5124  1.4232 -0.2896
11914TIP3    H257158   5.531   1.248  16.613 -0.9773  0.2644 -0.7607
11915TIP3   OH257159   2.333   3.760   2.686  0.4610 -0.5730  0.2126
11915TIP3    H157160   2.299   3.849   2.691  3.3533  0.6305 -0.6307
11915TIP3    H257161   2.331   3.728   2.777  0.2084  0.6630  0.6453
11916TIP3   OH257162   5.537   2.493  14.100 -0.7321  0.1804 -0.7025
11916TIP3    H157163   5.486   2.448  14.033 -1.2636  1.3652 -1.1178
11916TIP3    H257164   5.472   2.542  14.151 -0.3163 -0.5605  0.5673
11917TIP3   OH257165   3.325   3.213  14.564 -0.6030 -0.0046  0.5988
11917TIP3    H157166   3.398   3.274  14.570 -1.0468  0.4755  1.1629
11917TIP3    H257167   3.289   3.210  14.653 -1.5147  0.0729  0.2369
11918TIP3   OH257168   6.243   3.342   0.840 -0.3506  0.1416 -0.2227
11918TIP3    H157169   6.177   3.274   0.852  0.9934 -0.8139  2.2737
11918TIP3    H257170   6.326   3.299   0.861  1.1600  1.2344 -3.5376
11919TIP3   OH257171   2.752   2.243   1.277 -0.2023 -0.8385 -0.3826
11919TIP3    H157172   2.756   2.265   1.184  0.6412  4.0654  0.6833
11919TIP3    H257173   2.843   2.229   1.302 -0.2310 -0.0032  0.1758
11920TIP3   OH257174   0.494   0.886  17.052  0.3703  0.2820  0.1961
11920TIP3    H157175   0.482   0.981  17.054  0.6089  0.3188 -0.0991
11920TIP3    H257176   0.448   0.854  17.130  1.1809  0.7372  0.8516
11921TIP3   OH257177   4.083   1.846  13.096 -0.3785  0.1492 -0.2490
11921TIP3    H157178   3.993   1.815  13.086 -1.0658  1.6690  0.9902
11921TIP3    H257179   4.133   1.796  13.032 -1.9025 -1.5527 -0.1436
11922TIP3   OH257180   6.453   1.914  11.332  0.1866 -0.2737 -0.2384
11922TIP3    H157181   6.487   1.846  11.274  2.1666  0.9206 -0.4990
11922TIP3    H257182   6.489   1.996  11.298  0.1244  0.6145  1.7518
11923TIP3   OH257183   1.446   3.872  16.852  0.3130  0.1489 -0.2068
11923TIP3    H157184   1.504   3.945  16.831  0.0609  0.3827 -0.0993
11923TIP3    H257185   1.502   3.808  16.896  0.3261  0.6943  0.5715
11924TIP3   OH257186   2.466   1.392  11.633 -0.6815 -0.0129 -0.0796
11924TIP3    H157187   2.458   1.353  11.721 -0.2319  0.4391  0.1646
11924TIP3    H257188   2.404   1.343  11.580 -2.2449  0.8701  0.8979
11925TIP3   OH257189   6.058   2.627  15.121  0.4005 -0.3255  0.4638
11925TIP3    H157190   6.143   2.587  15.137  0.2592 -0.4506  0.9194
11925TIP3    H257191   6.001   2.590  15.189 -0.4954 -1.7116 -1.0177
11926TIP3   OH257192   0.026   4.561  15.544  0.2645 -0.1439  0.0570
11926TIP3    H157193  -0.038   4.601  15.602 -0.4024 -1.5009  0.2550
11926TIP3    H257194  -0.025   4.529  15.470  1.0984  1.5313 -1.2781
11927TIP3   OH257195   0.428   4.207  12.038 -0.1073 -0.1489  0.3453
11927TIP3    H157196   0.481   4.287  12.029  0.9472 -1.0634 -2.0067
11927TIP3    H257197   0.377   4.203  11.957  2.0451 -3.3728 -0.9342
11928TIP3   OH257198   3.621   1.971   0.123  0.0108  0.2609 -0.4894
11928TIP3    H157199   3.571   1.912   0.180 -1.7344  1.8397 -0.3669
11928TIP3    H257200   3.649   1.915   0.050  0.2307 -1.2117  0.6939
11929TIP3   OH257201   3.393   4.233   2.488 -0.4205  0.8729 -0.3823
11929TIP3    H157202   3.374   4.310   2.435  0.1337  1.0107 -0.3881
11929TIP3    H257203   3.327   4.235   2.557  0.6903  2.3832  0.6842
11930TIP3   OH257204   0.665   4.821  13.485 -0.6429  0.0732 -0.3077
11930TIP3    H157205   0.730   4.855  13.547 -1.3098  2.4428 -0.8356
11930TIP3    H257206   0.701   4.738  13.455  0.8261  0.0345  1.4633
11931TIP3   OH257207   5.673   1.514  15.149  0.2911 -0.0223 -0.0590
11931TIP3    H157208   5.600   1.463  15.115  0.4985 -0.1665 -0.2893
11931TIP3    H257209   5.676   1.592  15.093  0.5378 -0.1873 -0.2758
11932TIP3   OH257210   0.751   4.232  12.866 -0.3749 -0.1645  0.2632
11932TIP3    H157211   0.759   4.328  12.868  1.2240 -0.2427 -1.5145
11932TIP3    H257212   0.841   4.200  12.858 -0.9338 -1.8020  0.3410
11933TIP3   OH257213   3.655   1.238  10.572 -0.1458 -0.3724  0.1942
11933TIP3    H157214   3.688   1.179  10.639 -0.2935  1.4035  1.8703
11933TIP3    H257215   3.722   1.306  10.565 -0.1778 -0.4919 -1.3986
11934TIP3   OH257216   3.015   2.646  11.705 -0.1370  0.2289 -0.2757
11934TIP3    H157217   3.076   2.686  11.644 -0.9242  0.4142 -0.9595
11934TIP3    H257218   2.938   2.703  11.703 -0.3571 -0.0331  0.5238
11935TIP3   OH257219   3.305   1.750  17.228 -0.0454  0.4234  0.6169
11935TIP3    H157220   3.287   1.841  17.204 -1.6541  0.4214  1.6819
11935TIP3    H257221   3.249   1.698  17.170  0.8944  0.1113 -0.0128
11936TIP3   OH257222   6.739   5.780   2.858  0.3285 -0.6048 -0.8565
11936TIP3    H157223   6.687   5.777   2.777 -0.4268 -2.2355 -0.3380
11936TIP3    H257224   6.796   5.856   2.847 -1.6844  0.8202 -1.7519
11937TIP3   OH257225   6.402   3.063  16.143 -0.3410  0.4627  0.0178
11937TIP3    H157226   6.462   3.066  16.217  0.3558  1.2343 -0.5796
11937TIP3    H257227   6.372   2.972  16.141  0.0686  0.3002  0.8913
11938TIP3   OH257228   0.202   6.008  12.600  0.1451  0.2415  0.1020
11938TIP3    H157229   0.244   6.045  12.677  0.7242 -0.4459  0.1183
11938TIP3    H257230   0.160   5.928  12.631 -0.7693  0.6653 -0.0164
11939TIP3   OH257231   4.450   6.075  16.744 -0.4160  0.5106  0.3968
11939TIP3    H157232   4.360   6.053  16.721 -0.1120 -0.6069  0.2596
11939TIP3    H257233   4.481   6.128  16.670  0.2405 -2.2473 -1.4023
11940TIP3   OH257234   5.221   5.796  14.163  0.3436 -0.1309 -1.3879
11940TIP3    H157235   5.276   5.874  14.159  0.2065 -0.0462 -1.6328
11940TIP3    H257236   5.138   5.822  14.122 -0.8374  0.5200  1.3575
11941TIP3   OH257237   4.989   5.994   1.821 -0.1132 -0.1320 -0.1543
11941TIP3    H157238   5.053   6.049   1.776 -1.1108 -0.1985 -1.7311
11941TIP3    H257239   4.940   6.054   1.876  0.0010  0.2598 -0.4761
11942TIP3   OH257240   3.424   3.308   3.491 -0.9945  0.4849 -0.8503
11942TIP3    H157241   3.443   3.216   3.472 -2.2527 -0.2603  1.2387
11942TIP3    H257242   3.506   3.343   3.526 -0.5125  0.1473 -1.6515
11943TIP3   OH257243   2.345   6.465   4.247  0.1515 -0.2443  0.3646
11943TIP3    H157244   2.390   6.482   4.329 -0.4229  1.2262  0.3807
11943TIP3    H257245   2.255   6.445   4.272  0.4362 -1.7982  0.2247
11944TIP3   OH257246   0.322   2.948   1.731  0.2746 -0.4636  0.0423
11944TIP3    H157247   0.276   2.950   1.648  0.6056 -0.4369 -0.1431
11944TIP3    H257248   0.341   3.040   1.751 -0.3650 -0.4197  0.4656
11945TIP3   OH257249   0.875   4.073  14.741 -0.5458 -0.3501 -0.5589
11945TIP3    H157250   0.819   4.057  14.664 -0.2132 -0.1463 -0.8428
11945TIP3    H257251   0.904   4.164  14.731  1.5956 -1.1044 -1.5597
11946TIP3   OH257252   1.086   2.507  14.791  0.6598 -0.7888  0.0469
11946TIP3    H157253   1.091   2.502  14.695  0.7358  0.4282 -0.0245
11946TIP3    H257254   0.999   2.542  14.808  1.4376  1.0573  0.3281
11947TIP3   OH257255   2.430   2.854   4.417  0.2170 -0.2440 -0.0751
11947TIP3    H157256   2.417   2.810   4.501 -1.7125 -0.5793 -0.5233
11947TIP3    H257257   2.459   2.942   4.440  1.0851 -0.7771  0.9003
11948TIP3   OH257258   5.955   2.571  16.816 -0.2522  0.5213 -0.3548
11948TIP3    H157259   6.048   2.566  16.791  0.1132  0.7997  0.9021
11948TIP3    H257260   5.921   2.483  16.800 -0.0659  0.7069 -1.8922
11949TIP3   OH257261   6.579   1.849   1.220 -0.2506  0.1507  0.6551
11949TIP3    H157262   6.661   1.898   1.217 -0.8101  1.1438  1.2174
11949TIP3    H257263   6.546   1.862   1.309 -0.5142 -1.0885  0.7427
11950TIP3   OH257264   5.907   5.315  13.004  0.4299  0.2085  0.0265
11950TIP3    H157265   5.989   5.330  12.958  0.4525  0.6818  0.2194
11950TIP3    H257266   5.931   5.310  13.096  0.3423 -0.4286  0.0185
11951TIP3   OH257267   6.178   2.787  14.474 -0.1459  0.0331 -0.2128
11951TIP3    H157268   6.200   2.798  14.567 -0.8120  0.7972 -0.1415
11951TIP3    H257269   6.119   2.711  14.473 -0.2966  0.1472  0.0062
11952TIP3   OH257270   0.137   1.197   5.194  0.1435 -0.3427 -0.2069
11952TIP3    H157271   0.101   1.161   5.112 -0.0885 -0.3910 -0.0842
11952TIP3    H257272   0.076   1.267   5.218  1.2334  0.9385 -1.0826
11953TIP3   OH257273   4.285   5.099  14.585 -0.7343 -0.1087 -0.6316
11953TIP3    H157274   4.315   5.165  14.522  0.2615 -2.1891 -2.3666
11953TIP3    H257275   4.358   5.089  14.646 -1.9697  2.4335  1.3706
11954TIP3   OH257276   4.619   1.783   2.443  0.1858 -0.4135 -0.4082
11954TIP3    H157277   4.690   1.802   2.381  0.5750  0.4453  0.2797
11954TIP3    H257278   4.603   1.689   2.434  2.4909 -0.9337  0.5349
11955TIP3   OH257279   4.435   4.647   3.075 -0.1498 -0.4817  0.2755
11955TIP3    H157280   4.456   4.720   3.133 -0.6116 -1.1727  1.3230
11955TIP3    H257281   4.509   4.587   3.083 -0.3387 -0.7048  0.3471
11956TIP3   OH257282   6.671   1.147   2.373 -0.1983 -0.2758  0.5629
11956TIP3    H157283   6.593   1.131   2.321 -0.6141  0.6877  0.8830
11956TIP3    H257284   6.742   1.155   2.309 -0.6204  0.4003  0.1787
11957TIP3   OH257285   6.298   1.994  12.529  0.0066  0.7396 -0.1800
11957TIP3    H157286   6.381   1.948  12.535 -0.6735 -0.2796  1.9250
11957TIP3    H257287   6.322   2.085  12.514  1.5047  0.5287  0.8767
11958TIP3   OH257288   0.751   5.982   5.210  0.0480  0.4845  0.2675
11958TIP3    H157289   0.690   6.006   5.280  0.7996 -0.6014  1.3291
11958TIP3    H257290   0.812   5.921   5.252 -0.7983 -1.9471 -1.8860
11959TIP3   OH257291   4.126   6.160   3.794 -0.6718  0.0119 -0.0836
11959TIP3    H157292   4.113   6.233   3.734 -1.2611  2.4517  2.8740
11959TIP3    H257293   4.134   6.201   3.880  1.0903 -3.2831  1.4313
11960TIP3   OH257294   4.024   3.619   3.981  0.4621 -0.9429  0.4832
11960TIP3    H157295   3.974   3.548   4.022  0.0471 -1.3730 -0.7662
11960TIP3    H257296   4.105   3.577   3.952  0.5767 -0.7246  0.4870
11961TIP3   OH257297   6.450   0.986  11.836  0.0982  0.4069  0.5927
11961TIP3    H157298   6.396   1.042  11.781  0.8944  0.6411  0.0419
11961TIP3    H257299   6.537   1.026  11.834  0.5801 -0.6255  0.5132
11962TIP3   OH257300   3.543   4.361   1.923  0.1786  0.0752  0.3308
11962TIP3    H157301   3.580   4.282   1.882 -1.3872  0.1504 -1.2500
11962TIP3    H257302   3.593   4.370   2.004  2.2132 -1.0181 -0.7402
11963TIP3   OH257303   2.874   3.817   3.261 -0.6102 -0.9243  0.3424
11963TIP3    H157304   2.839   3.745   3.208  2.4321 -1.3097 -1.2614
11963TIP3    H257305   2.901   3.775   3.342  1.5227 -1.7253 -0.7416
11964TIP3   OH257306   0.564   6.391  11.174 -0.4270  0.0960 -0.1885
11964TIP3    H157307   0.613   6.433  11.103  1.3418 -3.5956 -1.2617
11964TIP3    H257308   0.589   6.440  11.253  2.9275 -0.0297 -1.1118
11965TIP3   OH257309   1.372   2.637   5.529  0.1182 -0.3162 -0.6150
11965TIP3    H157310   1.306   2.694   5.568  0.1391 -0.0596 -0.9455
11965TIP3    H257311   1.353   2.550   5.563  0.2019 -0.0780  0.0419
11966TIP3   OH257312   3.183   6.489  11.576  0.0405  0.2498  0.0885
11966TIP3    H157313   3.124   6.541  11.630 -0.2553 -0.6185  0.6298
11966TIP3    H257314   3.241   6.447  11.640  1.3609  1.2433 -0.4491
11967TIP3   OH257315   4.991   5.117  15.617 -0.6565  0.7627 -0.7262
11967TIP3    H157316   5.079   5.105  15.654 -1.0809 -1.2790 -0.2936
11967TIP3    H257317   4.933   5.070  15.677 -1.8414  0.7330 -1.8592
11968TIP3   OH257318   1.306   3.808   1.269  0.6828 -0.4237  0.4101
11968TIP3    H157319   1.285   3.843   1.183 -1.0872  0.5572  1.1996
11968TIP3    H257320   1.333   3.717   1.253 -2.4606 -1.1741 -0.8922
11969TIP3   OH257321   1.947   0.634   4.143 -0.0278  0.0650  0.7358
11969TIP3    H157322   1.895   0.574   4.089  0.3365  0.8813 -0.5349
11969TIP3    H257323   1.882   0.686   4.190 -0.4138  1.6620 -1.4905
11970TIP3   OH257324   5.929   5.376  11.170  0.0894 -0.5884  0.0938
11970TIP3    H157325   5.852   5.427  11.143 -0.6092  0.7773  4.4174
11970TIP3    H257326   5.894   5.293  11.200  0.0545  0.6104  3.5471
11971TIP3   OH257327   5.585   0.081  16.647  0.2657  0.0761  0.3917
11971TIP3    H157328   5.492   0.096  16.660 -0.2061 -0.7654 -1.7367
11971TIP3    H257329   5.620   0.165  16.616  0.0716  0.2170  0.5616
11972TIP3   OH257330   1.436   3.605  13.094 -0.1579 -0.3087  0.1487
11972TIP3    H157331   1.527   3.593  13.067 -0.1840  1.6551 -0.9172
11972TIP3    H257332   1.428   3.700  13.109 -1.6533 -0.6452  1.5952
11973TIP3   OH257333   0.248   2.617  15.932  0.1041  0.6308  0.4791
11973TIP3    H157334   0.228   2.530  15.898  0.9742  0.6687 -0.1202
11973TIP3    H257335   0.205   2.677  15.871 -0.6876  0.6188  1.0218
11974TIP3   OH257336   5.461   3.728   5.221 -0.0225 -0.1898  0.0111
11974TIP3    H157337   5.540   3.781   5.227 -0.2639  0.3123 -1.0461
11974TIP3    H257338   5.492   3.639   5.202  0.2937 -0.0380 -0.1684
11975TIP3   OH257339   0.561   2.111   0.667  0.2537 -0.0961 -0.1154
11975TIP3    H157340   0.518   2.173   0.726  1.2485  1.6502 -1.1780
11975TIP3    H257341   0.623   2.064   0.722  0.4281  0.7844  0.4432
11976TIP3   OH257342   2.732   0.055  12.955  0.4142 -0.0538 -0.0832
11976TIP3    H157343   2.661   0.117  12.942  1.5771  1.6652  1.5805
11976TIP3    H257344   2.795   0.076  12.886 -0.4536 -1.3006 -1.2929
11977TIP3   OH257345   2.856   0.598  15.041  0.0020 -0.5413 -0.4996
11977TIP3    H157346   2.781   0.639  15.083 -0.4469 -0.5189 -1.3091
11977TIP3    H257347   2.850   0.505  15.065 -0.4635 -0.5954 -0.8147
11978TIP3   OH257348   0.052   3.902   0.372 -0.0686 -0.2811  0.0684
11978TIP3    H157349   0.082   3.883   0.461  0.5669 -0.4485 -0.1722
11978TIP3    H257350   0.070   3.995   0.360 -0.9500 -0.0665  0.4129
11979TIP3   OH257351   2.844   1.855  10.917  0.3804  0.1473 -0.2868
11979TIP3    H157352   2.759   1.898  10.908  0.3086  0.1253  0.2764
11979TIP3    H257353   2.838   1.778  10.859  0.5654  0.9697 -1.4155
11980TIP3   OH257354   5.795   5.333   3.285 -0.5481 -0.4607 -0.4065
11980TIP3    H157355   5.862   5.276   3.247 -1.2824 -1.9626  0.5344
11980TIP3    H257356   5.721   5.325   3.225 -0.7461 -0.7004 -0.1284
11981TIP3   OH257357   4.138   3.098   5.664  0.2147  0.0326  0.1502
11981TIP3    H157358   4.097   3.016   5.694  1.0620 -0.0924  0.9963
11981TIP3    H257359   4.208   3.114   5.728  0.2449  1.2608 -0.1900
11982TIP3   OH257360   6.003   0.238  16.391 -0.4514 -0.2137 -0.1337
11982TIP3    H157361   6.053   0.293  16.332  1.2134 -2.2807 -0.7170
11982TIP3    H257362   6.066   0.211  16.458 -1.6338 -0.1247  1.0328
11983TIP3   OH257363   4.001   5.244  11.159  0.4054 -0.2254 -0.2576
11983TIP3    H157364   4.082   5.193  11.164  0.0493 -0.7530  0.3304
11983TIP3    H257365   3.996   5.273  11.068  1.7138  0.5906 -0.0780
11984TIP3   OH257366   1.801   6.763   2.788 -0.0488  0.1663  0.2115
11984TIP3    H157367   1.893   6.787   2.800 -0.2456  1.4972 -0.8651
11984TIP3    H257368   1.786   6.693   2.851  1.5450  0.3581  0.8136
11985TIP3   OH257369   0.293   6.516  15.994 -0.7026  0.1463 -0.4569
11985TIP3    H157370   0.247   6.473  16.067  1.7381 -1.4563  0.2040
11985TIP3    H257371   0.235   6.505  15.919 -1.4619 -1.7211  0.3756
11986TIP3   OH257372   5.577   2.275   4.937 -0.2094  0.4233 -0.1057
11986TIP3    H157373   5.624   2.228   4.868  0.4458  1.5487 -0.4372
11986TIP3    H257374   5.484   2.265   4.914 -0.0080  0.5432 -0.9918
11987TIP3   OH257375   2.667   6.459   5.264 -0.1408  0.8773 -0.2298
11987TIP3    H157376   2.722   6.458   5.186 -0.9020  2.9349 -0.8419
11987TIP3    H257377   2.726   6.436   5.335  0.5943 -0.9000 -1.3672
11988TIP3   OH257378   2.238   0.651  10.932 -0.7736 -0.0424  0.1319
11988TIP3    H157379   2.308   0.707  10.899 -0.0178 -0.8571  0.3192
11988TIP3    H257380   2.225   0.679  11.023 -1.1649  0.5685 -0.1137
11989TIP3   OH257381   3.099   4.258  11.768  0.6488  0.1127 -0.2109
11989TIP3    H157382   3.022   4.231  11.818 -0.2293  1.9759 -0.5172
11989TIP3    H257383   3.173   4.239  11.825  0.0972 -3.0323 -0.4776
11990TIP3   OH257384   5.773   3.878   3.515  0.1929 -0.5795 -0.4604
11990TIP3    H157385   5.790   3.786   3.532 -0.5923 -0.3834  1.5315
11990TIP3    H257386   5.723   3.878   3.433 -1.0612 -2.0555  0.2624
11991TIP3   OH257387   4.541   4.859   5.676 -0.4784 -0.2612  0.0287
11991TIP3    H157388   4.604   4.819   5.737 -0.9918  0.5989  1.1644
11991TIP3    H257389   4.527   4.794   5.608 -0.3911 -1.5146  1.1981
11992TIP3   OH257390   6.447   1.996   4.077  0.1234  0.2510 -0.1438
11992TIP3    H157391   6.470   1.919   4.130  1.6753  0.9592  0.2434
11992TIP3    H257392   6.448   2.069   4.139  1.1635  0.9591 -0.9788
11993TIP3   OH257393   1.616   0.348  13.851 -0.0263  0.0790  0.6825
11993TIP3    H157394   1.607   0.443  13.853 -2.3514 -0.1259  0.9258
11993TIP3    H257395   1.624   0.326  13.758  1.0254  0.5304  0.6547
11994TIP3   OH257396   5.491   4.755   5.841  0.2208  0.4721  0.0096
11994TIP3    H157397   5.483   4.715   5.755  1.6474 -2.8192  1.2837
11994TIP3    H257398   5.574   4.802   5.839  0.7953 -0.5192 -0.1254
11995TIP3   OH257399   4.651   4.381  13.348  0.7946 -0.1135 -0.2864
11995TIP3    H157400   4.741   4.381  13.314  1.4582 -0.0543  1.3951
11995TIP3    H257401   4.631   4.474  13.363  0.9238 -0.2020  0.4819
11996TIP3   OH257402   5.918   2.445  13.878 -0.2436 -0.3965 -0.2689
11996TIP3    H157403   5.855   2.517  13.877 -0.4514 -0.5751 -0.2135
11996TIP3    H257404   6.000   2.485  13.906 -0.5087 -0.2974  0.3755
11997TIP3   OH257405   4.113   2.908  13.815  0.1911 -0.5222 -0.7301
11997TIP3    H157406   4.038   2.855  13.789 -0.7006  1.7350 -2.9907
11997TIP3    H257407   4.189   2.861  13.781 -0.5349 -0.6475 -2.2175
11998TIP3   OH257408   4.285   0.754   5.777 -0.2036  0.3706 -0.1903
11998TIP3    H157409   4.323   0.826   5.727  1.9752 -0.6049  0.0015
11998TIP3    H257410   4.248   0.795   5.855 -2.0435  1.6792 -1.7209
11999TIP3   OH257411   4.094   1.473   5.254 -0.3457 -0.1089 -0.0111
11999TIP3    H157412   4.083   1.543   5.189 -1.3242 -0.6507 -0.4296
11999TIP3    H257413   4.189   1.464   5.262 -0.2119 -0.0850 -1.4150
12000TIP3   OH257414   5.968   6.784   3.108 -1.1699  0.2353  0.9839
12000TIP3    H157415   6.047   6.765   3.057  0.4992  3.2809  2.3149
12000TIP3    H257416   5.914   6.705   3.099  1.9154 -1.8304 -0.1197
12001TIP3   OH257417   3.695   2.720   0.883 -0.4050  0.2941  0.0133
12001TIP3    H157418   3.647   2.640   0.862 -0.6055  0.2717  0.5479
12001TIP3    H257419   3.764   2.725   0.817 -0.2842 -0.4060  0.0857
12002TIP3   OH257420   0.623   2.396  14.499  0.0549 -0.0351  0.3222
12002TIP3    H157421   0.628   2.340  14.422 -0.1735 -1.0540  1.0394
12002TIP3    H257422   0.652   2.341  14.572 -0.8447  0.5612  1.1533
12003TIP3   OH257423   3.660   0.283   0.376 -0.7025 -0.6145  0.1028
12003TIP3    H157424   3.666   0.370   0.416 -1.9088 -0.4136 -0.1396
12003TIP3    H257425   3.737   0.278   0.319 -1.1402  0.7015 -0.6518
12004TIP3   OH257426   3.533   5.372  16.782 -0.0006  0.0198 -0.0945
12004TIP3    H157427   3.618   5.391  16.821 -0.3128  0.0512  0.5813
12004TIP3    H257428   3.546   5.386  16.688  1.7669 -3.6899 -0.4826
12005TIP3   OH257429   6.235   3.126  16.855  0.1888 -0.7918  0.3548
12005TIP3    H157430   6.251   3.216  16.827 -0.1751 -0.4192  1.3193
12005TIP3    H257431   6.266   3.072  16.783 -0.9911  0.1614 -0.8872
12006TIP3   OH257432   4.733   4.854  16.139 -0.3045 -0.2273 -0.0303
12006TIP3    H157433   4.693   4.936  16.166  3.5134  2.0006 -0.8033
12006TIP3    H257434   4.787   4.828  16.213  2.2677  0.5600 -1.5817
12007TIP3   OH257435   2.660   6.392   1.015 -0.2436  0.1306 -0.0319
12007TIP3    H157436   2.714   6.403   0.936  0.8958 -0.3309  0.6757
12007TIP3    H257437   2.653   6.297   1.026 -0.9149  0.1885  0.0860
12008TIP3   OH257438   3.617   5.983   3.858 -0.2698  0.0006  0.8778
12008TIP3    H157439   3.656   5.927   3.926  1.2741 -0.1937 -0.1409
12008TIP3    H257440   3.672   6.061   3.857  1.4163 -1.1543 -2.0161
12009TIP3   OH257441   5.854   3.068  13.589  0.4965 -0.1581  0.2888
12009TIP3    H157442   5.839   3.084  13.496  0.2771 -0.6338  0.2400
12009TIP3    H257443   5.860   3.155  13.628  1.8029  0.0590 -0.3563
12010TIP3   OH257444   3.849   1.096  12.990 -0.1200  0.0116 -0.9664
12010TIP3    H157445   3.823   1.037  13.060  2.3016  0.5914  0.5139
12010TIP3    H257446   3.902   1.042  12.931  1.9669  0.6037  0.3072
12011TIP3   OH257447   0.938   3.605   1.628 -0.0279 -0.1627 -0.4500
12011TIP3    H157448   1.029   3.591   1.604 -0.3843 -1.4037 -1.1283
12011TIP3    H257449   0.900   3.517   1.632 -1.5732  0.4133 -1.7608
12012TIP3   OH257450   0.729   2.652  16.397 -0.9766 -0.3917  0.2496
12012TIP3    H157451   0.730   2.725  16.335  0.1575 -0.8429 -0.2881
12012TIP3    H257452   0.728   2.693  16.483  0.1357  0.2674 -0.0484
12013TIP3   OH257453   1.995   4.011   3.874  0.1423  0.1054  0.0213
12013TIP3    H157454   1.971   3.923   3.904  0.8438  0.2544  1.0509
12013TIP3    H257455   1.931   4.032   3.806  0.2833 -1.4116 -0.5915
12014TIP3   OH257456   2.827   2.561  14.176  0.3406  0.0287  0.0640
12014TIP3    H157457   2.806   2.509  14.098  1.1420  2.7806 -2.0349
12014TIP3    H257458   2.917   2.590  14.162  0.2569  1.1149  1.7136
12015TIP3   OH257459   5.647   2.601  15.080  0.6215  0.4862  0.1003
12015TIP3    H157460   5.689   2.563  15.004  0.8929 -1.0351  0.9984
12015TIP3    H257461   5.595   2.530  15.117  0.1109  1.3431  1.0696
12016TIP3   OH257462   4.591   5.334  13.339  0.2319  0.2984 -0.6584
12016TIP3    H157463   4.554   5.300  13.421  0.8505 -0.0130 -0.5082
12016TIP3    H257464   4.524   5.316  13.273  0.2808 -0.6335 -0.4619
12017TIP3   OH257465   1.808   2.077   1.664  0.0551 -0.3253  0.5680
12017TIP3    H157466   1.892   2.032   1.666  0.3961  0.3008  0.3955
12017TIP3    H257467   1.777   2.065   1.574 -0.2539 -0.9327  0.7481
12018TIP3   OH257468   0.591   0.006  13.438  0.1479 -0.7569  0.2978
12018TIP3    H157469   0.535  -0.017  13.512 -0.7790 -0.9370 -0.4578
12018TIP3    H257470   0.572  -0.060  13.371 -0.8542  0.8416 -1.0312
12019TIP3   OH257471   4.082   6.000  14.118  0.5549 -0.2487 -0.1678
12019TIP3    H157472   4.045   6.045  14.043 -0.6270 -0.9486 -0.0193
12019TIP3    H257473   4.167   6.042  14.132  0.3435  0.5603 -1.2589
12020TIP3   OH257474   0.717   0.055   5.729  0.0576 -0.5242 -0.0987
12020TIP3    H157475   0.741   0.028   5.817 -1.1033 -0.5382  0.2267
12020TIP3    H257476   0.723   0.151   5.731 -0.1861 -0.5104  0.0711
12021TIP3   OH257477   0.286   2.073  11.898 -0.0314 -0.1839  0.0348
12021TIP3    H157478   0.200   2.101  11.926 -0.9770 -0.2292 -2.6378
12021TIP3    H257479   0.282   1.977  11.899 -0.2618 -0.1871 -0.7564
12022TIP3   OH257480   6.373   5.522   3.794  0.2083 -0.2451 -0.4623
12022TIP3    H157481   6.388   5.469   3.872  1.6931  2.6536  1.3046
12022TIP3    H257482   6.287   5.494   3.762 -1.0540 -0.5110  3.0073
12023TIP3   OH257483   3.154   5.518   5.334  0.5116  0.1632  0.0568
12023TIP3    H157484   3.075   5.507   5.386  1.3253 -3.0898  0.7232
12023TIP3    H257485   3.208   5.442   5.356  2.2695  0.4107 -3.0990
12024TIP3   OH257486   2.753   5.151  15.227 -0.0078  0.0846 -0.4260
12024TIP3    H157487   2.766   5.232  15.276 -1.8044  0.2083 -0.1434
12024TIP3    H257488   2.810   5.160  15.151  2.3739  0.1517  1.2993
12025TIP3   OH257489   1.115   1.961   1.819 -0.2356  0.3769  0.2533
12025TIP3    H157490   1.057   1.968   1.894  0.7034  0.8601  0.9499
12025TIP3    H257491   1.192   1.915   1.852 -0.0303  0.1292 -0.5421
12026TIP3   OH257492   4.972   5.991   5.959  0.2276  0.5428 -0.1249
12026TIP3    H157493   4.966   5.914   6.017  1.2552 -0.2908 -1.1044
12026TIP3    H257494   5.066   5.999   5.940 -0.4163 -1.3616 -4.5544
12027TIP3   OH257495   1.617   5.549   4.379  0.3888  0.1842  0.2421
12027TIP3    H157496   1.631   5.513   4.467 -2.3160 -0.5112  0.4344
12027TIP3    H257497   1.651   5.638   4.384  1.9754 -0.4730  1.4366
12028TIP3   OH257498   4.877   2.556  12.320 -0.1010 -0.2388  0.3624
12028TIP3    H157499   4.849   2.467  12.301  1.5903 -0.6676 -0.1922
12028TIP3    H257500   4.845   2.608  12.246 -0.1586 -0.5821  0.1448
12029TIP3   OH257501   1.243   2.409  16.030  0.1368 -0.1471  0.2482
12029TIP3    H157502   1.318   2.350  16.039  0.0266 -0.0088  2.5058
12029TIP3    H257503   1.226   2.414  15.936  2.4004 -0.8738 -0.2116
12030TIP3   OH257504   1.192   3.669  14.666  0.2780  0.1761 -0.4167
12030TIP3    H157505   1.174   3.578  14.690  0.1292  0.7555  1.7856
12030TIP3    H257506   1.158   3.720  14.739 -0.3976  2.0708 -2.0170
12031TIP3   OH257507   5.730   5.589   2.700  0.4008  0.1121 -0.2471
12031TIP3    H157508   5.770   5.556   2.619  1.8061 -1.4349  1.0238
12031TIP3    H257509   5.785   5.553   2.770 -2.5655 -1.1466  1.5502
12032TIP3   OH257510   5.483   0.999  11.764 -0.2272 -0.1973  0.4577
12032TIP3    H157511   5.393   1.000  11.796 -0.0511 -1.3823  1.0083
12032TIP3    H257512   5.478   0.952  11.681 -0.0133 -0.8151  0.7970
12033TIP3   OH257513   5.592   3.251   2.492 -0.1734 -0.0595  0.2116
12033TIP3    H157514   5.645   3.309   2.547 -0.0382  0.6476 -0.6572
12033TIP3    H257515   5.639   3.248   2.409 -1.6938  0.8666 -0.6942
12034TIP3   OH257516   6.782   5.728   3.746 -0.3683  0.0780  0.1678
12034TIP3    H157517   6.726   5.673   3.692  0.4564 -0.6796  0.0787
12034TIP3    H257518   6.744   5.722   3.834  1.2466 -2.7606  0.7139
12035TIP3   OH257519   1.845   0.253   4.147  0.1808  0.5434 -0.9017
12035TIP3    H157520   1.907   0.307   4.196  0.1759 -0.4624  0.2292
12035TIP3    H257521   1.760   0.272   4.187  0.3868 -1.4591  0.5571
12036TIP3   OH257522   6.605   4.475   1.489  0.0485  0.2011 -0.2590
12036TIP3    H157523   6.692   4.445   1.461 -1.1528 -2.6100 -1.1243
12036TIP3    H257524   6.568   4.515   1.411  0.1399  0.4221 -0.1897
12037TIP3   OH257525   0.789   4.020  11.385 -0.1783  0.0439  1.0211
12037TIP3    H157526   0.710   3.969  11.368 -1.3056  1.7086  1.1859
12037TIP3    H257527   0.762   4.087  11.447  0.9129  1.7201 -0.2649
12038TIP3   OH257528   3.217   4.266   4.819 -0.4986 -0.0561 -0.0225
12038TIP3    H157529   3.221   4.348   4.868  1.8246 -0.6640  0.8644
12038TIP3    H257530   3.241   4.290   4.730  1.0418  0.1365  0.4197
12039TIP3   OH257531   5.440   4.832   6.287 -0.1224 -0.4463 -0.1819
12039TIP3    H157532   5.437   4.870   6.374 -1.4799 -0.9020 -0.0092
12039TIP3    H257533   5.397   4.897   6.231  0.9950 -0.0275 -0.5794
12040TIP3   OH257534   4.240   2.834   1.024  0.0600 -0.2162 -0.3430
12040TIP3    H157535   4.234   2.929   1.032  1.0699 -0.1562 -0.2041
12040TIP3    H257536   4.331   2.818   1.001  0.4045 -1.2616  1.5970
12041TIP3   OH257537   1.233   4.425  13.206 -0.2780  1.2769 -0.0645
12041TIP3    H157538   1.246   4.519  13.214 -0.5116  1.2420  0.7663
12041TIP3    H257539   1.197   4.398  13.291  1.5297  0.1368  0.3819
12042TIP3   OH257540   3.668   6.739  15.318 -0.7257 -0.3159  0.0495
12042TIP3    H157541   3.736   6.672  15.304 -0.8428 -0.5872  0.7334
12042TIP3    H257542   3.592   6.705  15.272 -0.1004  0.4905 -1.5993
12043TIP3   OH257543   5.071   4.520   0.132 -0.5462  0.7057 -0.1491
12043TIP3    H157544   5.028   4.587   0.079  0.7760  1.7570  0.0851
12043TIP3    H257545   5.111   4.461   0.068 -1.7884  0.0576 -0.3558
12044TIP3   OH257546   4.412   0.981   5.586 -0.0550  0.2565  0.1596
12044TIP3    H157547   4.475   1.031   5.637  0.1223  0.7132 -0.4957
12044TIP3    H257548   4.441   0.992   5.495  1.0118 -2.4526  0.1184
12045TIP3   OH257549   6.128   2.546   2.302 -0.0765 -0.4815  0.0651
12045TIP3    H157550   6.065   2.587   2.362 -0.3596 -0.3110 -0.3425
12045TIP3    H257551   6.074   2.488   2.249  0.3411 -1.4547  0.7035
12046TIP3   OH257552   2.200   5.880   2.374 -0.1762  0.2847  0.1205
12046TIP3    H157553   2.223   5.910   2.462 -0.5686  2.1625 -0.3947
12046TIP3    H257554   2.237   5.947   2.316  0.6853 -1.3103 -1.1836
12047TIP3   OH257555   6.726   0.432  13.348  0.1336 -0.2848 -0.0366
12047TIP3    H157556   6.642   0.465  13.316 -0.5379 -2.9101 -1.1799
12047TIP3    H257557   6.771   0.402  13.269  2.2201  1.2137  0.5573
12048TIP3   OH257558   0.965   4.621   1.629 -0.0451  0.2719 -0.2837
12048TIP3    H157559   0.949   4.663   1.545  0.3106 -0.2848 -0.6315
12048TIP3    H257560   0.995   4.692   1.686  3.4580  0.0170 -1.6770
12049TIP3   OH257561   2.229   5.601  14.623 -0.1691  0.4317  0.6694
12049TIP3    H157562   2.224   5.694  14.598  0.4963  0.0808 -0.8461
12049TIP3    H257563   2.322   5.580  14.620 -0.3938 -0.5279  0.0111
12050TIP3   OH257564   3.761   2.938   1.651 -0.1640  0.1622  0.2562
12050TIP3    H157565   3.772   2.844   1.668  0.9384  0.1741 -0.3292
12050TIP3    H257566   3.714   2.971   1.727 -0.9746 -0.9564  0.2434
12051TIP3   OH257567   3.579   4.731  11.838  0.1702  0.0485  0.2923
12051TIP3    H157568   3.579   4.797  11.768 -0.6381 -0.0659  0.1787
12051TIP3    H257569   3.671   4.707  11.848  0.2822 -0.0275 -0.8322
12052TIP3   OH257570   4.431   0.929   0.186  0.2674  0.2558  0.1775
12052TIP3    H157571   4.373   0.944   0.261  0.6275 -1.0911  0.7274
12052TIP3    H257572   4.442   0.834   0.182  1.1423  0.3930 -0.9118
12053TIP3   OH257573   2.083   2.533  12.931  0.1382  0.5443 -0.3255
12053TIP3    H157574   2.014   2.567  12.988 -0.5979 -1.1022 -0.2249
12053TIP3    H257575   2.112   2.453  12.973  1.0648  0.4341 -1.1660
12054TIP3   OH257576   5.487   4.556   5.314 -0.4257 -0.4575 -0.2670
12054TIP3    H157577   5.499   4.575   5.407 -1.0666  1.6456 -0.5793
12054TIP3    H257578   5.427   4.481   5.312  0.3280 -1.1095  1.0137
12055TIP3   OH257579   4.197   3.015   0.612 -0.6813  0.2592  0.5930
12055TIP3    H157580   4.285   3.016   0.650 -0.0832 -0.4535 -0.7430
12055TIP3    H257581   4.178   2.923   0.597 -1.0988  0.4985 -0.4079
12056TIP3   OH257582   2.490   0.151   5.516  0.1052 -0.0382  0.1759
12056TIP3    H157583   2.398   0.129   5.498  0.1803  0.3626 -0.7203
12056TIP3    H257584   2.538   0.073   5.487 -0.0341 -0.7161  1.7151
12057TIP3   OH257585   4.542   0.633   1.069 -0.2348  0.0964  0.0081
12057TIP3    H157586   4.581   0.555   1.110  2.0132  0.1232 -1.9366
12057TIP3    H257587   4.574   0.706   1.123  0.3436 -0.0873 -0.0744
12058TIP3   OH257588   4.082   6.366   1.382  0.0341  0.3373  0.3093
12058TIP3    H157589   4.130   6.438   1.424  0.5715 -0.3836  0.9602
12058TIP3    H257590   4.138   6.340   1.309  0.9302 -0.8447  1.3736
12059TIP3   OH257591   5.391   4.872  14.121  0.2841 -0.2470 -0.3225
12059TIP3    H157592   5.460   4.887  14.186  1.1216 -0.5150 -1.1289
12059TIP3    H257593   5.438   4.835  14.046 -0.9767 -1.9626 -0.2890
12060TIP3   OH257594   4.659   3.426   3.176 -0.0994 -0.4899 -0.2065
12060TIP3    H157595   4.631   3.429   3.085  0.8396  0.8119 -0.4705
12060TIP3    H257596   4.579   3.441   3.226 -0.6525 -1.4146 -0.8146
12061TIP3   OH257597   5.787   5.953   3.734 -0.2711  0.1082  0.1385
12061TIP3    H157598   5.754   6.028   3.685  1.6283  0.6130 -0.4135
12061TIP3    H257599   5.826   5.896   3.667 -0.9075 -0.9376  0.6518
12062TIP3   OH257600   4.007   4.202   2.444  0.3286  0.3023 -0.1828
12062TIP3    H157601   3.972   4.161   2.365 -0.6318 -1.8709  1.3336
12062TIP3    H257602   3.987   4.295   2.432 -4.5026 -0.5770 -0.2031
12063TIP3   OH257603   0.805   2.413   6.471 -0.0642 -0.0365  0.5625
12063TIP3    H157604   0.777   2.342   6.528  0.5214 -1.4156 -0.8402
12063TIP3    H257605   0.900   2.413   6.477 -0.0654  0.7079  0.6450
12064TIP3   OH257606   4.614   2.231   2.324  0.6073  0.5258  0.7540
12064TIP3    H157607   4.638   2.320   2.348  1.6824  0.9498 -1.7188
12064TIP3    H257608   4.629   2.227   2.229 -3.0517 -1.1309  0.1565
12065TIP3   OH257609   2.705   0.439   4.615 -0.1499 -0.1878 -0.3888
12065TIP3    H157610   2.700   0.344   4.611 -1.6859 -0.2001  1.1975
12065TIP3    H257611   2.622   0.469   4.577  0.0607  0.4989 -0.3142
12066TIP3   OH257612   0.475   5.139   2.403 -0.8024  0.4919  0.3674
12066TIP3    H157613   0.429   5.164   2.483 -1.3913 -1.8514  0.8094
12066TIP3    H257614   0.423   5.176   2.332 -0.8314  1.7175  1.0160
12067TIP3   OH257615   5.773   4.779   3.643 -0.2674 -0.1489 -1.1803
12067TIP3    H157616   5.695   4.797   3.696  0.1941  1.0435 -0.9120
12067TIP3    H257617   5.845   4.780   3.706  0.1424  0.1308 -1.6601
12068TIP3   OH257618   6.685   1.634  14.342 -0.1243 -0.2496 -0.3692
12068TIP3    H157619   6.677   1.714  14.395 -1.4350 -0.0806 -0.8211
12068TIP3    H257620   6.625   1.572  14.382  1.3085 -1.2269  0.3272
12069TIP3   OH257621   5.090   4.568   4.987 -0.0468  0.0936 -0.4687
12069TIP3    H157622   5.145   4.566   4.909  0.6276 -0.3490  0.0122
12069TIP3    H257623   5.124   4.498   5.042 -0.0903  0.8283  0.5127
12070TIP3   OH257624   1.440   2.828  16.372  0.0032 -0.3344  0.6387
12070TIP3    H157625   1.531   2.856  16.374  0.1555 -0.7793  0.0630
12070TIP3    H257626   1.389   2.909  16.383  0.4645 -0.0908  0.9720
12071TIP3   OH257627   2.721   5.768  13.871 -0.7209  0.0690 -0.3246
12071TIP3    H157628   2.686   5.795  13.786 -0.3059 -0.5736 -0.7057
12071TIP3    H257629   2.811   5.801  13.871 -1.2515  1.5561  0.5742
12072TIP3   OH257630   3.549   3.130  11.957  0.1514  0.5677  0.0437
12072TIP3    H157631   3.573   3.219  11.933  0.7201  0.1468 -1.0243
12072TIP3    H257632   3.541   3.131  12.052  1.0418  1.5467  0.1146
12073TIP3   OH257633   2.527   1.380  16.588  0.2532 -0.6962 -0.5006
12073TIP3    H157634   2.543   1.425  16.671  0.2309  0.3158 -1.0386
12073TIP3    H257635   2.586   1.304  16.589  0.8668 -0.2077  0.0539
12074TIP3   OH257636   5.909   4.724   2.447  0.2239 -0.1686  0.1378
12074TIP3    H157637   5.931   4.633   2.464  1.2003 -0.4441 -2.4152
12074TIP3    H257638   5.914   4.733   2.352 -0.2209  2.4562  0.3227
12075TIP3   OH257639   3.803   2.219   0.029 -0.6940 -0.3255  0.3645
12075TIP3    H157640   3.774   2.144  -0.022 -2.3386  0.4987  0.0480
12075TIP3    H257641   3.890   2.240  -0.005 -1.1482 -0.7314 -1.0591
12076TIP3   OH257642   6.120   4.343  12.153 -0.1669  0.2560 -0.1634
12076TIP3    H157643   6.163   4.416  12.199  0.7425  0.5045 -1.3992
12076TIP3    H257644   6.044   4.383  12.112 -0.5863  0.1740  0.5204
12077TIP3   OH257645   3.003   0.976  16.575 -0.2903 -0.6914 -0.4439
12077TIP3    H157646   3.032   0.922  16.648  2.4696 -0.1140 -1.0525
12077TIP3    H257647   3.017   0.922  16.498 -1.1568 -0.5039 -0.7434
12078TIP3   OH257648   0.346   4.056  13.372 -0.4219 -0.1260  0.0997
12078TIP3    H157649   0.433   4.062  13.412 -0.7779  2.5744  0.5351
12078TIP3    H257650   0.361   4.076  13.280 -0.6520  0.8519  0.2730
12079TIP3   OH257651   3.776   1.853  13.107 -0.0323 -0.2619  0.4956
12079TIP3    H157652   3.739   1.777  13.061 -1.3934 -1.2558  3.1065
12079TIP3    H257653   3.813   1.816  13.187  0.8060  1.6494  1.0155
12080TIP3   OH257654   5.750   4.344  13.177 -0.3673  0.1379 -0.2019
12080TIP3    H157655   5.698   4.284  13.124 -0.2878 -0.1710  0.0740
12080TIP3    H257656   5.814   4.289  13.222 -0.4438  0.3952  0.2290
12081TIP3   OH257657   5.189   1.525   3.655  0.5069 -0.0354 -0.1222
12081TIP3    H157658   5.285   1.532   3.655  0.4699  0.5054 -0.3415
12081TIP3    H257659   5.160   1.604   3.700  0.1885 -0.6189  0.7119
12082TIP3   OH257660   1.262   5.316   1.184  0.5163  0.3929  0.3116
12082TIP3    H157661   1.203   5.353   1.118  1.2978 -0.2851 -0.7942
12082TIP3    H257662   1.204   5.289   1.256 -0.1732  2.6146  0.6145
12083TIP3   OH257663   6.748   6.098  15.399 -0.4566 -0.1393 -0.2257
12083TIP3    H157664   6.810   6.083  15.328 -1.6777 -1.9301 -0.9445
12083TIP3    H257665   6.754   6.020  15.454  0.0716  0.9843  1.3397
12084TIP3   OH257666   0.734   2.152   1.610 -0.1772 -0.2235 -0.2728
12084TIP3    H157667   0.803   2.168   1.675  0.5672 -3.0644 -0.3120
12084TIP3    H257668   0.777   2.162   1.526 -0.5744  1.0616 -0.3362
12085TIP3   OH257669   0.148   5.169  15.685  0.5463 -0.0280 -0.2380
12085TIP3    H157670   0.243   5.166  15.694  0.6490  1.9983 -0.3514
12085TIP3    H257671   0.115   5.110  15.753  1.8618 -0.2383  0.2287
12086TIP3   OH257672   1.292   2.460   2.803  0.1160  0.3648  0.1206
12086TIP3    H157673   1.233   2.440   2.730  0.9526  0.2294 -0.5359
12086TIP3    H257674   1.277   2.552   2.822 -0.0791  0.4123 -0.2549
12087TIP3   OH257675   6.429   1.953  17.173 -0.1168 -0.7611 -0.1818
12087TIP3    H157676   6.364   1.980  17.238 -0.7514 -0.1710 -1.0327
12087TIP3    H257677   6.404   2.001  17.094 -0.1805 -2.4796 -1.2312
12088TIP3   OH257678   3.122   3.084   0.066 -0.2342 -0.7416  0.1486
12088TIP3    H157679   3.093   3.080   0.157 -0.6332 -0.7415  0.0194
12088TIP3    H257680   3.132   3.177   0.048 -2.6567 -0.6083 -0.6085
12089TIP3   OH257681   6.433   5.914   9.866  0.5632  0.7285 -0.7395
12089TIP3    H157682   6.482   5.932   9.947 -1.1510 -1.3160  0.8078
12089TIP3    H257683   6.356   5.867   9.895  1.5539 -3.0787 -3.8823
12090TIP3   OH257684   6.608   4.338  16.327  0.0599 -0.4956 -0.0206
12090TIP3    H157685   6.518   4.370  16.319  0.7674  1.2359 -1.1455
12090TIP3    H257686   6.631   4.309  16.239  0.6978 -0.7323  0.2249
12091TIP3   OH257687   6.228   3.120  13.977 -0.0316  0.0715 -0.3324
12091TIP3    H157688   6.210   3.173  13.899  1.0076  1.6650  0.4992
12091TIP3    H257689   6.189   3.169  14.049  0.6708 -0.4559  0.4131
12092TIP3   OH257690   0.014   6.466  11.721  0.4590  0.3718 -0.0871
12092TIP3    H157691  -0.079   6.460  11.742  0.7381  2.0386  1.7479
12092TIP3    H257692   0.057   6.418  11.792  1.0196 -0.4583 -0.9691
12093TIP3   OH257693   3.368   6.014  12.715  1.0015 -0.0876 -0.0741
12093TIP3    H157694   3.456   6.036  12.684  1.0585 -0.9622 -0.5488
12093TIP3    H257695   3.346   5.932  12.670  0.3390 -0.4020  0.8016
12094TIP3   OH257696   0.042   5.927   2.225 -0.1423  0.3483  0.0761
12094TIP3    H157697  -0.028   5.883   2.177  0.0378 -1.5210  1.4934
12094TIP3    H257698   0.117   5.925   2.165 -0.8574  1.0148 -0.8519
12095TIP3   OH257699   5.536   0.365  15.102  0.6499  0.3284 -0.2614
12095TIP3    H157700   5.609   0.399  15.154 -0.0706 -0.2751  1.1688
12095TIP3    H257701   5.502   0.292  15.154 -1.9293  1.5405 -0.1856
12096TIP3   OH257702   4.333   1.517   2.596 -0.3970 -0.4037  0.5482
12096TIP3    H157703   4.357   1.580   2.663 -0.5015  0.3570 -0.1158
12096TIP3    H257704   4.255   1.473   2.630  0.0109 -0.5701  1.2574
12097TIP3   OH257705   5.158   2.473   1.106  0.0846  0.3918  0.6691
12097TIP3    H157706   5.092   2.520   1.158  0.0544 -0.0362  1.0264
12097TIP3    H257707   5.111   2.398   1.070  0.3370  0.1739  0.7916
12098TIP3   OH257708   3.062   0.137  15.537 -0.0602 -0.7717  0.1325
12098TIP3    H157709   3.088   0.045  15.539  1.6965 -0.2998 -0.6862
12098TIP3    H257710   3.024   0.153  15.624  2.7635 -1.3609  1.5248
12099TIP3   OH257711   3.202   6.550  15.330 -0.6771 -0.1012 -0.1012
12099TIP3    H157712   3.196   6.610  15.255 -0.1871  0.2628  0.1476
12099TIP3    H257713   3.170   6.466  15.296 -3.1776  0.7439  0.0517
12100TIP3   OH257714   6.020   4.819   3.979 -0.5827 -0.5078  0.1136
12100TIP3    H157715   6.027   4.911   3.956 -0.8914 -0.4391  0.2820
12100TIP3    H257716   5.948   4.816   4.042 -0.8095 -0.9103 -0.1633
12101TIP3   OH257717   0.726   4.952   1.560 -0.2300  0.1870 -0.4394
12101TIP3    H157718   0.717   4.867   1.517 -0.2435  0.3718 -0.8098
12101TIP3    H257719   0.799   4.941   1.620 -0.9953 -0.4294  0.3811
12102TIP3   OH257720   2.569   6.621  13.249  0.2992 -0.7284 -0.1431
12102TIP3    H157721   2.550   6.685  13.317  0.2598 -0.9332  0.0361
12102TIP3    H257722   2.485   6.579  13.230  0.7803 -2.4447  1.4598
12103TIP3   OH257723   2.924   4.125   4.362  0.3062 -0.1578 -0.2348
12103TIP3    H157724   3.013   4.140   4.332 -0.1221  0.2568 -1.3381
12103TIP3    H257725   2.893   4.212   4.390  0.2277 -0.2919  0.1029
12104TIP3   OH257726   6.106   6.719   1.610 -0.1470  0.4600 -0.1534
12104TIP3    H157727   6.088   6.684   1.523 -1.7418 -0.0233  0.3543
12104TIP3    H257728   6.149   6.647   1.657  2.0993  1.2078 -0.9745
12105TIP3   OH257729   0.224   2.347  14.057  0.0926  0.3861  0.4313
12105TIP3    H157730   0.132   2.325  14.041  0.3516 -1.7994  1.8086
12105TIP3    H257731   0.273   2.281  14.009  0.9571  0.9597  0.5191
12106TIP3   OH257732   0.885   4.985  13.623 -0.0933 -0.1350 -0.7716
12106TIP3    H157733   0.908   4.959  13.712 -0.3604  0.0460 -0.6472
12106TIP3    H257734   0.963   5.030  13.591 -0.6354  1.4521  0.0374
12107TIP3   OH257735   2.039   0.195  16.717 -0.0789 -0.4269 -1.1511
12107TIP3    H157736   2.052   0.148  16.635 -4.0282 -0.0581 -2.1127
12107TIP3    H257737   2.016   0.284  16.691 -0.2451  0.0049  0.3907
12108TIP3   OH257738   1.120   6.288  15.927 -0.1345 -0.2026 -0.5667
12108TIP3    H157739   1.177   6.364  15.918 -1.3029  0.8989  0.9879
12108TIP3    H257740   1.066   6.290  15.848 -1.0580  1.3972  0.0663
12109TIP3   OH257741   6.390   2.163  13.545  0.1676 -0.3851 -0.2599
12109TIP3    H157742   6.325   2.131  13.607  1.6497 -2.5522  0.2335
12109TIP3    H257743   6.471   2.167  13.595  0.8984  0.0736 -1.4629
12110TIP3   OH257744   6.633   0.135  13.884 -0.1360  0.0084 -0.1939
12110TIP3    H157745   6.646   0.131  13.789 -0.3146  2.0770 -0.3257
12110TIP3    H257746   6.705   0.082  13.920  2.3326  2.4475 -1.3404
12111TIP3   OH257747   6.624   3.932   3.969 -0.2888 -0.2424  0.1491
12111TIP3    H157748   6.647   3.943   4.061  0.7088 -1.8980  0.1221
12111TIP3    H257749   6.666   3.849   3.943 -0.7989  0.0453 -1.7053
12112TIP3   OH257750   5.037   1.514  13.956 -0.2153 -0.5126  0.2869
12112TIP3    H157751   4.949   1.543  13.977 -0.0500  0.5912 -0.5042
12112TIP3    H257752   5.086   1.524  14.038 -0.7388 -0.8196  0.6390
12113TIP3   OH257753   5.574   3.525   7.082 -0.0250 -0.1467 -0.4959
12113TIP3    H157754   5.555   3.478   7.163  0.3432  1.8971  0.8151
12113TIP3    H257755   5.613   3.459   7.024  1.4159 -1.2280  1.6595
12114TIP3   OH257756   3.053   2.513  17.118 -0.0796 -0.1052 -0.1047
12114TIP3    H157757   2.961   2.505  17.142 -0.0744  0.3069  0.0530
12114TIP3    H257758   3.071   2.435  17.064 -0.2466 -0.7314  0.7363
12115TIP3   OH257759   4.420   4.738   2.531  0.0518  0.4414  0.4666
12115TIP3    H157760   4.480   4.768   2.463 -0.3630  0.5896  0.1613
12115TIP3    H257761   4.427   4.642   2.530  2.0347  0.5509  2.0427
12116TIP3   OH257762   1.821   1.804   3.488  0.9219  0.0868 -0.5470
12116TIP3    H157763   1.900   1.764   3.525 -0.0840 -1.9781 -0.5962
12116TIP3    H257764   1.752   1.785   3.552 -0.1480 -0.6796 -1.9163
12117TIP3   OH257765   1.308   5.484  15.849  0.2896  0.0439  0.1805
12117TIP3    H157766   1.273   5.398  15.827 -2.1552  1.3356 -1.1590
12117TIP3    H257767   1.324   5.526  15.765  3.4276  0.2042  0.7702
12118TIP3   OH257768   2.948   0.973   4.122  0.3754  0.0624 -0.6215
12118TIP3    H157769   3.032   0.934   4.146  0.1973 -0.0980 -0.2641
12118TIP3    H257770   2.882   0.916   4.162  0.1014  0.3910 -0.6013
12119TIP3   OH257771   3.809   4.551  13.630  0.6940  0.4262  0.3695
12119TIP3    H157772   3.862   4.473  13.612  0.4005  0.4229 -0.5006
12119TIP3    H257773   3.811   4.601  13.549 -0.6287  0.4322  0.3187
12120TIP3   OH257774   6.623   3.903  12.343 -0.1387 -1.0253  0.1657
12120TIP3    H157775   6.646   3.958  12.269 -1.4316 -2.5278 -1.3763
12120TIP3    H257776   6.566   3.958  12.397  0.6688  0.0016 -0.0152
12121TIP3   OH257777   4.034   6.179   6.194  0.7902 -0.1547 -0.2812
12121TIP3    H157778   4.090   6.222   6.259 -1.5030  2.2908  0.1340
12121TIP3    H257779   4.095   6.131   6.138  2.9321 -1.2404  2.8225
12122TIP3   OH257780   1.214   1.830   3.248  0.2140 -0.2576 -0.4903
12122TIP3    H157781   1.139   1.800   3.198  0.3482  0.8074 -1.3644
12122TIP3    H257782   1.288   1.781   3.212  0.3292  0.5919 -1.4441
12123TIP3   OH257783   2.762   5.896  17.158 -0.3402 -0.1397 -0.7207
12123TIP3    H157784   2.755   5.812  17.204  0.5675 -0.6503 -1.4881
12123TIP3    H257785   2.856   5.915  17.160 -0.4033  0.2377 -1.6510
12124TIP3   OH257786   6.434   4.667  15.212  0.2274  0.1563 -0.1364
12124TIP3    H157787   6.380   4.721  15.271  0.6867  1.1160 -0.5931
12124TIP3    H257788   6.461   4.727  15.143 -1.8791 -1.4022 -2.3913
12125TIP3   OH257789   2.485   0.950  15.953 -0.0270 -0.1219  0.3215
12125TIP3    H157790   2.396   0.969  15.982  0.2866  0.5897  0.8279
12125TIP3    H257791   2.485   0.856  15.937 -0.2727 -0.5117  2.4397
12126TIP3   OH257792   5.600   0.805  15.637 -0.1304 -0.0492 -0.3249
12126TIP3    H157793   5.616   0.745  15.710 -2.3103 -0.1901  0.0780
12126TIP3    H257794   5.516   0.846  15.658 -0.7420 -0.0160 -2.7132
12127TIP3   OH257795   4.399   1.312   1.746  0.2761  0.2826  0.0065
12127TIP3    H157796   4.400   1.304   1.842 -1.3538  0.0609  0.0280
12127TIP3    H257797   4.329   1.375   1.729 -0.4315 -0.7825 -1.1019
12128TIP3   OH257798   4.475   4.026  16.195 -0.5215 -0.5564 -0.4322
12128TIP3    H157799   4.534   3.961  16.233  1.5496  0.8336 -1.2104
12128TIP3    H257800   4.496   4.107  16.240 -0.3209  0.4181 -2.2502
12129TIP3   OH257801   6.660   4.527  15.296 -0.2978 -0.1453  0.1947
12129TIP3    H157802   6.707   4.510  15.214 -0.3826 -1.1320  0.3410
12129TIP3    H257803   6.580   4.571  15.268 -0.8271 -1.4171 -0.3710
12130TIP3   OH257804   0.369   1.499  14.886 -0.2597 -0.1324  0.2303
12130TIP3    H157805   0.424   1.553  14.828 -0.9618 -0.2656 -0.5663
12130TIP3    H257806   0.359   1.551  14.965  0.6556  0.0838  0.2132
12131TIP3   OH257807   0.856   3.529  12.861 -0.1094 -0.0630  0.1038
12131TIP3    H157808   0.820   3.605  12.907  0.6443  0.7267 -0.6034
12131TIP3    H257809   0.863   3.557  12.769 -0.0937 -1.0802 -0.2153
12132TIP3   OH257810   3.270   4.585   3.600 -0.5300  0.4610 -0.0073
12132TIP3    H157811   3.310   4.502   3.625  0.2599  0.7573 -0.2601
12132TIP3    H257812   3.185   4.561   3.564 -0.1517 -0.2792 -0.4315
12133TIP3   OH257813   6.039   3.421  13.284 -0.5926 -0.0990 -0.1590
12133TIP3    H157814   5.964   3.466  13.323 -0.8029  2.1116 -2.9160
12133TIP3    H257815   6.098   3.492  13.257  1.4984 -1.7275 -0.0149
12134TIP3   OH257816   5.244   5.172  11.638 -0.4874 -0.0535 -0.8643
12134TIP3    H157817   5.184   5.246  11.648 -1.4707 -0.7862 -1.1453
12134TIP3    H257818   5.213   5.108  11.702 -1.7581 -1.5470 -2.9062
12135TIP3   OH257819   1.469   5.820   4.856 -0.6435  0.0681 -0.1313
12135TIP3    H157820   1.444   5.759   4.787 -2.3585  0.7384 -0.1315
12135TIP3    H257821   1.561   5.801   4.873 -0.5057 -0.8682 -1.8179
12136TIP3   OH257822   2.361   4.480   1.197  0.3327 -0.0442 -0.0095
12136TIP3    H157823   2.436   4.421   1.202  0.4322  0.1437  0.7612
12136TIP3    H257824   2.304   4.441   1.131 -0.3992 -1.8986  1.6863
12137TIP3   OH257825   3.730   4.106  11.699  0.1380  0.2268 -0.1160
12137TIP3    H157826   3.730   4.201  11.700  1.0268  0.2915 -2.6113
12137TIP3    H257827   3.641   4.081  11.676  0.3660  0.5137 -1.3299
12138TIP3   OH257828   4.474   5.498   2.044 -0.5391  0.2820 -0.0670
12138TIP3    H157829   4.533   5.505   2.119  0.2300  1.2083 -0.7279
12138TIP3    H257830   4.452   5.589   2.023  1.3653  0.2478 -2.5438
12139TIP3   OH257831   5.317   4.260   5.707  0.8355  0.1299  0.1510
12139TIP3    H157832   5.320   4.316   5.784  1.2857  0.8722 -0.3951
12139TIP3    H257833   5.255   4.304   5.648  0.7203 -0.2717 -0.0276
12140TIP3   OH257834   5.671   2.885  15.079 -0.1157  0.4177 -0.0444
12140TIP3    H157835   5.684   2.790  15.082 -0.6706  0.2964 -1.3257
12140TIP3    H257836   5.588   2.899  15.126 -0.5370  0.1563 -0.6935
12141TIP3   OH257837   1.562   1.107   4.667  0.4574  0.4918 -0.6017
12141TIP3    H157838   1.484   1.076   4.713  1.1902 -2.2181 -1.0411
12141TIP3    H257839   1.634   1.091   4.728  0.8928  1.1300 -0.9446
12142TIP3   OH257840   1.490   6.714   1.682 -0.1278  0.2058  0.4842
12142TIP3    H157841   1.485   6.745   1.591  1.7434  2.3467  1.0576
12142TIP3    H257842   1.429   6.770   1.730 -0.0438  0.0452  0.7788
12143TIP3   OH257843   0.447   5.277  12.267 -0.6947 -0.0950  0.0049
12143TIP3    H157844   0.426   5.363  12.231  0.0638  0.9454  1.9778
12143TIP3    H257845   0.526   5.292  12.318 -2.0191 -1.4019  2.5007
12144TIP3   OH257846   3.396   0.815  13.987 -0.1152 -0.1849 -0.1964
12144TIP3    H157847   3.489   0.805  14.010  0.1395  1.2292 -0.5380
12144TIP3    H257848   3.398   0.853  13.899 -1.0164  0.5288  0.0861
12145TIP3   OH257849   6.141   3.383  15.750 -0.0258  0.2189  0.3980
12145TIP3    H157850   6.123   3.468  15.791  2.9298  0.5010  1.2618
12145TIP3    H257851   6.063   3.364  15.698 -1.4966  2.5891  1.6503
12146TIP3   OH257852   4.567   5.103  15.227 -0.1720 -0.3907  0.1550
12146TIP3    H157853   4.544   5.165  15.297  1.6009 -0.5082  0.8681
12146TIP3    H257854   4.619   5.036  15.271  0.1785 -0.9642 -1.1124
12147TIP3   OH257855   4.346   4.422  13.389  0.1606 -0.3009  0.4315
12147TIP3    H157856   4.332   4.338  13.345 -2.0574 -0.3542  1.1653
12147TIP3    H257857   4.407   4.469  13.332 -0.7226 -1.3236 -1.3975
12148TIP3   OH257858   1.337   1.871   0.893 -0.2099  0.0247  0.8424
12148TIP3    H157859   1.265   1.809   0.881 -0.7839  0.9460 -0.7194
12148TIP3    H257860   1.321   1.938   0.826  1.5313  0.7778  1.1693
12149TIP3   OH257861   1.483   1.877  17.212  0.7760  0.2920 -0.1654
12149TIP3    H157862   1.463   1.830  17.293 -1.6200  0.5915 -0.5262
12149TIP3    H257863   1.447   1.964  17.226  0.3732  0.3566 -1.5185
12150TIP3   OH257864   4.175   5.568   0.017  0.1184 -0.2189  0.0148
12150TIP3    H157865   4.140   5.655  -0.001  0.5268  0.0384  0.4437
12150TIP3    H257866   4.197   5.532  -0.069  1.1386  0.6039 -0.0670
12151TIP3   OH257867   1.498   1.170  13.486 -0.9800  0.6023 -0.2039
12151TIP3    H157868   1.567   1.226  13.521 -1.3341 -0.0340  1.5601
12151TIP3    H257869   1.524   1.154  13.395  0.2505  1.8302 -0.0910
12152TIP3   OH257870   1.808   1.872  11.949  0.7684  0.6969 -0.1080
12152TIP3    H157871   1.846   1.914  11.872 -1.0847 -0.1470 -1.5138
12152TIP3    H257872   1.858   1.791  11.959  0.8190  0.6622 -0.6200
12153TIP3   OH257873   0.540   3.884   4.003 -0.2801 -0.1781  0.4746
12153TIP3    H157874   0.499   3.969   4.018 -0.6654 -0.1873 -0.5032
12153TIP3    H257875   0.608   3.901   3.938 -0.3405 -0.6152  0.2952
12154TIP3   OH257876   6.489   3.678   5.786  0.1721 -0.2892 -0.8469
12154TIP3    H157877   6.487   3.638   5.873  1.4039  1.6273  0.0789
12154TIP3    H257878   6.558   3.630   5.740  1.3067  0.4184  0.0984
12155TIP3   OH257879   5.418   0.739  16.282 -0.0401  0.0736  0.4926
12155TIP3    H157880   5.351   0.695  16.229 -0.6504  0.7948  0.6558
12155TIP3    H257881   5.398   0.832  16.273  0.6059  0.2631  1.0006
12156TIP3   OH257882   4.558   0.631  15.045 -0.0871 -0.3399 -0.4388
12156TIP3    H157883   4.575   0.537  15.034 -0.8508 -0.6340  0.7801
12156TIP3    H257884   4.565   0.646  15.139  0.9993  1.0310 -0.7213
12157TIP3   OH257885   4.747   5.742   4.841 -0.6169 -0.2807  0.1995
12157TIP3    H157886   4.698   5.685   4.781  1.1338 -1.1053 -0.4960
12157TIP3    H257887   4.834   5.748   4.802 -0.1306  1.0639  1.4653
12158TIP3   OH257888   1.752   6.009  15.660  0.6117  0.1959  0.1145
12158TIP3    H157889   1.676   5.951  15.672  0.8786  0.1508  1.6352
12158TIP3    H257890   1.765   6.011  15.565  0.0575 -1.5301 -0.0225
12159TIP3   OH257891   3.342   0.640  12.705 -0.3774  0.5488 -0.0419
12159TIP3    H157892   3.386   0.712  12.660 -0.4641  0.3949 -0.3718
12159TIP3    H257893   3.380   0.561  12.668  0.3850  0.4173  0.9746
12160TIP3   OH257894   1.718   6.650  12.320 -0.1643 -0.2477  0.1040
12160TIP3    H157895   1.753   6.630  12.407  0.9115 -1.7606 -0.6655
12160TIP3    H257896   1.794   6.679  12.270 -0.7921  0.6595 -0.3416
12161TIP3   OH257897   2.612   5.203   1.351 -0.7705  0.2469  0.2191
12161TIP3    H157898   2.692   5.216   1.402 -0.8837  0.2656  0.3927
12161TIP3    H257899   2.568   5.287   1.356 -1.2979 -0.0697  0.9808
12162TIP3   OH257900   2.288   0.588  11.679  0.2267  0.0783 -0.1098
12162TIP3    H157901   2.204   0.579  11.724  1.3310  1.2151  2.2516
12162TIP3    H257902   2.299   0.682  11.666  1.4438  0.0044  0.2616
12163TIP3   OH257903   5.128   0.478   0.866  0.7296 -0.2010  0.2044
12163TIP3    H157904   5.037   0.507   0.876 -0.1300 -2.2153 -1.1678
12163TIP3    H257905   5.168   0.493   0.951 -1.7588 -2.0718  1.7968
12164TIP3   OH257906   0.706   0.374  14.472 -0.3743  0.1133  0.1844
12164TIP3    H157907   0.673   0.433  14.540 -0.9669 -0.7885  0.6827
12164TIP3    H257908   0.795   0.404  14.456 -1.2895  2.3738 -0.9415
12165TIP3   OH257909   6.085   1.423  11.603 -0.6165  0.2733 -0.1358
12165TIP3    H157910   6.080   1.402  11.696  2.0276 -0.7903 -0.1930
12165TIP3    H257911   6.061   1.342  11.558 -0.8452  0.4789 -0.3892
12166TIP3   OH257912   4.384   1.275   5.558  0.2181  0.2324  0.5005
12166TIP3    H157913   4.392   1.296   5.651 -2.3349  2.6698  0.2081
12166TIP3    H257914   4.334   1.194   5.556 -0.9075  0.9055  1.1992
12167TIP3   OH257915   3.022   2.302   1.031  0.1934 -0.1849 -0.1478
12167TIP3    H157916   3.080   2.244   1.080 -1.2259 -1.6930 -0.2196
12167TIP3    H257917   2.943   2.250   1.016 -1.0524  1.7262 -0.3417
12168TIP3   OH257918   4.659   4.415   2.927 -0.4796  0.3200  0.1058
12168TIP3    H157919   4.703   4.344   2.972  0.4734  0.8018 -0.0686
12168TIP3    H257920   4.574   4.377   2.901  0.6357 -1.2488 -1.3626
12169TIP3   OH257921   1.755   0.604  13.264  0.7793  0.0255 -0.5366
12169TIP3    H157922   1.735   0.608  13.358 -2.7160 -0.8999 -1.1671
12169TIP3    H257923   1.849   0.617  13.259  1.0053  0.2829  3.1012
12170TIP3   OH257924   4.840   3.241  12.577  0.2802 -0.2715 -1.0533
12170TIP3    H157925   4.902   3.256  12.506  0.0627 -1.1284 -1.4327
12170TIP3    H257926   4.877   3.168  12.627  1.7748  1.9994  1.2879
12171TIP3   OH257927   6.322   1.872   5.276 -0.2385 -0.1952  0.1875
12171TIP3    H157928   6.231   1.898   5.293 -0.0210 -0.4779  1.9306
12171TIP3    H257929   6.335   1.890   5.183 -1.5316  1.5565  0.3023
12172TIP3   OH257930   3.293   0.553  11.150  0.0919 -0.0884 -0.0006
12172TIP3    H157931   3.313   0.499  11.073  0.7029 -1.6081  1.2190
12172TIP3    H257932   3.220   0.609  11.121 -0.5397 -1.5416 -1.2930
12173TIP3   OH257933   6.744   4.217  12.349  0.2314  0.2236 -0.2925
12173TIP3    H157934   6.815   4.153  12.344  0.5023  0.3611  1.4329
12173TIP3    H257935   6.705   4.217  12.261  1.4373 -0.9030 -0.8455
12174TIP3   OH257936   3.473   2.383  12.732 -0.0899 -0.2876 -0.4707
12174TIP3    H157937   3.492   2.299  12.691  1.7268 -1.3275  2.3311
12174TIP3    H257938   3.516   2.448  12.677  2.6237 -1.6684 -0.0619
12175TIP3   OH257939   1.614   6.498   3.201 -0.5748 -0.1319 -0.1131
12175TIP3    H157940   1.607   6.414   3.156  1.2105 -1.6577  2.2988
12175TIP3    H257941   1.584   6.480   3.290 -0.9841  2.0207  0.2104
12176TIP3   OH257942   3.959   4.034  15.829  0.6042 -0.8395  0.2469
12176TIP3    H157943   3.985   4.081  15.909  0.1569 -0.6941  0.3123
12176TIP3    H257944   3.863   4.034  15.832  0.5659 -0.0084 -0.7694
12177TIP3   OH257945   0.160   2.054  15.783 -0.6713  0.6439 -0.2882
12177TIP3    H157946   0.245   2.099  15.784 -0.0459 -0.4671 -1.4072
12177TIP3    H257947   0.172   1.980  15.844 -0.7360  0.3184 -0.6668
12178TIP3   OH257948   6.778   0.079  13.338 -0.2535  0.1911  0.4090
12178TIP3    H157949   6.846   0.146  13.331 -1.0035  0.7717 -1.7825
12178TIP3    H257950   6.713   0.104  13.272 -1.0544 -2.0978  0.2821
12179TIP3   OH257951   3.698   5.570   0.020  0.2796  0.0143  0.5814
12179TIP3    H157952   3.781   5.546   0.062 -0.0439 -2.0481  0.1266
12179TIP3    H257953   3.634   5.567   0.092  0.5207  1.1853  0.8496
12180TIP3   OH257954   4.638   4.338  13.858 -0.0318 -0.2470  0.3429
12180TIP3    H157955   4.605   4.347  13.768  2.0012 -0.4014 -0.4494
12180TIP3    H257956   4.568   4.372  13.913 -1.6030 -0.8160 -1.2591
12181TIP3   OH257957   4.090   5.276  14.715  0.0513  0.1949 -0.3689
12181TIP3    H157958   4.167   5.328  14.694 -0.6160  0.6933 -1.6430
12181TIP3    H257959   4.122   5.186  14.720  0.9821  0.5703  0.5890
12182TIP3   OH257960   0.023   3.541   2.257 -0.3494  0.6469 -0.3136
12182TIP3    H157961  -0.041   3.486   2.211 -0.8903  0.8760  0.1481
12182TIP3    H257962   0.004   3.527   2.349  0.5312  0.4215 -0.1681
12183TIP3   OH257963   6.602   0.225  15.251  0.1654  0.2832  0.3761
12183TIP3    H157964   6.632   0.191  15.336 -1.5949 -1.8280  0.1832
12183TIP3    H257965   6.535   0.290  15.273 -0.5893 -0.5672  0.6019
12184TIP3   OH257966   6.256   3.369  11.629 -0.3907 -0.3265 -0.0455
12184TIP3    H157967   6.262   3.319  11.547 -2.3253 -0.1542 -0.3268
12184TIP3    H257968   6.207   3.448  11.606  0.1298  0.3165  1.0148
12185TIP3   OH257969   3.803   2.715  13.115  0.1760  0.2001  0.5765
12185TIP3    H157970   3.847   2.765  13.047  1.7625  0.6825  1.9232
12185TIP3    H257971   3.828   2.759  13.197 -0.0546 -1.5659  1.6168
12186TIP3   OH257972   0.363   1.723   0.696  0.0380  0.1962  0.2503
12186TIP3    H157973   0.413   1.764   0.767 -0.7547  0.5822  0.5946
12186TIP3    H257974   0.420   1.730   0.619  0.0713  1.6096  0.3859
12187TIP3   OH257975   3.667   4.132   2.451  0.0177  0.2531  0.2806
12187TIP3    H157976   3.592   4.164   2.502 -1.4442 -1.0869 -0.9496
12187TIP3    H257977   3.642   4.148   2.360  0.8064 -1.0910 -0.1831
12188TIP3   OH257978   6.254   4.669  16.706 -0.1660  0.0616  0.1963
12188TIP3    H157979   6.209   4.593  16.670 -0.4480  0.6011 -0.6203
12188TIP3    H257980   6.185   4.734  16.717  0.1356  0.3264  0.5278
12189TIP3   OH257981   2.313   1.399  15.394  0.2272  0.0158  0.6573
12189TIP3    H157982   2.324   1.388  15.299  0.1416  1.5488  0.4565
12189TIP3    H257983   2.226   1.364  15.412 -0.4617  1.2646 -0.1258
12190TIP3   OH257984   1.553   6.168  15.983  0.3573  0.4923  0.3794
12190TIP3    H157985   1.640   6.145  15.950  0.1932 -0.5473  0.6315
12190TIP3    H257986   1.569   6.216  16.064  0.7146  1.0080 -0.0018
12191TIP3   OH257987   5.206   5.842   0.333  0.0632 -1.1035 -0.3183
12191TIP3    H157988   5.134   5.856   0.272 -0.5533  1.6412  0.9914
12191TIP3    H257989   5.285   5.856   0.280 -0.4719  2.2291 -0.3276
12192TIP3   OH257990   5.043   1.566  11.562  0.2349 -0.2185 -0.1413
12192TIP3    H157991   5.110   1.545  11.627  0.7316  0.6503 -0.3698
12192TIP3    H257992   5.055   1.659  11.544 -0.3160 -0.3058 -1.0009
12193TIP3   OH257993   5.370   5.454  15.110  0.1705 -0.3079  0.2981
12193TIP3    H157994   5.330   5.465  15.196  0.4073  1.3666  0.2201
12193TIP3    H257995   5.464   5.446  15.129  0.2715  0.5422  0.1741
12194TIP3   OH257996   5.399   1.362  15.367 -0.2207 -0.0191  0.3418
12194TIP3    H157997   5.322   1.351  15.422 -0.1368 -1.3387  0.2155
12194TIP3    H257998   5.449   1.282  15.380 -0.1310 -0.2881 -1.5523
12195TIP3   OH257999   3.840   6.371   5.318 -0.4957 -0.2957 -0.5829
12195TIP3    H158000   3.896   6.384   5.242 -1.0223 -0.1678 -0.9533
12195TIP3    H258001   3.865   6.285   5.353  0.7968  0.3098 -0.0001
12196TIP3   OH258002   3.471   2.498  11.329 -0.1957 -0.0760  0.6938
12196TIP3    H158003   3.502   2.548  11.253  3.3620 -0.0857  2.0417
12196TIP3    H258004   3.469   2.407  11.298 -0.2774  0.1106  0.1453
12197TIP3   OH258005   3.628   3.109  15.060 -0.0438 -0.7230 -0.3211
12197TIP3    H158006   3.543   3.129  15.101 -0.7022 -1.3353 -1.3811
12197TIP3    H258007   3.676   3.192  15.063 -1.1812 -0.0385 -0.9252
12198TIP3   OH258008   5.175   0.089   3.493  0.0567  0.2064  0.7787
12198TIP3    H158009   5.122   0.142   3.434 -0.5107  1.5248  2.4576
12198TIP3    H258010   5.144  -0.001   3.479  0.2611  0.4364 -1.2646
12199TIP3   OH258011   4.843   2.829   5.755  0.0686  0.1932  0.0850
12199TIP3    H158012   4.781   2.776   5.806  2.2383 -0.7137  1.8383
12199TIP3    H258013   4.909   2.766   5.725  0.5262  1.2623 -1.2003
12200TIP3   OH258014   2.533   4.962   5.398  0.0677  0.3373  0.0038
12200TIP3    H158015   2.495   5.027   5.457 -1.1812 -0.1167 -0.2746
12200TIP3    H258016   2.624   4.956   5.424  0.0001  1.6172  0.5556
12201TIP3   OH258017   1.018   1.047   6.295  0.1251 -0.3776 -0.1641
12201TIP3    H158018   1.010   0.980   6.228 -0.8560  0.5390 -0.9758
12201TIP3    H258019   0.962   1.118   6.265 -0.8714 -0.2154  1.9519
12202TIP3   OH258020   6.506   4.499  12.337  0.2725 -0.0161 -0.9262
12202TIP3    H158021   6.518   4.417  12.289  1.7397 -0.3453 -0.0195
12202TIP3    H258022   6.577   4.500  12.402 -0.0007  1.7563 -0.6285
12203TIP3   OH258023   6.547   3.076  10.823  0.4737  0.2641  0.7638
12203TIP3    H158024   6.494   3.027  10.760  1.0869  0.7778 -0.1704
12203TIP3    H258025   6.493   3.152  10.846  0.4927  0.3914  0.3930
12204TIP3   OH258026   3.119   0.056  11.068  0.4211  0.1120 -0.2148
12204TIP3    H158027   3.093   0.132  11.119 -2.1628  0.5679 -2.1296
12204TIP3    H258028   3.104  -0.019  11.126 -1.4069  0.7077  0.0953
12205TIP3   OH258029   0.742   2.258  12.378 -0.0231 -0.7166  0.4424
12205TIP3    H158030   0.750   2.261  12.283  0.3342 -1.8784  0.4299
12205TIP3    H258031   0.730   2.350  12.404  1.6921 -0.1732 -0.5624
12206TIP3   OH258032   4.159   1.048   5.061 -0.1933  1.1522  0.4970
12206TIP3    H158033   4.162   0.982   4.992 -0.3269  2.3319 -0.6618
12206TIP3    H258034   4.245   1.089   5.058  0.3447  0.1741  2.0861
12207TIP3   OH258035   1.046   4.827   0.418  0.0953  0.3536  0.4244
12207TIP3    H158036   0.952   4.808   0.419  0.5687 -2.2665 -0.3999
12207TIP3    H258037   1.065   4.843   0.325  0.3469  1.5508  0.6816
12208TIP3   OH258038   0.852   5.540  12.901  0.0309 -0.4564 -0.3595
12208TIP3    H158039   0.763   5.507  12.911  0.3874 -0.8745  1.7408
12208TIP3    H258040   0.896   5.476  12.846 -0.6430 -0.8599 -0.4290
12209TIP3   OH258041   6.321   5.129   6.374  0.1629  0.4726  0.5000
12209TIP3    H158042   6.329   5.220   6.403  0.5859  0.8876 -0.8829
12209TIP3    H258043   6.385   5.120   6.304 -1.0929 -0.3917 -0.5694
12210TIP3   OH258044   2.179   5.082   1.238 -0.5641 -0.3754 -0.2422
12210TIP3    H158045   2.258   5.046   1.279  0.1236  0.9992 -0.3373
12210TIP3    H258046   2.153   5.154   1.295 -1.4489 -0.4751 -0.5058
12211TIP3   OH258047   4.297   4.834   1.117 -0.1181  0.0280  0.0895
12211TIP3    H158048   4.297   4.783   1.198  0.6884  1.3066  0.9081
12211TIP3    H258049   4.252   4.778   1.054 -0.4692 -1.1188  1.3290
12212TIP3   OH258050   5.550   2.814  14.668 -0.4405  0.0082 -0.0433
12212TIP3    H158051   5.469   2.810  14.717 -0.8740  0.3733 -0.7242
12212TIP3    H258052   5.587   2.899  14.690 -0.0794 -0.2878  0.5145
12213TIP3   OH258053   4.538   6.177  16.481 -0.2219  0.5510  0.4326
12213TIP3    H158054   4.579   6.261  16.504  0.3288  0.3311  0.2648
12213TIP3    H258055   4.535   6.177  16.386  1.0483 -0.2028  0.3714
12214TIP3   OH258056   1.031   6.342   1.915  0.3738 -0.3634 -0.5389
12214TIP3    H158057   0.984   6.260   1.928 -0.2350 -0.1698 -1.4893
12214TIP3    H258058   1.112   6.316   1.871  0.1622 -0.4468 -0.8788
12215TIP3   OH258059   2.268   6.011   0.781  0.1086  0.3181 -0.1073
12215TIP3    H158060   2.346   6.053   0.746  0.8673  1.0527  2.3358
12215TIP3    H258061   2.302   5.934   0.827 -0.8278 -0.4999 -0.7722
12216TIP3   OH258062   0.640   4.921   0.228 -0.8054 -0.1303 -0.3219
12216TIP3    H158063   0.696   4.845   0.242  1.7618  1.1481 -2.8597
12216TIP3    H258064   0.646   4.937   0.133 -2.7841  2.0811 -0.1153
12217TIP3   OH258065   5.596   5.257   6.523  0.2482  0.4431 -0.0113
12217TIP3    H158066   5.520   5.203   6.499  0.2507  0.4778 -0.0978
12217TIP3    H258067   5.667   5.225   6.467 -0.0777  1.4031 -0.9992
12218TIP3   OH258068   4.528   1.294  11.402 -0.2241  0.1505 -0.1443
12218TIP3    H158069   4.474   1.218  11.424  0.3952 -0.4268 -0.5993
12218TIP3    H258070   4.616   1.271  11.433 -0.1601  0.9347  0.2677
12219TIP3   OH258071   3.919   2.496   1.063 -0.1778  0.3886  0.1912
12219TIP3    H158072   3.953   2.456   1.144  0.8324  2.5814  0.8869
12219TIP3    H258073   3.932   2.428   0.997 -3.1401 -2.3155  2.2563
12220TIP3   OH258074   6.775   3.364  16.113  0.1063 -0.2537  0.5086
12220TIP3    H158075   6.793   3.458  16.106  1.5106 -0.5752 -0.2537
12220TIP3    H258076   6.860   3.322  16.107 -0.5575 -1.6144  0.3868
12221TIP3   OH258077   5.556   4.183   5.361 -0.7633 -0.7407 -0.3896
12221TIP3    H158078   5.585   4.180   5.270 -1.3511  0.2711 -0.6196
12221TIP3    H258079   5.475   4.234   5.359 -0.5139 -0.2746  0.7585
12222TIP3   OH258080   1.182   1.649  16.066  0.1543  0.1175  0.6557
12222TIP3    H158081   1.220   1.694  16.142 -2.5053  0.5415  1.8079
12222TIP3    H258082   1.096   1.691  16.055  0.4369 -0.0674 -2.5041
12223TIP3   OH258083   6.045   1.426   0.472 -0.2858 -0.1970  0.1284
12223TIP3    H158084   6.124   1.404   0.421 -0.4962  1.3590 -0.8969
12223TIP3    H258085   6.002   1.342   0.487 -0.7419 -0.6241 -3.1515
12224TIP3   OH258086   6.194   6.118   4.033 -0.0791 -0.5219  0.0913
12224TIP3    H158087   6.211   6.181   4.104  0.5062 -1.5214  0.8428
12224TIP3    H258088   6.130   6.057   4.069  2.0001 -2.4480  0.6185
12225TIP3   OH258089   5.029   1.272  11.916 -0.4504  0.2443  0.7274
12225TIP3    H158090   5.092   1.274  11.987 -1.1464  1.1454  1.3293
12225TIP3    H258091   4.957   1.218  11.949 -1.1671  1.3881  1.0445
12226TIP3   OH258092   1.530   3.454  11.376  0.4303  0.0015  0.5270
12226TIP3    H158093   1.557   3.500  11.455  0.8612 -0.8986  0.9101
12226TIP3    H258094   1.608   3.406  11.348 -0.2593 -1.2226  0.6458
12227TIP3   OH258095   6.762   4.228   5.731  0.2959  0.4555  0.4801
12227TIP3    H158096   6.772   4.281   5.810 -1.3161 -1.5069  2.0400
12227TIP3    H258097   6.809   4.147   5.750 -0.8437 -0.3815 -0.2283
12228TIP3   OH258098   2.227   1.826   5.729  0.3213 -0.2259 -0.2615
12228TIP3    H158099   2.304   1.884   5.731 -1.0990  1.6932  2.4232
12228TIP3    H258100   2.225   1.788   5.817 -1.0455 -1.2830 -0.7500
12229TIP3   OH258101   6.266   0.831   4.167  0.2945 -0.4642  0.0298
12229TIP3    H158102   6.274   0.819   4.072 -0.1768 -1.3732  0.1093
12229TIP3    H258103   6.331   0.772   4.205 -0.9124 -1.5850  0.3539
12230TIP3   OH258104   0.912   6.501  13.699 -0.6174 -0.4884  0.1693
12230TIP3    H158105   0.889   6.584  13.657  0.4364 -1.1766 -1.8493
12230TIP3    H258106   0.828   6.464  13.727 -1.2540  0.4400 -0.4835
12231TIP3   OH258107   1.591   4.401   4.836 -0.2397 -0.2574  0.5575
12231TIP3    H158108   1.517   4.370   4.783 -1.0935  2.4197  0.0904
12231TIP3    H258109   1.557   4.404   4.925 -0.3328 -0.1194  0.5172
12232TIP3   OH258110   5.524   1.339   2.236 -0.5716  0.0891 -0.6943
12232TIP3    H158111   5.472   1.294   2.169 -1.9189  1.4360 -0.5564
12232TIP3    H258112   5.564   1.268   2.286  0.1795 -0.9397 -2.7000
12233TIP3   OH258113   3.901   2.420   5.509  0.8202 -0.2508  0.6899
12233TIP3    H158114   3.809   2.410   5.533  0.7820 -1.4474  0.0274
12233TIP3    H258115   3.947   2.420   5.593  0.3804 -1.4039  0.9391
12234TIP3   OH258116   2.856   2.210  15.614  0.2672  0.0329  0.3046
12234TIP3    H158117   2.774   2.203  15.565  0.9984 -2.2646 -0.6672
12234TIP3    H258118   2.894   2.293  15.584 -2.4613  2.0183  2.0656
12235TIP3   OH258119   6.436   0.837   2.308 -0.1915  0.1758 -0.0058
12235TIP3    H158120   6.475   0.885   2.235  0.3539 -0.3710 -0.0828
12235TIP3    H258121   6.365   0.786   2.267 -0.0924  0.1161 -0.1059
12236TIP3   OH258122   4.627   5.584   2.688 -0.2815  0.1298  1.0169
12236TIP3    H158123   4.557   5.639   2.653 -0.3148  0.7162  1.9792
12236TIP3    H258124   4.607   5.496   2.657 -1.0934  0.4047  0.7644
12237TIP3   OH258125   2.853   4.052   5.183 -0.0702 -0.1607 -0.3547
12237TIP3    H158126   2.948   4.066   5.186 -0.2419  0.8403  1.4059
12237TIP3    H258127   2.840   3.966   5.223  0.0321  0.1611  0.3912
12238TIP3   OH258128   0.344   1.616  12.731  0.1556  0.0391 -0.1156
12238TIP3    H158129   0.318   1.602  12.822  0.9261 -1.8794 -0.1582
12238TIP3    H258130   0.262   1.630  12.684 -0.3414 -0.1367  0.6919
12239TIP3   OH258131   6.621   6.475  13.081 -0.3740  0.0729  0.0335
12239TIP3    H158132   6.644   6.516  13.165  1.1659  1.3439 -0.9754
12239TIP3    H258133   6.697   6.421  13.059 -0.5154  0.2252 -0.8367
12240TIP3   OH258134   6.098   4.054   0.657  0.4508  0.4424 -0.3354
12240TIP3    H158135   6.034   3.993   0.695  0.7224 -0.8504 -1.8807
12240TIP3    H258136   6.179   4.003   0.652  1.8019  2.2478  2.1709
12241TIP3   OH258137   6.268   2.637  11.011  0.2293 -0.2358  0.2340
12241TIP3    H158138   6.274   2.561  11.068  0.3395 -0.7253 -0.4311
12241TIP3    H258139   6.176   2.640  10.984  0.4309 -0.7120 -0.5254
12242TIP3   OH258140   0.669   1.639   4.235  0.3170 -0.5166  0.0772
12242TIP3    H158141   0.730   1.708   4.261 -0.1198  0.1339 -0.6129
12242TIP3    H258142   0.624   1.674   4.158 -1.1935 -0.8265  0.7935
12243TIP3   OH258143   3.106   4.308  16.609 -0.0619  0.1197 -0.3664
12243TIP3    H158144   3.020   4.285  16.644  0.2098  0.0393  0.2467
12243TIP3    H258145   3.135   4.381  16.664 -0.2140  0.8735 -1.2691
12244TIP3   OH258146   5.157   5.693   4.202 -0.0802  0.4852  1.3146
12244TIP3    H158147   5.212   5.768   4.180  0.7960 -0.5403 -0.1068
12244TIP3    H258148   5.093   5.688   4.131 -0.2145 -0.0350  1.4675
12245TIP3   OH258149   5.351   0.074   4.304 -0.0782  0.5343  0.0600
12245TIP3    H158150   5.262   0.058   4.271  0.3221 -0.2564 -0.6598
12245TIP3    H258151   5.401   0.097   4.225  0.9257 -1.4869  0.0963
12246TIP3   OH258152   3.875   1.326   1.660  0.2841  0.0268  0.0986
12246TIP3    H158153   3.835   1.240   1.673  0.1671  0.0822  0.1130
12246TIP3    H258154   3.860   1.372   1.742 -1.5363  0.8057 -0.6309
12247TIP3   OH258155   4.323   6.198   5.199  1.0150 -0.3766 -0.1855
12247TIP3    H158156   4.316   6.117   5.249  1.2510 -2.0459 -2.7636
12247TIP3    H258157   4.397   6.184   5.140  0.9017  1.6088 -0.8467
12248TIP3   OH258158   1.879   2.915   0.695 -0.3604  0.6611  0.2764
12248TIP3    H158159   1.919   2.931   0.609 -1.8180 -0.1039 -0.5653
12248TIP3    H258160   1.950   2.928   0.757  0.5030  2.1556 -0.9754
12249TIP3   OH258161   4.505   1.968  11.429 -0.5047  0.1859  0.0520
12249TIP3    H158162   4.562   1.996  11.501 -1.1278 -0.6541  0.8975
12249TIP3    H258163   4.475   2.049  11.389  1.2917  0.6406 -0.4276
12250TIP3   OH258164   0.003   4.421   5.516  0.9239 -0.4640 -0.7325
12250TIP3    H158165   0.003   4.504   5.563  0.0929 -0.3168 -0.9782
12250TIP3    H258166  -0.009   4.355   5.584 -0.9921 -0.2069 -0.7903
12251TIP3   OH258167   4.366   0.010  15.781  0.2595 -0.1717  0.7890
12251TIP3    H158168   4.399   0.088  15.826 -0.3116  0.5937 -0.0883
12251TIP3    H258169   4.431  -0.007  15.712  0.1131 -0.1452  0.6434
12252TIP3   OH258170   1.897   5.668  16.062  0.6243  0.1065  0.1937
12252TIP3    H158171   1.972   5.613  16.087  0.8289  1.0550  1.7494
12252TIP3    H258172   1.899   5.669  15.967  2.2897 -0.3157  0.2055
12253TIP3   OH258173   2.071   2.257  13.706  0.2329  0.1311  0.0733
12253TIP3    H158174   1.980   2.257  13.676 -0.1086 -0.6422  1.0610
12253TIP3    H258175   2.066   2.227  13.797  1.6312 -1.6170 -0.3816
12254TIP3   OH258176   1.476   4.198  15.579 -0.9755  0.0087 -0.0510
12254TIP3    H158177   1.508   4.164  15.495 -1.5838 -0.7462  0.0104
12254TIP3    H258178   1.552   4.197  15.636 -0.9254 -1.0410 -0.1226
12255TIP3   OH258179   1.440   5.811   4.219 -0.1818 -0.2516 -0.2515
12255TIP3    H158180   1.422   5.859   4.137 -1.2220 -2.5957 -1.4366
12255TIP3    H258181   1.535   5.804   4.222  0.1238  3.3362  0.8252
12256TIP3   OH258182   2.601   4.930  14.520 -0.1235 -0.5528 -0.6071
12256TIP3    H158183   2.598   5.012  14.471 -0.9655 -0.1590  0.0823
12256TIP3    H258184   2.693   4.921  14.547  0.2631 -0.5749 -1.9066
12257TIP3   OH258185   4.804   6.090   5.024  0.2982  0.1442 -0.7774
12257TIP3    H158186   4.891   6.126   5.040 -0.0891  0.9180 -0.3323
12257TIP3    H258187   4.811   5.998   5.047  0.7645  0.4124  0.1975
12258TIP3   OH258188   6.679   6.130  13.216  0.0042 -0.1698  0.0397
12258TIP3    H158189   6.737   6.190  13.263 -1.2050  1.5947 -0.6551
12258TIP3    H258190   6.734   6.092  13.147  0.1653  2.1649 -1.1862
12259TIP3   OH258191   2.183   3.507  16.979  0.2192 -0.2091 -0.3647
12259TIP3    H158192   2.128   3.442  17.023 -0.0264 -0.7160 -1.4017
12259TIP3    H258193   2.216   3.462  16.901 -0.9525  1.2879 -1.7554
12260TIP3   OH258194   1.894   0.507  12.264 -0.6228  0.0338 -0.4045
12260TIP3    H158195   1.884   0.428  12.211 -0.4413 -0.3373  0.1110
12260TIP3    H258196   1.807   0.521  12.303 -0.2368 -0.8520  0.8070
12261TIP3   OH258197   2.091   1.087   2.986 -0.2128 -0.1265 -0.0249
12261TIP3    H158198   2.183   1.066   2.995 -0.1941  0.3405  0.9283
12261TIP3    H258199   2.067   1.128   3.069 -0.9798  0.8503 -0.7173
12262TIP3   OH258200   0.969   4.703  13.424 -0.0661 -0.4126 -0.2425
12262TIP3    H158201   0.980   4.761  13.348  1.0045 -0.3138 -0.0293
12262TIP3    H258202   0.885   4.661  13.411  0.4121 -0.8943 -1.8310
12263TIP3   OH258203   3.623   4.559   0.625 -0.3847 -0.1388  0.1414
12263TIP3    H158204   3.555   4.535   0.563  0.7242 -1.5080 -0.5595
12263TIP3    H258205   3.646   4.649   0.602 -1.4712  0.0915 -0.0483
12264TIP3   OH258206   0.783   3.682   5.212 -0.7660  0.4367 -0.0015
12264TIP3    H158207   0.727   3.700   5.136  1.8554  0.6692 -1.9606
12264TIP3    H258208   0.830   3.764   5.227  1.8645 -0.8598 -0.8589
12265TIP3   OH258209   1.036   1.899  10.976  0.6556 -0.5451 -0.0288
12265TIP3    H158210   1.089   1.864  10.905  0.8080 -0.1784 -0.0966
12265TIP3    H258211   1.077   1.983  10.998  0.5106 -0.5819  0.3785
12266TIP3   OH258212   5.097   2.716   5.614 -0.0575 -0.7980  0.1206
12266TIP3    H158213   5.031   2.657   5.578  2.8857 -3.0102 -1.9595
12266TIP3    H258214   5.130   2.765   5.538 -1.2038  2.3477  1.5508
12267TIP3   OH258215   6.522   1.511  12.648 -0.1680  0.7945  0.3901
12267TIP3    H158216   6.512   1.416  12.640 -0.7107  0.8379  0.5694
12267TIP3    H258217   6.519   1.543  12.558 -0.1041  0.6567  0.3388
12268TIP3   OH258218   4.212   3.002   6.422 -0.1342  0.9526 -0.8610
12268TIP3    H158219   4.296   2.958   6.409  0.4056  1.3448  1.1548
12268TIP3    H258220   4.181   2.969   6.506 -1.2859  1.9491 -0.8914
12269TIP3   OH258221   4.842   1.961   3.888 -0.4390 -0.9201  0.2183
12269TIP3    H158222   4.847   2.019   3.811 -0.2982 -1.4552 -0.1768
12269TIP3    H258223   4.933   1.950   3.915 -0.4327 -1.2828  0.0482
12270TIP3   OH258224   3.694   0.823   6.122 -0.0567 -0.5857 -0.0510
12270TIP3    H158225   3.776   0.774   6.132  0.7080  0.8710  0.9255
12270TIP3    H258226   3.721   0.914   6.110 -1.5272 -0.0980  0.2357
12271TIP3   OH258227   1.381   3.710  11.710  0.4695  0.0021  0.0777
12271TIP3    H158228   1.334   3.674  11.635  0.0506  0.2677  0.2151
12271TIP3    H258229   1.465   3.738  11.674  0.0696  0.6085 -0.3988
12272TIP3   OH258230   1.277   0.963  11.169  0.3440 -0.4458 -0.0505
12272TIP3    H158231   1.316   0.886  11.210 -1.3435 -1.1067  0.3586
12272TIP3    H258232   1.274   0.941  11.075 -0.7856 -1.1893  0.1485
12273TIP3   OH258233   2.482   3.871   2.080  0.0302 -0.1046 -0.3189
12273TIP3    H158234   2.557   3.892   2.025  0.7075  0.5609  0.8507
12273TIP3    H258235   2.519   3.847   2.165 -1.0979  1.4626  0.6586
12274TIP3   OH258236   5.646   1.892   0.118  0.0333  0.6606 -0.0668
12274TIP3    H158237   5.675   1.836   0.046 -0.7316 -0.3468  0.3926
12274TIP3    H258238   5.563   1.930   0.087  0.5486  1.5299 -0.3746
12275TIP3   OH258239   4.807   6.706   4.339  0.1586 -0.0460 -0.2683
12275TIP3    H158240   4.767   6.619   4.346  1.6260 -0.7137  0.0614
12275TIP3    H258241   4.737   6.762   4.305 -0.9998 -1.2129  0.1349
12276TIP3   OH258242   4.844   6.245   0.317 -0.2915 -0.0768 -0.0694
12276TIP3    H158243   4.822   6.152   0.328 -0.0278 -0.2001 -0.5806
12276TIP3    H258244   4.931   6.254   0.356  0.7283 -0.5557 -2.1878
12277TIP3   OH258245   1.700   1.755  14.278  0.1754  0.0273 -0.5224
12277TIP3    H158246   1.762   1.688  14.305 -0.3196 -0.1802  0.1259
12277TIP3    H258247   1.747   1.808  14.214  0.5685 -0.9315 -1.0283
12278TIP3   OH258248   3.900   4.643  16.028 -0.2204 -0.3211 -0.9419
12278TIP3    H158249   3.992   4.634  16.050 -0.3629  0.3753 -0.0129
12278TIP3    H258250   3.894   4.617  15.936  0.8375 -0.7104 -0.9042
12279TIP3   OH258251   0.753   4.284  13.642 -0.4743  0.4331 -0.0823
12279TIP3    H158252   0.793   4.347  13.702  0.0676 -0.7251  0.7984
12279TIP3    H258253   0.664   4.317  13.628 -0.0853  1.5585  0.1084
12280TIP3   OH258254   0.164   4.394   3.764  0.2200 -0.0784 -0.9675
12280TIP3    H158255   0.079   4.351   3.776  0.2337  0.2206  0.2057
12280TIP3    H258256   0.193   4.415   3.852  0.0910  2.6179 -1.5134
12281TIP3   OH258257   1.084   5.322   4.597  0.3679  0.0812 -0.1844
12281TIP3    H158258   1.019   5.312   4.666  0.9213 -1.3586  0.1423
12281TIP3    H258259   1.162   5.354   4.643  0.9615 -1.5808 -0.0169
12282TIP3   OH258260   0.106   1.139   4.353  0.3233 -0.0970 -0.2652
12282TIP3    H158261   0.111   1.235   4.356 -0.1980  0.1103 -4.1145
12282TIP3    H258262   0.013   1.120   4.355  0.4422 -0.7548  3.2399
12283TIP3   OH258263   6.177   5.878   6.183  0.3469 -0.1261  0.0545
12283TIP3    H158264   6.096   5.854   6.229  0.7694 -0.0904  0.8329
12283TIP3    H258265   6.151   5.950   6.125  0.0779  0.7624  1.2484
12284TIP3   OH258266   3.383   3.972   4.083 -0.2581 -0.2374 -0.4218
12284TIP3    H158267   3.403   3.900   4.023 -0.9110 -0.0050 -0.9175
12284TIP3    H258268   3.440   3.956   4.158  2.0197  0.5533 -1.9255
12285TIP3   OH258269   6.453   5.671   3.367 -0.1812  0.3396  0.2570
12285TIP3    H158270   6.512   5.727   3.416  0.4811 -0.3708  0.2724
12285TIP3    H258271   6.367   5.687   3.406  0.2620  0.1372  1.3273
12286TIP3   OH258272   4.548   3.453  12.793  0.4631  0.0084 -0.8572
12286TIP3    H158273   4.598   3.516  12.845  2.4024 -1.4299 -0.9227
12286TIP3    H258274   4.525   3.501  12.713 -0.7125  1.5579  0.3943
12287TIP3   OH258275   4.934   3.229  16.317  0.3581  0.1532 -0.4545
12287TIP3    H158276   5.028   3.213  16.325  0.7390  0.7900 -3.2261
12287TIP3    H258277   4.923   3.320  16.342  0.9424  0.9217 -2.8141
12288TIP3   OH258278   6.126   1.026  15.519  0.6059 -0.0978 -0.0078
12288TIP3    H158279   6.085   1.065  15.443 -0.3438 -0.5414  0.2719
12288TIP3    H258280   6.107   1.088  15.591  0.3402 -0.3457  0.1381
12289TIP3   OH258281   4.640   4.941  11.742  0.8571  0.0555  0.2396
12289TIP3    H158282   4.620   4.916  11.652  1.1386 -0.4289  0.3117
12289TIP3    H258283   4.641   5.037  11.740  0.2736  0.0542 -0.1391
12290TIP3   OH258284   5.189   5.806  15.355 -0.1580  0.5523  0.3298
12290TIP3    H158285   5.147   5.892  15.360  1.0762  1.2286 -0.6231
12290TIP3    H258286   5.122   5.749  15.318 -1.5602  0.6908  2.5584
12291TIP3   OH258287   0.748   4.544  15.300 -0.4001  0.1947  0.5208
12291TIP3    H158288   0.838   4.556  15.331  0.1788  0.3251 -1.1501
12291TIP3    H258289   0.714   4.633  15.291 -0.4463  0.1716  0.4711
12292TIP3   OH258290   2.527   1.469   1.476  0.1105  0.9172  0.3839
12292TIP3    H158291   2.475   1.547   1.496 -1.9095 -0.4068  0.4382
12292TIP3    H258292   2.502   1.405   1.543  2.0453  0.3320  0.5980
12293TIP3   OH258293   6.257   0.185  15.876  0.3506 -0.1496 -0.2137
12293TIP3    H158294   6.202   0.123  15.924 -1.2769 -0.2806 -2.1508
12293TIP3    H258295   6.270   0.144  15.790  1.1126  1.1816 -0.7591
12294TIP3   OH258296   4.161   0.979  14.933 -0.1678 -0.2240 -0.1751
12294TIP3    H158297   4.079   0.992  14.980 -1.0800  0.6100 -1.9412
12294TIP3    H258298   4.206   0.909  14.981 -0.4728  1.4663  2.6542
12295TIP3   OH258299   5.435   6.299  16.841 -0.2357 -0.2489  0.2634
12295TIP3    H158300   5.345   6.304  16.810  0.0160 -1.6718 -0.7356
12295TIP3    H258301   5.485   6.269  16.765  1.1607  0.9306  0.6820
12296TIP3   OH258302   1.305   0.649   3.979  0.1587 -0.2336 -0.1107
12296TIP3    H158303   1.252   0.728   3.971  1.0422  0.1891 -2.1743
12296TIP3    H258304   1.369   0.655   3.908  0.1796 -2.8480 -0.3883
12297TIP3   OH258305   6.125   1.740  14.528  0.0023  0.0455  0.3950
12297TIP3    H158306   6.152   1.751  14.619 -1.5638 -0.5251  0.9415
12297TIP3    H258307   6.065   1.812  14.512  0.7575  0.5146 -0.4016
12298TIP3   OH258308   0.468   6.105   2.109 -0.0021 -0.4413  0.0938
12298TIP3    H158309   0.477   6.056   2.028  1.3840 -1.5623  0.9103
12298TIP3    H258310   0.555   6.138   2.128 -0.5652  0.8649  0.4874
12299TIP3   OH258311   5.761   5.880  14.943 -0.1835 -0.0927  0.1842
12299TIP3    H158312   5.781   5.788  14.924  0.2401  0.0935 -0.2946
12299TIP3    H258313   5.703   5.877  15.018  1.2059 -0.6902  1.2600
12300TIP3   OH258314   2.286   2.369   1.585 -0.1871  0.0720 -0.3905
12300TIP3    H158315   2.237   2.289   1.603 -2.7052  1.6678 -0.0104
12300TIP3    H258316   2.358   2.340   1.528 -0.0972 -2.7005  1.0622
12301TIP3   OH258317   0.387   4.889   0.545 -0.5857  1.1685 -0.0970
12301TIP3    H158318   0.386   4.983   0.561 -0.8832  0.8593  1.8268
12301TIP3    H258319   0.298   4.860   0.565 -0.1081  0.2644  0.7720
12302TIP3   OH258320   0.465   5.182   4.444 -0.1349  0.1286  0.6368
12302TIP3    H158321   0.480   5.157   4.535  1.9141  1.0026  0.5706
12302TIP3    H258322   0.495   5.273   4.439 -0.9642  0.3451 -0.7384
12303TIP3   OH258323   5.363   0.130   4.748  0.3341 -0.3373  0.2323
12303TIP3    H158324   5.350   0.049   4.797 -1.6595 -0.1868  0.0140
12303TIP3    H258325   5.281   0.142   4.699  1.8643  0.0708 -2.3233
12304TIP3   OH258326   4.514   1.594   1.545  0.7105 -0.3677  0.0700
12304TIP3    H158327   4.550   1.524   1.491  2.0242  0.4804 -0.1818
12304TIP3    H258328   4.566   1.591   1.626  0.6674  0.2058  0.1192
12305TIP3   OH258329   5.500   3.824  16.217 -0.6262  0.4012 -0.0127
12305TIP3    H158330   5.519   3.874  16.137  0.8319  1.9330  1.2632
12305TIP3    H258331   5.572   3.761  16.222 -0.3149  0.7938  0.4762
12306TIP3   OH258332   3.941   6.243  15.215  0.7210 -0.4758 -0.0308
12306TIP3    H158333   3.949   6.150  15.197  0.5207 -0.7848  1.4601
12306TIP3    H258334   3.996   6.285  15.149 -0.0396 -1.5832 -1.3854
12307TIP3   OH258335   0.297   5.989   1.219  0.1708 -0.9727 -0.5458
12307TIP3    H158336   0.205   5.989   1.194  0.2459  1.8313 -0.9770
12307TIP3    H258337   0.345   5.978   1.136  0.2513  0.2163 -0.6702
12308TIP3   OH258338   0.279   0.785   0.375  0.0773 -0.1759 -0.4832
12308TIP3    H158339   0.367   0.821   0.370  0.6713 -1.7331 -1.4884
12308TIP3    H258340   0.288   0.706   0.427 -1.3671  1.4904  2.4145
12309TIP3   OH258341   0.307   5.776   2.460  0.3891 -0.3669  0.4606
12309TIP3    H158342   0.258   5.787   2.379  2.5380  1.3641 -0.6602
12309TIP3    H258343   0.317   5.681   2.469 -0.8727 -0.6227 -0.6821
12310TIP3   OH258344   4.558   6.323   1.022 -0.0495 -0.0500  0.1574
12310TIP3    H158345   4.556   6.231   0.998 -0.7910  0.0065 -0.0203
12310TIP3    H258346   4.598   6.367   0.947 -2.3221  0.1205 -0.9843
12311TIP3   OH258347   6.257   3.393  13.527  0.6710  0.0224  0.0722
12311TIP3    H158348   6.324   3.456  13.503  0.0952  0.7916  0.4807
12311TIP3    H258349   6.260   3.326  13.458  1.4593  0.3524 -0.2120
12312TIP3   OH258350   2.179   3.747  13.859  0.6313 -0.4094  0.1148
12312TIP3    H158351   2.160   3.662  13.819 -1.8387  0.2533 -0.2159
12312TIP3    H258352   2.177   3.809  13.786  2.2982 -0.0338  0.3744
12313TIP3   OH258353   1.873   6.084   5.073  0.0978 -0.6978  0.0572
12313TIP3    H158354   1.917   6.117   5.152  2.5028  0.7572 -1.8199
12313TIP3    H258355   1.905   5.994   5.064  0.4357 -0.6038  0.3115
12314TIP3   OH258356   0.503   1.332  12.918 -0.0652  0.4352  0.6315
12314TIP3    H158357   0.421   1.310  12.874 -0.8557  1.3059  1.6506
12314TIP3    H258358   0.507   1.273  12.992  0.4714  0.0627  0.3059
12315TIP3   OH258359   3.303   5.715  12.532 -0.2747 -0.2746  0.7291
12315TIP3    H158360   3.311   5.660  12.610 -1.2243 -1.4636  0.0107
12315TIP3    H258361   3.344   5.664  12.463  1.7692  1.3556  0.6849
12316TIP3   OH258362   5.455   5.973   1.952 -0.4040  0.6196 -0.1805
12316TIP3    H158363   5.363   5.984   1.975 -1.2678  0.3226 -3.2858
12316TIP3    H258364   5.483   5.895   2.001 -1.9546  0.3926  0.3500
12317TIP3   OH258365   2.891   0.051  16.783 -0.3518  0.7318  0.1638
12317TIP3    H158366   2.934   0.095  16.709 -0.4440 -0.4552 -0.6069
12317TIP3    H258367   2.834  -0.015  16.743 -1.2094  0.7822  1.2626
12318TIP3   OH258368   5.091   5.814  12.667 -0.3570 -0.3652 -0.4162
12318TIP3    H158369   5.163   5.776  12.717  0.4441 -0.0118 -1.2907
12318TIP3    H258370   5.071   5.896  12.711 -0.6581 -0.7636  0.2021
12319TIP3   OH258371   4.472   5.462  16.419  0.1420 -1.0283  0.4483
12319TIP3    H158372   4.509   5.548  16.399  0.9429 -1.0754  1.6673
12319TIP3    H258373   4.534   5.423  16.480 -1.0588 -1.8129  1.1886
12320TIP3   OH258374   2.859   2.407  16.371 -0.3896 -0.5542  0.0514
12320TIP3    H158375   2.831   2.496  16.391  0.4354 -0.4288  0.6522
12320TIP3    H258376   2.783   2.353  16.391 -0.4870 -0.1192  0.8399
12321TIP3   OH258377   4.998   4.227  14.271  0.3943  0.3532 -0.2810
12321TIP3    H158378   4.994   4.131  14.277  0.8991  0.3110 -0.5938
12321TIP3    H258379   4.952   4.247  14.189  0.3241  0.3796 -0.2357
12322TIP3   OH258380   3.420   1.325  11.257  0.3957 -0.0421 -0.5204
12322TIP3    H158381   3.366   1.273  11.316 -1.4107  2.1007 -0.2152
12322TIP3    H258382   3.373   1.322  11.173 -0.0954  1.6184 -0.3229
12323TIP3   OH258383   3.071   1.395   2.833 -0.1275 -0.1287  0.1855
12323TIP3    H158384   3.155   1.350   2.830  0.5674  1.1332  0.0941
12323TIP3    H258385   3.082   1.469   2.772 -0.4812  1.3638  1.8814
12324TIP3   OH258386   0.977   5.670   1.767 -0.3625  0.7031  0.1564
12324TIP3    H158387   1.033   5.654   1.843 -0.4714  0.2017  0.1273
12324TIP3    H258388   1.034   5.659   1.692 -0.1535  1.6087  0.1768
12325TIP3   OH258389   4.779   5.190   3.346 -0.0469  0.0705  0.2131
12325TIP3    H158390   4.815   5.122   3.289 -0.7414  2.3448 -3.0727
12325TIP3    H258391   4.685   5.172   3.350 -0.0426  0.0853  0.3973
12326TIP3   OH258392   6.527   4.104  12.528 -0.5206  0.4777  0.2077
12326TIP3    H158393   6.606   4.158  12.523 -0.5793  0.6228  0.8266
12326TIP3    H258394   6.455   4.168  12.526 -0.6237  0.3457 -0.3686
12327TIP3   OH258395   1.607   3.232   3.836  0.3259  0.0378 -0.3165
12327TIP3    H158396   1.581   3.291   3.906 -0.6926  0.9915 -1.4642
12327TIP3    H258397   1.640   3.154   3.880 -0.1245  0.6979  1.2009
12328TIP3   OH258398   1.598   6.189   5.022 -0.2939 -0.7528 -0.1725
12328TIP3    H158399   1.679   6.138   5.015 -0.2358 -0.7292  0.3105
12328TIP3    H258400   1.618   6.272   4.978  0.1035 -0.5569  0.3826
12329TIP3   OH258401   1.344   0.862   2.558 -0.0738  0.0825 -0.1256
12329TIP3    H158402   1.356   0.903   2.644  1.0940 -0.8313  0.1710
12329TIP3    H258403   1.362   0.769   2.573  0.1609 -0.0855 -1.3527
12330TIP3   OH258404   5.309   1.854   2.854 -0.1402 -0.0933 -0.2519
12330TIP3    H158405   5.373   1.860   2.783  0.6872  2.0440  0.6063
12330TIP3    H258406   5.228   1.888   2.816  0.3695  1.3120 -0.1464
12331TIP3   OH258407   4.566   5.701   4.475  0.3039  0.3909  0.5537
12331TIP3    H158408   4.640   5.761   4.484  0.6747  0.1141 -0.5492
12331TIP3    H258409   4.592   5.624   4.524  1.2428 -0.1407 -0.7298
12332TIP3   OH258410   0.855   4.580  14.123 -0.3778  0.3276 -0.0152
12332TIP3    H158411   0.923   4.515  14.139 -1.0843  0.0831  2.2886
12332TIP3    H258412   0.782   4.529  14.087 -0.4482  0.0590  0.4978
12333TIP3   OH258413   2.055   0.050  15.760  0.3420 -0.4212 -0.3156
12333TIP3    H158414   2.138   0.008  15.739  0.4764 -2.5523  3.8239
12333TIP3    H258415   2.072   0.144  15.753  2.8358 -0.8548 -0.3924
12334TIP3   OH258416   1.616   3.659   1.666  0.3897  0.2893  0.0481
12334TIP3    H158417   1.556   3.661   1.741  0.8227  2.6248  0.3768
12334TIP3    H258418   1.640   3.751   1.653  1.2202 -0.2349 -2.2416
12335TIP3   OH258419   2.801   2.564  12.011  0.3476 -0.0349 -0.2131
12335TIP3    H158420   2.740   2.529  12.077 -0.8322  1.4888 -0.4715
12335TIP3    H258421   2.886   2.560  12.053 -0.6938  3.2650  2.4518
12336TIP3   OH258422   2.934   2.974  16.328 -0.0187 -0.1496 -0.0989
12336TIP3    H158423   2.924   2.964  16.234  0.7273 -0.2592 -0.1737
12336TIP3    H258424   2.845   2.978  16.362 -0.3042 -1.6231 -0.6455
12337TIP3   OH258425   0.256   3.692  11.163  0.7122  0.0173  0.8031
12337TIP3    H158426   0.202   3.733  11.094 -0.2976  0.6423  1.9443
12337TIP3    H258427   0.342   3.682  11.123  0.5664  1.8499 -0.0254
12338TIP3   OH258428   5.333   5.906   2.268  0.0988  0.1647 -0.0126
12338TIP3    H158429   5.358   5.865   2.351  2.8503  2.3814  0.3461
12338TIP3    H258430   5.393   5.868   2.204  0.5433  1.2762 -0.2588
12339TIP3   OH258431   5.108   5.993  14.368 -0.0456 -0.1173 -0.8488
12339TIP3    H158432   5.107   6.068  14.428  0.2050 -2.3094  2.0212
12339TIP3    H258433   5.016   5.967  14.361  0.0643 -0.6998 -0.2557
12340TIP3   OH258434   3.284   0.402  15.274  0.0441 -0.4951 -0.5919
12340TIP3    H158435   3.191   0.415  15.295  0.1260 -0.1196 -0.4541
12340TIP3    H258436   3.300   0.463  15.202 -0.1159 -1.4298 -1.4200
12341TIP3   OH258437   6.751   5.243  12.611 -0.5482 -0.3971  0.7365
12341TIP3    H158438   6.830   5.297  12.614 -1.3941  0.7976  2.7636
12341TIP3    H258439   6.768   5.180  12.541  1.8957  0.2875  0.6486
12342TIP3   OH258440   5.153   4.993   1.687  0.4229 -0.1395  0.0387
12342TIP3    H158441   5.238   4.980   1.731  0.5943  0.7613 -0.0087
12342TIP3    H258442   5.176   5.031   1.602 -0.1200  1.9817  0.8125
12343TIP3   OH258443   1.850   3.792   5.335 -0.5700  0.2742 -0.3825
12343TIP3    H158444   1.809   3.879   5.340  0.5304  0.8466 -1.0627
12343TIP3    H258445   1.870   3.770   5.426 -0.6706  0.8386 -0.2205
12344TIP3   OH258446   0.853   2.238   3.042  0.3689  0.1543  0.2749
12344TIP3    H158447   0.904   2.193   3.109  2.6110  0.6995 -1.0034
12344TIP3    H258448   0.789   2.290   3.091  1.3844 -0.1484  1.9548
12345TIP3   OH258449   5.284   4.383   5.347 -0.3548  0.3073 -0.0825
12345TIP3    H158450   5.231   4.394   5.427  0.8448 -0.9714  0.9078
12345TIP3    H258451   5.219   4.374   5.277 -1.4308  1.0187  0.7920
12346TIP3   OH258452   4.092   2.153  11.425  0.2681 -1.0372 -0.0774
12346TIP3    H158453   4.097   2.238  11.468  0.0611 -1.2610  0.4008
12346TIP3    H258454   4.106   2.171  11.332 -1.5142 -0.2658 -0.2052
12347TIP3   OH258455   4.089   1.173   5.364  0.2472  0.6252 -0.8884
12347TIP3    H158456   4.077   1.265   5.341 -1.2003  0.9588  1.0486
12347TIP3    H258457   4.070   1.169   5.458  1.6394 -1.4156 -0.6487
12348TIP3   OH258458   1.472   1.030   0.782  0.1883 -0.0844  0.2041
12348TIP3    H158459   1.411   0.957   0.795  1.0958 -0.7885  0.5492
12348TIP3    H258460   1.558   0.989   0.773  1.1260  1.0510  3.1425
12349TIP3   OH258461   2.794   2.238  15.885 -0.6197  0.3471 -0.2695
12349TIP3    H158462   2.809   2.238  15.790  1.7508 -3.3022  0.0113
12349TIP3    H258463   2.820   2.326  15.913  2.2641  0.3147 -2.5320
12350TIP3   OH258464   1.972   2.857  14.770 -0.3796 -0.1240 -0.0068
12350TIP3    H158465   1.966   2.915  14.694  0.2528  0.9114  0.7239
12350TIP3    H258466   1.915   2.896  14.835 -0.7827 -0.9177  0.1168
12351TIP3   OH258467   1.025   4.430   1.354  0.2676  0.6550  0.0516
12351TIP3    H158468   1.110   4.458   1.388  0.0315 -0.4980  1.6538
12351TIP3    H258469   1.030   4.445   1.260  1.6402  2.1381  0.3513
12352TIP3   OH258470   0.919   5.187  14.956 -0.1718  0.2518  0.2797
12352TIP3    H158471   1.007   5.221  14.967  0.5367 -0.8474 -1.7452
12352TIP3    H258472   0.862   5.264  14.965  0.8080  0.7211  3.2530
12353TIP3   OH258473   6.663   3.613  12.019 -0.1601  0.8244  0.3329
12353TIP3    H158474   6.702   3.608  12.107 -0.8357 -1.5891  0.5333
12353TIP3    H258475   6.574   3.578  12.030 -0.2307  0.4366 -1.3107
12354TIP3   OH258476   5.069   1.715  11.879  0.1737  0.6400 -0.2345
12354TIP3    H158477   5.018   1.635  11.891  0.2726  0.4282 -1.2149
12354TIP3    H258478   5.129   1.695  11.807  1.2414  1.0833  0.5160
12355TIP3   OH258479   3.216   0.008  12.348 -0.3334 -0.0239 -0.3017
12355TIP3    H158480   3.206  -0.015  12.255 -1.3192  0.8858 -0.4371
12355TIP3    H258481   3.175  -0.064  12.395 -1.2218  0.2525 -0.6388
12356TIP3   OH258482   4.832   4.373   5.310  0.1934  0.2133  0.4480
12356TIP3    H158483   4.823   4.420   5.393  0.1590  1.0541 -0.0316
12356TIP3    H258484   4.746   4.380   5.269  0.7055  1.3093 -0.4571
12357TIP3   OH258485   2.800   3.048   4.861 -0.4875  0.3324  0.7083
12357TIP3    H158486   2.872   3.101   4.893  1.1799 -0.1838 -2.0578
12357TIP3    H258487   2.809   2.965   4.909 -1.6325  1.6122  3.2215
12358TIP3   OH258488   2.974   6.257  16.333 -0.0858 -0.1281  0.0081
12358TIP3    H158489   3.064   6.269  16.304 -0.4592  2.4951 -0.1301
12358TIP3    H258490   2.933   6.205  16.264  0.2921  1.9969 -1.8485
12359TIP3   OH258491   1.018   6.353   0.405  0.1284 -0.3482 -0.1534
12359TIP3    H158492   0.999   6.320   0.493 -4.3614 -1.3231 -1.3307
12359TIP3    H258493   0.954   6.423   0.392 -0.5175 -1.4277 -3.2199
12360TIP3   OH258494   2.360   5.868  10.695 -0.3548 -0.0333  0.1035
12360TIP3    H158495   2.291   5.828  10.642 -1.3316 -0.8047  1.8980
12360TIP3    H258496   2.405   5.794  10.736  0.5570  0.5351  0.1264
12361TIP3   OH258497   0.049   1.498  13.196 -0.2143  0.1332  0.0206
12361TIP3    H158498  -0.032   1.448  13.186 -0.6466  0.4073  2.0422
12361TIP3    H258499   0.054   1.550  13.115 -2.6935  1.0027  0.3686
12362TIP3   OH258500   4.546   4.668  16.399 -0.0118  0.0759  0.2067
12362TIP3    H158501   4.495   4.629  16.470  0.2979  0.0353  0.4061
12362TIP3    H258502   4.569   4.593  16.343  0.6574 -0.0485  0.6370
12363TIP3   OH258503   5.375   1.370   2.807  0.1071  0.4325 -0.1443
12363TIP3    H158504   5.401   1.462   2.812  1.2853  0.1570 -0.8682
12363TIP3    H258505   5.448   1.328   2.762 -0.7068 -0.7487 -0.3679
12364TIP3   OH258506   0.669   4.719   3.971  0.0864  0.1666 -0.0687
12364TIP3    H158507   0.658   4.644   3.913 -0.5062  1.6578 -1.9419
12364TIP3    H258508   0.756   4.754   3.948  0.3183  0.1098  0.7235
12365TIP3   OH258509   5.051   3.941   6.546 -0.0548  0.1287 -0.3009
12365TIP3    H158510   4.997   4.019   6.545 -2.1094 -1.2551 -0.1716
12365TIP3    H258511   5.058   3.918   6.639 -1.6762 -1.2851 -0.4876
12366TIP3   OH258512   2.835   3.406  11.173 -0.5958  0.5447 -0.2341
12366TIP3    H158513   2.893   3.336  11.141  0.6940  1.7135 -0.5021
12366TIP3    H258514   2.788   3.435  11.094  0.5490  1.5280 -0.5697
12367TIP3   OH258515   1.747   5.922   2.200 -0.3378 -0.6474  0.0021
12367TIP3    H158516   1.669   5.912   2.254  0.0909  1.1108  0.9553
12367TIP3    H258517   1.729   5.997   2.144  0.9192  0.2136  0.7143
12368TIP3   OH258518   6.471   2.853   1.262 -0.7884 -0.3688  0.3919
12368TIP3    H158519   6.544   2.902   1.225 -0.4857 -0.7603  0.4754
12368TIP3    H258520   6.400   2.918   1.269  0.0512  0.4265  1.8513
12369TIP3   OH258521   6.375   2.585  14.192 -0.6000  0.3113  0.0734
12369TIP3    H158522   6.379   2.667  14.242  2.1264 -0.7919  1.7916
12369TIP3    H258523   6.433   2.600  14.117 -1.1687  0.4172 -0.3456
12370TIP3   OH258524   0.443   4.803   3.664 -0.4045  0.2302  0.0600
12370TIP3    H158525   0.520   4.856   3.645  1.1947 -1.2249  2.1598
12370TIP3    H258526   0.455   4.724   3.612 -0.0632 -0.3275  0.9709
12371TIP3   OH258527   2.647   3.366  12.880  0.0807  0.0385  0.1925
12371TIP3    H158528   2.647   3.335  12.789 -0.6186 -2.0895  0.8977
12371TIP3    H258529   2.727   3.418  12.888  1.6327 -2.1436 -0.8395
12372TIP3   OH258530   4.488   3.157  13.064 -0.2909 -0.1808 -0.0590
12372TIP3    H158531   4.491   3.147  13.159  1.6896  1.0992  0.0395
12372TIP3    H258532   4.435   3.235  13.050  2.9992  2.2348  0.2636
12373TIP3   OH258533   6.514   2.700  13.386 -0.5522 -0.6803  0.4080
12373TIP3    H158534   6.451   2.764  13.420 -0.3264 -0.0342 -0.3742
12373TIP3    H258535   6.483   2.616  13.421 -0.8681 -0.1601  1.4281
12374TIP3   OH258536   0.733   0.346  11.496 -0.0321 -0.5361  0.3239
12374TIP3    H158537   0.643   0.377  11.503 -0.1013 -0.8136  0.6447
12374TIP3    H258538   0.757   0.361  11.404  0.1399  1.0576  0.6028
12375TIP3   OH258539   1.064   4.072   5.299  0.2552  0.5506 -0.3143
12375TIP3    H158540   1.081   4.166   5.301 -0.9400  0.7669  0.8358
12375TIP3    H258541   0.988   4.061   5.356  1.1640 -1.2720  0.5758
12376TIP3   OH258542   1.206   1.329  16.419 -0.1542 -0.0471 -0.4832
12376TIP3    H158543   1.261   1.385  16.474 -1.1624  0.2242  0.2517
12376TIP3    H258544   1.264   1.256  16.394  0.6536  0.4370 -0.0427
12377TIP3   OH258545   0.249   3.799   0.202  0.2347 -0.3413 -0.2407
12377TIP3    H158546   0.181   3.742   0.165 -1.2363  0.6095  0.9261
12377TIP3    H258547   0.201   3.871   0.241  2.0176  1.1061 -0.6399
12378TIP3   OH258548   5.193   0.511  12.498 -0.2918  0.4806 -0.5131
12378TIP3    H158549   5.271   0.535  12.547 -0.5773  0.4917 -0.0606
12378TIP3    H258550   5.139   0.590  12.499 -0.5538  0.2994 -0.3443
12379TIP3   OH258551   2.115   2.271  15.391  0.0151 -0.0368  0.5430
12379TIP3    H158552   2.049   2.323  15.438 -1.3528 -0.9417 -0.3323
12379TIP3    H258553   2.069   2.190  15.370  1.6803 -0.9986  0.6045
12380TIP3   OH258554   6.460   2.379   4.894 -0.7192  0.5583  0.2671
12380TIP3    H158555   6.501   2.461   4.920 -0.0864  0.2985  0.0794
12380TIP3    H258556   6.418   2.347   4.975  0.9347 -0.0656  0.8838
12381TIP3   OH258557   4.691   1.551   1.754  0.8715  0.0468  0.0223
12381TIP3    H158558   4.736   1.484   1.703  0.0411  0.7135 -1.6079
12381TIP3    H258559   4.762   1.602   1.794  1.5332 -0.3712 -0.6072
12382TIP3   OH258560   5.703   5.089   3.610  0.2009  0.3383  0.2600
12382TIP3    H158561   5.643   5.015   3.597  0.2399 -0.1799  2.6468
12382TIP3    H258562   5.666   5.160   3.558 -0.3919 -1.0601 -1.2737
12383TIP3   OH258563   6.160   1.930   1.194  0.5172 -0.3619 -0.3979
12383TIP3    H158564   6.200   1.849   1.224  2.1535 -0.0327 -1.5593
12383TIP3    H258565   6.172   1.929   1.099  0.7464  1.3087 -0.4151
12384TIP3   OH258566   5.266   2.383   0.320 -0.0724  0.0281 -0.8938
12384TIP3    H158567   5.306   2.324   0.383 -0.3006  1.3866  0.5628
12384TIP3    H258568   5.222   2.326   0.258  1.7607 -1.4014 -0.9246
12385TIP3   OH258569   2.953   6.434  10.692  0.1046  0.2284  0.2116
12385TIP3    H158570   2.892   6.415  10.763  0.4898 -1.3377  0.1343
12385TIP3    H258571   3.040   6.426  10.731  0.3712 -2.4770 -0.8337
12386TIP3   OH258572   4.338   0.776   3.947  0.1630 -0.1878 -0.6101
12386TIP3    H158573   4.413   0.783   3.888  0.0486  0.1631 -0.7128
12386TIP3    H258574   4.262   0.784   3.890  0.0472 -0.5345 -0.5046
12387TIP3   OH258575   6.732   1.663   1.466 -0.8321  0.0484 -0.1989
12387TIP3    H158576   6.762   1.752   1.447 -1.8010  0.3189 -0.4651
12387TIP3    H258577   6.720   1.662   1.561  0.0477 -0.0778 -0.0794
12388TIP3   OH258578   1.556   6.777   3.487 -0.5555 -0.3928  0.1924
12388TIP3    H158579   1.630   6.734   3.444 -0.9661 -1.1985  0.2840
12388TIP3    H258580   1.502   6.705   3.520 -0.4286  0.2178  1.7433
12389TIP3   OH258581   1.384   6.410   3.642 -0.7882 -0.5882  0.0298
12389TIP3    H158582   1.308   6.381   3.592  0.1593  0.9049 -2.3810
12389TIP3    H258583   1.359   6.496   3.676 -0.0954  0.0365 -1.0163
12390TIP3   OH258584   0.778   3.445  14.119 -0.9180  0.1761  0.0889
12390TIP3    H158585   0.853   3.501  14.137 -0.9183  0.2953 -0.2642
12390TIP3    H258586   0.783   3.428  14.025 -0.4263 -1.1316  0.3326
12391TIP3   OH258587   5.621   1.134   1.586  0.0372 -0.4736  0.6669
12391TIP3    H158588   5.706   1.098   1.559 -0.5319 -0.0690 -1.8383
12391TIP3    H258589   5.571   1.058   1.615  1.0035 -0.8142  1.4721
12392TIP3   OH258590   5.586   6.266   5.502  0.2516  0.1074  0.2701
12392TIP3    H158591   5.631   6.343   5.466 -0.3189  0.5017  0.3934
12392TIP3    H258592   5.610   6.265   5.594  1.3305 -0.6290 -0.0100
12393TIP3   OH258593   0.453   6.094   0.135  0.1549  0.4806  0.3538
12393TIP3    H158594   0.496   6.010   0.155  2.7124  1.6309 -0.0392
12393TIP3    H258595   0.445   6.095   0.040 -2.4899 -0.5059  0.5294
12394TIP3   OH258596   2.617   2.697  13.630  0.2174  0.0764 -0.3977
12394TIP3    H158597   2.578   2.782  13.608 -1.5190 -0.6990 -0.4511
12394TIP3    H258598   2.615   2.694  13.725 -0.7115 -0.3400 -0.4273
12395TIP3   OH258599   2.260   4.333  17.208 -0.0392 -0.2993  0.2171
12395TIP3    H158600   2.347   4.352  17.172 -0.6094  2.5200  0.1497
12395TIP3    H258601   2.271   4.346  17.302 -0.2997 -0.2817  0.2415
12396TIP3   OH258602   2.230   4.375  11.865  0.3652 -0.3120  0.2905
12396TIP3    H158603   2.302   4.351  11.924 -1.4089 -3.1201  1.4198
12396TIP3    H258604   2.267   4.363  11.777  1.1884 -2.1750  0.8517
12397TIP3   OH258605   3.332   2.359  15.173 -0.0335 -0.0589 -0.0629
12397TIP3    H158606   3.325   2.422  15.101 -0.9062  0.0673  0.1315
12397TIP3    H258607   3.247   2.363  15.217  0.3563 -0.4294  0.7355
12398TIP3   OH258608   5.336   3.119  15.653  0.2056 -0.1134  0.0239
12398TIP3    H158609   5.342   3.035  15.699 -1.0233  0.2423  0.8742
12398TIP3    H258610   5.383   3.181  15.709  0.9584 -0.1926 -0.5134
12399TIP3   OH258611   5.463   5.704  11.002  0.0716  0.0329  0.4429
12399TIP3    H158612   5.533   5.699  10.937  1.8375  0.4662  2.2348
12399TIP3    H258613   5.408   5.777  10.973  1.2344  0.6783 -0.1760
12400TIP3   OH258614   6.011   3.536  14.345 -0.7791  0.2941  0.6267
12400TIP3    H158615   5.966   3.588  14.411 -1.6072 -1.1158  1.2011
12400TIP3    H258616   6.047   3.462  14.393 -1.9622 -1.0901 -0.5957
12401TIP3   OH258617   5.684   0.255   0.075  0.6393 -0.0307  0.2793
12401TIP3    H158618   5.704   0.339   0.034  1.3135  0.1046  0.8781
12401TIP3    H258619   5.766   0.206   0.071  0.3218 -0.5636  0.1703
12402TIP3   OH258620   3.574   5.851   0.796 -0.6434 -0.0012 -0.5733
12402TIP3    H158621   3.601   5.942   0.810  1.1794 -0.7930  1.6126
12402TIP3    H258622   3.586   5.836   0.703 -1.4542  2.1367 -1.0449
12403TIP3   OH258623   5.370   4.402   1.507  0.1714 -0.2434  0.2221
12403TIP3    H158624   5.323   4.466   1.455 -0.8665 -0.6710  0.6242
12403TIP3    H258625   5.345   4.317   1.470  0.7470 -0.4740  0.3428
12404TIP3   OH258626   3.633   3.434  13.131 -0.0172  0.5211  0.0567
12404TIP3    H158627   3.686   3.438  13.210 -2.5852  2.3486  1.7859
12404TIP3    H258628   3.671   3.501  13.074  1.5763 -0.4991 -0.1035
12405TIP3   OH258629   2.568   4.552  11.679 -0.0730 -0.1899  0.0215
12405TIP3    H158630   2.483   4.516  11.657  0.5864 -0.8016 -1.6034
12405TIP3    H258631   2.607   4.486  11.737 -0.8632  0.3017  1.1297
12406TIP3   OH258632   0.669   3.927   6.395  0.0990 -0.0487 -0.0189
12406TIP3    H158633   0.649   3.888   6.310 -1.0281  0.5902 -0.0455
12406TIP3    H258634   0.630   3.868   6.459 -0.8875  0.5793 -0.0295
12407TIP3   OH258635   3.382   3.750   0.031 -0.6970 -0.2869 -0.0976
12407TIP3    H158636   3.313   3.806  -0.005 -0.4967  0.9916  1.4372
12407TIP3    H258637   3.335   3.685   0.083 -0.8168 -0.0865  0.0474
12408TIP3   OH258638   4.205   4.169   6.582  0.2217 -0.3243 -0.7261
12408TIP3    H158639   4.156   4.232   6.530 -0.3032 -0.6163 -0.5883
12408TIP3    H258640   4.138   4.111   6.619  0.6992 -0.9957 -0.9008
12409TIP3   OH258641   1.492   5.322  11.413 -0.3944  0.4260 -0.1898
12409TIP3    H158642   1.529   5.300  11.328  1.5389  0.7083  0.5413
12409TIP3    H258643   1.461   5.238  11.448  1.5623 -0.2208  0.0782
12410TIP3   OH258644   5.987   1.824  13.516  0.1505 -0.2845  0.0016
12410TIP3    H158645   5.932   1.746  13.523 -1.6936  0.8863 -1.0732
12410TIP3    H258646   5.940   1.882  13.456  0.6021  2.3753  2.0726
12411TIP3   OH258647   2.448   4.237   4.462 -0.0838  0.3136  0.2993
12411TIP3    H158648   2.503   4.232   4.384 -0.3656  0.7385  0.0722
12411TIP3    H258649   2.419   4.146   4.476 -0.4374  0.3148 -0.3857
12412TIP3   OH258650   5.302   1.748  12.055 -0.0569 -0.3046  0.9572
12412TIP3    H158651   5.209   1.743  12.030 -0.3368 -0.9755  2.0817
12412TIP3    H258652   5.308   1.829  12.106  0.0759 -0.0426  0.5335
12413TIP3   OH258653   2.768   0.598  14.039 -0.3761 -0.2588  0.7852
12413TIP3    H158654   2.847   0.618  13.989 -0.3462  1.7170  1.5975
12413TIP3    H258655   2.706   0.565  13.974  0.1980  0.7760 -0.3063
12414TIP3   OH258656   3.613   2.410  13.465  0.5025 -0.3169  0.4936
12414TIP3    H158657   3.594   2.343  13.400 -1.4714  0.6526  0.0448
12414TIP3    H258658   3.533   2.462  13.471  1.1498  0.5106  2.6292
12415TIP3   OH258659   1.067   5.638   3.610  0.1331 -0.8119  0.0007
12415TIP3    H158660   0.979   5.672   3.630  0.4979 -0.3749  0.8794
12415TIP3    H258661   1.124   5.682   3.672  1.2552  0.3364 -1.8268
12416TIP3   OH258662   6.103   0.819  15.214  0.6905  0.0841  0.3870
12416TIP3    H158663   6.144   0.842  15.131  1.9536  0.6986  1.1518
12416TIP3    H258664   6.055   0.898  15.240  0.5215 -0.0123  0.3639
12417TIP3   OH258665   0.970   3.370   2.749 -0.0851 -0.1017  0.3067
12417TIP3    H158666   0.878   3.347   2.748 -0.5975  1.8606  0.1231
12417TIP3    H258667   0.981   3.432   2.677  1.2554  0.1206  0.6728
12418TIP3   OH258668   1.295   1.014  16.719 -0.0128  0.3548 -0.0901
12418TIP3    H158669   1.366   0.969  16.764 -1.1589  0.1370  1.5252
12418TIP3    H258670   1.339   1.072  16.657  1.5247 -1.2490 -0.5515
12419TIP3   OH258671   5.978   0.364  13.227  0.6703 -0.6827 -0.4518
12419TIP3    H158672   5.997   0.385  13.136 -2.8848  0.0693 -1.1238
12419TIP3    H258673   5.889   0.328  13.224  0.3119 -0.1627  2.7901
12420TIP3   OH258674   0.146   3.933   3.292  0.2248 -0.6483 -0.1235
12420TIP3    H158675   0.074   3.952   3.232  0.4430  0.0776 -0.1568
12420TIP3    H258676   0.170   3.842   3.273 -0.2263 -0.6708 -0.5833
12421TIP3   OH258677   0.749   5.874  14.648  0.0812  0.4464  0.3556
12421TIP3    H158678   0.743   5.862  14.743  0.9096  2.9600  0.7765
12421TIP3    H258679   0.666   5.916  14.624  0.0978  0.3012  0.0448
12422TIP3   OH258680   2.519   1.869   2.419 -0.2226 -0.4522  0.0786
12422TIP3    H158681   2.562   1.851   2.335 -0.9807 -0.8570 -0.2232
12422TIP3    H258682   2.590   1.867   2.483  0.0518 -2.1022 -0.2735
12423TIP3   OH258683   6.004   6.647  15.668  0.1250 -0.0560 -0.3576
12423TIP3    H158684   5.966   6.663  15.581 -0.8809  0.8387  0.2254
12423TIP3    H258685   6.082   6.702  15.671  0.5491 -0.6200 -0.9500
12424TIP3   OH258686   3.790   0.250   2.740  0.6814  0.0704 -0.4359
12424TIP3    H158687   3.803   0.157   2.758 -1.1470 -0.3433 -1.0810
12424TIP3    H258688   3.806   0.258   2.646 -4.1115 -0.6396 -1.4648
12425TIP3   OH258689   0.626   4.404   4.571 -0.2122  0.5374 -0.4281
12425TIP3    H158690   0.655   4.403   4.663  0.3661 -2.1574 -0.5832
12425TIP3    H258691   0.534   4.431   4.575 -0.0634  0.8755  0.9221
12426TIP3   OH258692   2.096   4.696  15.493  0.6090  0.0358  0.6121
12426TIP3    H158693   2.070   4.773  15.543 -1.5458  0.1812 -0.6483
12426TIP3    H258694   2.048   4.624  15.533  1.4890 -0.4072  0.8745
12427TIP3   OH258695   3.700   4.064  15.863 -0.3773  0.1876  0.3579
12427TIP3    H158696   3.632   4.089  15.800  1.1882  2.3417 -0.5314
12427TIP3    H258697   3.657   3.999  15.919 -2.9670  1.0069 -0.5711
12428TIP3   OH258698   4.543   4.120   2.355  0.6390 -0.0174 -0.2933
12428TIP3    H158699   4.504   4.182   2.417 -0.7898  0.0675 -1.2859
12428TIP3    H258700   4.471   4.092   2.300  1.7497 -0.7712 -1.3732
12429TIP3   OH258701   5.963   2.664   4.035 -0.0210  0.4830  0.2031
12429TIP3    H158702   6.013   2.707   3.966  1.6971  0.6429  1.5387
12429TIP3    H258703   6.006   2.690   4.116 -0.1695 -2.1439  1.1585
12430TIP3   OH258704   2.548   1.278  15.550 -0.1380  0.4120  0.1572
12430TIP3    H158705   2.569   1.262  15.642  0.5121  1.4770  0.2024
12430TIP3    H258706   2.569   1.196  15.505  2.4702  0.8739  0.4893
12431TIP3   OH258707   1.002   0.338   1.192  0.3940 -0.0847 -0.4226
12431TIP3    H158708   0.953   0.258   1.209 -0.7340  0.1612 -2.2753
12431TIP3    H258709   0.971   0.366   1.106  0.1109  2.8328  0.5895
12432TIP3   OH258710   1.676   4.631   6.335 -0.0501  0.0486  0.5893
12432TIP3    H158711   1.586   4.635   6.366 -0.3750  1.2326 -0.4639
12432TIP3    H258712   1.677   4.687   6.257  2.2739  2.3886  2.2102
12433TIP3   OH258713   1.770   0.470   4.621  0.0123  0.4866  0.1371
12433TIP3    H158714   1.702   0.517   4.669 -0.9536 -0.1899 -0.5535
12433TIP3    H258715   1.825   0.539   4.583 -0.2067  1.0285  0.7851
12434TIP3   OH258716   5.162   2.511   4.343 -0.2266  0.1353  0.3897
12434TIP3    H158717   5.072   2.544   4.346 -0.8503 -1.4216 -0.7611
12434TIP3    H258718   5.190   2.526   4.253  0.4935  0.1411  0.6124
12435TIP3   OH258719   5.395   1.987   1.037 -0.3994  0.5569 -0.1999
12435TIP3    H158720   5.470   2.009   1.091  0.0964 -1.1895 -0.1531
12435TIP3    H258721   5.323   1.975   1.099  0.2950 -1.9965  0.1734
12436TIP3   OH258722   1.193   5.888  11.258  0.3488 -0.0808  0.2785
12436TIP3    H158723   1.100   5.909  11.263  0.8138  1.7077  2.6721
12436TIP3    H258724   1.220   5.877  11.350  2.4843 -0.5433 -0.3810
12437TIP3   OH258725   0.576   5.235  10.805  0.3625  0.3637 -0.4413
12437TIP3    H158726   0.502   5.292  10.823  0.8340  0.5335  1.0587
12437TIP3    H258727   0.542   5.146  10.816  0.3406  0.4397  0.1699
12438TIP3   OH258728   5.841   5.972  15.479 -0.2201  0.4980  0.3961
12438TIP3    H158729   5.791   5.892  15.496 -0.1389 -0.1847 -2.3858
12438TIP3    H258730   5.805   6.005  15.397  2.2631  1.3028 -0.4144
12439TIP3   OH258731   2.359   3.493  12.464 -0.5324  0.1851 -0.4998
12439TIP3    H158732   2.379   3.520  12.375 -1.7529 -1.0194 -1.1719
12439TIP3    H258733   2.398   3.405  12.472  0.9167  0.9167  0.6827
12440TIP3   OH258734   0.295   1.402   2.884  0.3333 -0.1498  0.1700
12440TIP3    H158735   0.233   1.467   2.853  1.6856  0.4040 -1.4090
12440TIP3    H258736   0.264   1.379   2.972 -0.8732  1.6652  0.2304
12441TIP3   OH258737   3.765   1.277  12.009 -0.5056 -0.2924  0.2496
12441TIP3    H158738   3.710   1.199  12.013 -0.2767 -0.3325  3.5431
12441TIP3    H258739   3.807   1.272  11.923 -3.7677 -1.5097 -1.3400
12442TIP3   OH258740   3.058   0.589  16.819 -0.5127 -0.2855 -0.4985
12442TIP3    H158741   3.004   0.526  16.770  3.8112 -3.1088 -1.9030
12442TIP3    H258742   3.048   0.563  16.910 -1.5593 -0.7544 -0.7344
12443TIP3   OH258743   4.021   4.890   1.523 -0.0223  0.0989  0.1200
12443TIP3    H158744   3.970   4.912   1.601  1.1441  0.2076  0.8787
12443TIP3    H258745   4.071   4.970   1.505  2.0873 -0.9416  1.1768
12444TIP3   OH258746   6.211   5.113  10.488 -0.2433 -0.1037  0.3244
12444TIP3    H158747   6.210   5.025  10.527  1.0760 -1.1422 -1.8909
12444TIP3    H258748   6.302   5.141  10.493 -1.0120  2.1111  2.9995
12445TIP3   OH258749   2.467   0.026  11.404  0.0157  0.5600 -0.3403
12445TIP3    H158750   2.395  -0.037  11.398 -1.0164  1.7080 -0.1569
12445TIP3    H258751   2.479   0.039  11.498  0.0479  0.8266 -0.3799
12446TIP3   OH258752   5.717   2.859   3.702 -0.3745 -0.2122  0.0803
12446TIP3    H158753   5.728   2.831   3.611 -0.8732 -1.4831  0.3976
12446TIP3    H258754   5.700   2.777   3.750 -0.8815  0.5383  1.1932
12447TIP3   OH258755   1.649   1.823  16.046  0.0161  0.6192  0.3231
12447TIP3    H158756   1.562   1.819  16.006 -0.0939  0.2246  0.5977
12447TIP3    H258757   1.696   1.889  15.996 -0.8468  1.7362  0.9558
12448TIP3   OH258758   2.538   4.438   6.042  0.3765  0.1874 -0.3663
12448TIP3    H158759   2.446   4.417   6.025  0.4933  0.4338 -1.3118
12448TIP3    H258760   2.537   4.531   6.064  0.3516  0.0964  0.0213
12449TIP3   OH258761   1.152   4.030  13.740 -0.2750 -0.3398 -0.1618
12449TIP3    H158762   1.075   3.976  13.720  0.4415 -1.6926  0.6623
12449TIP3    H258763   1.226   3.970  13.736  0.8591  1.1212 -1.7273
12450TIP3   OH258764   4.480   0.187  11.123  0.2169  0.3907  0.4593
12450TIP3    H158765   4.571   0.203  11.098 -0.2430  0.0642 -1.4700
12450TIP3    H258766   4.485   0.112  11.183  0.9647 -1.7443 -2.1685
12451TIP3   OH258767   0.428   4.828  13.267  0.1496  0.6810 -0.3496
12451TIP3    H158768   0.372   4.754  13.292  0.7268  0.3499 -0.0230
12451TIP3    H258769   0.502   4.823  13.328  0.5058  1.1509 -0.7443
12452TIP3   OH258770   2.067   0.337  11.109 -0.0396  0.3276  0.0572
12452TIP3    H158771   2.154   0.302  11.090  0.3353  0.7502  0.9714
12452TIP3    H258772   2.036   0.286  11.184 -0.2852  0.6648  0.1869
12453TIP3   OH258773   2.610   3.561  14.991 -0.2042 -0.4072 -0.3473
12453TIP3    H158774   2.633   3.653  14.981 -0.3837 -0.3891 -0.5937
12453TIP3    H258775   2.655   3.534  15.071 -0.1735 -0.0998 -0.2596
12454TIP3   OH258776   6.595   1.060  11.225 -0.4579 -0.1335 -0.5019
12454TIP3    H158777   6.614   1.058  11.319 -0.9833 -0.8040 -0.4146
12454TIP3    H258778   6.673   1.102  11.187 -0.6734  1.0623  0.3342
12455TIP3   OH258779   1.964   2.644  15.315  0.5856 -0.1686 -0.1948
12455TIP3    H158780   2.037   2.632  15.376  1.3632  2.8066 -0.4202
12455TIP3    H258781   2.005   2.637  15.229  0.5017  0.7464 -0.3200
12456TIP3   OH258782   2.541   0.577   2.818 -0.5828  0.1604 -0.2378
12456TIP3    H158783   2.585   0.495   2.795  0.0104 -0.0290  1.5084
12456TIP3    H258784   2.589   0.645   2.771 -0.4676 -0.3935 -0.9202
12457TIP3   OH258785   5.871   5.393  14.300  0.4367 -0.3474  0.3030
12457TIP3    H158786   5.794   5.448  14.317 -1.0597 -1.8380 -1.3746
12457TIP3    H258787   5.944   5.455  14.294 -0.8081  1.2098  0.8492
12458TIP3   OH258788   6.535   0.523  11.742  0.1190 -0.3974  0.0240
12458TIP3    H158789   6.608   0.584  11.745  0.0966 -0.1774 -2.6696
12458TIP3    H258790   6.563   0.454  11.681 -2.2393  0.1996 -1.8455
12459TIP3   OH258791   1.366   0.394  11.055 -0.3401  0.6803 -0.3492
12459TIP3    H158792   1.293   0.453  11.074 -0.3450  1.2309 -2.0539
12459TIP3    H258793   1.333   0.334  10.988 -0.5794 -1.7717  1.8722
12460TIP3   OH258794   6.367   1.482   5.857 -0.1168 -0.3875 -0.9881
12460TIP3    H158795   6.383   1.568   5.820 -4.2484  1.2260  0.7188
12460TIP3    H258796   6.421   1.479   5.936  0.2273  0.5166 -1.1902
12461TIP3   OH258797   2.611   3.135   0.015  0.1215  0.1681  0.3506
12461TIP3    H158798   2.586   3.117  -0.075 -0.8365  1.8344  0.2529
12461TIP3    H258799   2.674   3.207   0.009 -1.2938  1.4916  1.1049
12462TIP3   OH258800   0.488   1.601  15.175  0.2040 -0.1332  0.0090
12462TIP3    H158801   0.535   1.626  15.254 -1.7843  1.1328  0.8466
12462TIP3    H258802   0.526   1.654  15.106  1.5004 -0.7531  0.2463
12463TIP3   OH258803   5.810   3.364   4.946 -0.4040  0.3586  0.2744
12463TIP3    H158804   5.725   3.383   4.909 -0.0336  1.0748 -0.2001
12463TIP3    H258805   5.858   3.319   4.876 -0.4403 -0.1691  0.5856
12464TIP3   OH258806   1.256   1.634  15.192 -0.3408  0.8961  0.0734
12464TIP3    H158807   1.302   1.611  15.272  2.0815  1.5363 -1.0874
12464TIP3    H258808   1.236   1.727  15.202 -0.8656  0.7559  0.3299
12465TIP3   OH258809   4.740   0.035  11.551  0.6916 -0.6743  0.4892
12465TIP3    H158810   4.778  -0.039  11.598 -1.0672 -1.2867  1.0010
12465TIP3    H258811   4.691  -0.006  11.479 -0.5200 -0.0405  0.9402
12466TIP3   OH258812   4.374   1.129  13.823 -0.1047 -0.3371 -0.6312
12466TIP3    H158813   4.308   1.071  13.860 -1.3322  2.1362  1.2003
12466TIP3    H258814   4.326   1.207  13.797  1.8288  0.8054 -0.9052
12467TIP3   OH258815   2.823   6.648  16.550 -0.2623  0.1502  0.0119
12467TIP3    H158816   2.741   6.634  16.597 -0.9931  0.6827 -1.0766
12467TIP3    H258817   2.802   6.715  16.484  1.3277  1.1299  0.4731
12468TIP3   OH258818   2.533   4.494  15.267  0.5465 -0.6602 -0.4627
12468TIP3    H158819   2.537   4.577  15.219 -0.3082 -0.3413  0.0063
12468TIP3    H258820   2.439   4.477  15.279  0.7011 -1.7997 -0.7329
12469TIP3   OH258821   4.183   0.116  12.415 -0.4962  0.6609  0.6953
12469TIP3    H158822   4.114   0.078  12.361 -0.2214  0.5251  0.4350
12469TIP3    H258823   4.141   0.135  12.499 -1.0780  1.4676  0.2143
12470TIP3   OH258824   5.509   0.776   3.253  0.1234 -0.2652  0.6941
12470TIP3    H158825   5.437   0.832   3.283  1.2776  2.3463 -1.2826
12470TIP3    H258826   5.465   0.706   3.205 -1.1324  1.2710 -0.4633
12471TIP3   OH258827   1.781   1.980  15.849  0.0916  0.3548 -0.1489
12471TIP3    H158828   1.855   2.009  15.903  0.9308  0.4033 -1.3057
12471TIP3    H258829   1.821   1.953  15.766 -1.2220  0.6405 -0.8922
12472TIP3   OH258830   6.774   6.690  13.796  0.1832 -0.4175 -0.2352
12472TIP3    H158831   6.848   6.628  13.795 -1.1378 -2.0220 -1.2762
12472TIP3    H258832   6.777   6.731  13.710  0.6112  0.4551  0.1884
12473TIP3   OH258833   4.075   6.044  12.149  0.4010 -0.3822 -0.6071
12473TIP3    H158834   4.073   6.051  12.053 -0.2936  1.5578 -0.4786
12473TIP3    H258835   4.000   6.096  12.178  0.0320 -1.7457  0.9705
12474TIP3   OH258836   2.027   5.263   5.031  0.0842 -0.0374  0.1229
12474TIP3    H158837   2.014   5.356   5.049  2.1052  0.2146  0.4002
12474TIP3    H258838   1.977   5.246   4.950 -1.1675  1.0171  0.6654
12475TIP3   OH258839   2.095   4.973  12.851 -0.5175 -0.4295 -0.2747
12475TIP3    H158840   2.112   5.056  12.897 -0.6314  0.3708 -1.6533
12475TIP3    H258841   2.002   4.957  12.866 -0.1245 -1.2079  1.4315
12476TIP3   OH258842   3.177   0.278  12.231 -0.4263 -0.0849 -0.0149
12476TIP3    H158843   3.164   0.195  12.277  0.9646 -0.2566  0.0781
12476TIP3    H258844   3.159   0.256  12.139 -0.4585 -0.3900  0.0618
12477TIP3   OH258845   0.383   1.136   1.328 -0.2062 -0.4444 -0.3639
12477TIP3    H158846   0.328   1.158   1.253  0.0601 -0.9238 -0.7043
12477TIP3    H258847   0.365   1.204   1.392 -1.5934 -0.9025 -0.2686
12478TIP3   OH258848   3.302   5.949  16.861 -0.5798  0.1382 -0.2872
12478TIP3    H158849   3.359   6.025  16.876 -0.6418  0.4520 -1.6112
12478TIP3    H258850   3.286   5.914  16.949  0.4458  0.9283  0.2258
12479TIP3   OH258851   6.543   5.376   2.665 -0.6685  0.5544  0.0371
12479TIP3    H158852   6.452   5.349   2.677  0.0123 -1.9122 -0.1535
12479TIP3    H258853   6.560   5.435   2.739 -2.5862  1.5341 -0.2795
12480TIP3   OH258854   3.564   5.507   3.083  0.2110  0.0682  0.4139
12480TIP3    H158855   3.538   5.514   3.175 -0.9386  2.7684 -0.0836
12480TIP3    H258856   3.644   5.560   3.076 -0.2368  0.6541 -0.3392
12481TIP3   OH258857   0.195   2.480   0.784  0.1920  0.0967 -0.0109
12481TIP3    H158858   0.227   2.450   0.699  0.3889  1.6774 -0.5160
12481TIP3    H258859   0.219   2.411   0.845 -1.2065 -1.7291 -1.4637
12482TIP3   OH258860   5.364   2.634  17.068 -0.5729  0.4158  0.7422
12482TIP3    H158861   5.459   2.619  17.065 -0.1140  3.1617 -0.1866
12482TIP3    H258862   5.344   2.635  17.162  0.1966 -0.8175  0.9336
12483TIP3   OH258863   5.127   2.588   1.728 -0.2805 -0.1668  0.0866
12483TIP3    H158864   5.079   2.664   1.761 -1.7223 -0.7582 -0.5732
12483TIP3    H258865   5.136   2.605   1.634 -1.0378 -1.0196 -0.1468
12484TIP3   OH258866   4.026   2.790  15.056 -0.0899  0.2322  0.6080
12484TIP3    H158867   4.045   2.859  15.120  0.7784 -0.2056  0.8261
12484TIP3    H258868   4.104   2.785  15.001 -0.2336 -0.4222  0.4535
12485TIP3   OH258869   3.264   2.949   4.585 -0.6132  0.0498  0.2149
12485TIP3    H158870   3.260   3.029   4.532  1.5903  0.2369  0.2818
12485TIP3    H258871   3.192   2.958   4.648 -0.8031  1.6607 -0.2118
12486TIP3   OH258872   2.010   4.289   3.856  0.5227 -0.5126  0.0734
12486TIP3    H158873   1.950   4.335   3.914 -0.6438  0.2945 -1.7433
12486TIP3    H258874   2.009   4.199   3.887 -1.8355 -0.5729 -0.0871
12487TIP3   OH258875   1.825   3.634  14.540 -0.4880 -0.2706  0.5842
12487TIP3    H158876   1.751   3.636  14.600 -1.0842 -0.5934 -0.1424
12487TIP3    H258877   1.838   3.725  14.515 -0.0547 -0.0961  1.4168
12488TIP3   OH258878   4.998   0.933   6.252 -0.1249 -0.4536 -0.2043
12488TIP3    H158879   4.942   1.005   6.224  1.0980  1.0489  1.0917
12488TIP3    H258880   4.937   0.866   6.283 -1.2638  0.4546 -0.4353
12489TIP3   OH258881   0.296   2.931  15.596 -0.4854 -0.1833  0.1861
12489TIP3    H158882   0.224   2.984  15.564 -0.6139  0.2750  1.2207
12489TIP3    H258883   0.296   2.854  15.539 -2.1438 -0.4526  0.5137
12490TIP3   OH258884   1.573   1.164   1.056 -0.0286  0.0236 -0.0144
12490TIP3    H158885   1.504   1.128   1.000 -0.8807  3.0153 -0.9733
12490TIP3    H258886   1.631   1.211   0.996  0.4099  1.2053  1.3036
12491TIP3   OH258887   1.673   2.910   3.144  0.4608  0.1046 -0.7215
12491TIP3    H158888   1.697   2.977   3.208 -0.6578 -0.3971  0.2286
12491TIP3    H258889   1.579   2.898   3.156  0.7345 -1.9722 -0.5734
12492TIP3   OH258890   5.753   4.869   4.815 -0.0829  0.0278  0.3353
12492TIP3    H158891   5.662   4.861   4.845 -0.6502 -0.3733 -1.3815
12492TIP3    H258892   5.745   4.895   4.723  1.5544  0.6164  0.3465
12493TIP3   OH258893   4.447   6.223  12.148  0.3429  0.6798 -0.0761
12493TIP3    H158894   4.382   6.233  12.078 -0.2817 -1.3349  0.1814
12493TIP3    H258895   4.505   6.154  12.117  1.1476  1.0461  0.6071
12494TIP3   OH258896   6.571   2.399   1.193  0.4676  0.7578  0.1196
12494TIP3    H158897   6.660   2.381   1.161  0.8762  2.2816  0.3863
12494TIP3    H258898   6.532   2.455   1.126 -0.1180  0.5270  0.2628
12495TIP3   OH258899   6.304   0.871   5.492 -0.5376  0.0422 -0.1981
12495TIP3    H158900   6.252   0.875   5.412  1.0662  0.2274 -1.2458
12495TIP3    H258901   6.371   0.806   5.474 -0.7430 -0.6103  1.3576
12496TIP3   OH258902   5.464   5.436  12.745  0.3420 -0.0380  0.2792
12496TIP3    H158903   5.450   5.462  12.836  2.0057  0.6818  0.3486
12496TIP3    H258904   5.528   5.365  12.750 -1.9306 -2.1985 -0.1308
12497TIP3   OH258905   6.117   6.559   3.447 -0.1803  0.3309 -0.5686
12497TIP3    H158906   6.192   6.532   3.394  0.1374  1.4603 -0.7100
12497TIP3    H258907   6.042   6.517   3.406  0.2143  0.2634 -1.2282
12498TIP3   OH258908   6.764   4.087  15.456  0.4732 -0.5100  0.4693
12498TIP3    H158909   6.750   4.106  15.364 -0.1324  0.6442  0.7915
12498TIP3    H258910   6.843   4.136  15.480  0.5060 -0.6324  0.6154
12499TIP3   OH258911   4.464   2.209  12.042 -0.2837 -0.1495  0.0978
12499TIP3    H158912   4.379   2.240  12.075  0.8677  2.8929  0.3318
12499TIP3    H258913   4.523   2.218  12.117  0.6462 -0.5127 -0.5844
12500TIP3   OH258914   2.093   2.741  12.585  0.2965  0.2401 -0.2384
12500TIP3    H158915   2.001   2.747  12.559  0.2807 -0.2513 -0.2919
12500TIP3    H258916   2.116   2.830  12.613  0.6481  1.0999 -3.0891
12501TIP3   OH258917   3.455   0.117   0.632  0.1592  0.2503 -0.3668
12501TIP3    H158918   3.549   0.129   0.646  0.3869 -0.1471 -1.4914
12501TIP3    H258919   3.420   0.206   0.626  0.9031  0.4197 -2.6637
12502TIP3   OH258920   4.759   0.037   4.950  0.3394  0.1781  0.2770
12502TIP3    H158921   4.751   0.000   4.862  0.0486  0.2684  0.2645
12502TIP3    H258922   4.696  -0.012   5.002 -0.7284  1.2842  0.0544
12503TIP3   OH258923   3.880   1.592   2.608 -0.5256  0.3599  0.7488
12503TIP3    H158924   3.940   1.658   2.572 -0.7940 -0.9959 -2.3457
12503TIP3    H258925   3.797   1.610   2.565 -1.0854 -0.8026  1.3397
12504TIP3   OH258926   3.829   2.989  12.034  0.2319 -1.1390  0.1299
12504TIP3    H158927   3.748   3.038  12.026 -0.0393 -1.7737 -1.1233
12504TIP3    H258928   3.828   2.955  12.123  0.8428  1.8239  1.3306
12505TIP3   OH258929   2.027   2.866   6.246  0.0338  0.0804  0.1462
12505TIP3    H158930   1.962   2.924   6.205 -0.4629 -1.3000 -1.0483
12505TIP3    H258931   2.106   2.880   6.195  1.0984  2.6802  2.3550
12506TIP3   OH258932   1.557   0.637   0.305  0.2210 -0.8555  0.4567
12506TIP3    H158933   1.537   0.589   0.385 -0.8697 -0.2836  0.5323
12506TIP3    H258934   1.480   0.625   0.250  0.2831  0.1253  0.1482
12507TIP3   OH258935   5.346   5.559   4.357  0.3821 -0.6161 -0.3349
12507TIP3    H158936   5.267   5.608   4.336  1.0407  0.4803 -0.2611
12507TIP3    H258937   5.317   5.467   4.358 -0.5572 -0.3427 -1.7573
12508TIP3   OH258938   5.365   2.204   0.503 -0.2756 -0.0091 -0.0652
12508TIP3    H158939   5.444   2.152   0.493 -0.9651 -1.1713  0.4997
12508TIP3    H258940   5.300   2.144   0.541 -1.8194  0.5653 -1.7350
12509TIP3   OH258941   4.295   0.555   4.511 -0.1577 -0.1973 -0.0667
12509TIP3    H158942   4.220   0.513   4.470  0.6406 -0.2432 -1.5108
12509TIP3    H258943   4.263   0.642   4.535 -1.1058 -0.7562  0.7223
12510TIP3   OH258944   5.225   1.249  13.977 -0.1083  0.2606 -0.2369
12510TIP3    H158945   5.263   1.238  14.064  1.6813  0.5196 -0.9672
12510TIP3    H258946   5.189   1.338  13.978  0.1566  0.3645  0.1447
12511TIP3   OH258947   6.181   0.390  13.407  0.3399  0.2434  0.6634
12511TIP3    H158948   6.256   0.382  13.349  0.5109  0.7299  0.8117
12511TIP3    H258949   6.111   0.343  13.362  1.0296 -1.1734  1.0540
12512TIP3   OH258950   0.456   5.083  13.139 -0.1786  0.4692 -0.2178
12512TIP3    H158951   0.436   4.996  13.174  0.6222  0.5562  0.4678
12512TIP3    H258952   0.414   5.143  13.200  1.1193  0.6181  0.5419
12513TIP3   OH258953   5.656   3.099   0.003 -0.6328 -0.9211  0.5681
12513TIP3    H158954   5.679   3.163   0.071 -1.6376 -0.8330  0.8283
12513TIP3    H258955   5.664   3.148  -0.079 -1.0694 -0.5597  0.7407
12514TIP3   OH258956   3.403   4.369   0.045 -0.4118  0.4451 -0.3175
12514TIP3    H158957   3.481   4.381   0.100 -1.0871 -0.5877  0.8989
12514TIP3    H258958   3.433   4.318  -0.030  0.1980  0.5326 -0.1326
12515TIP3   OH258959   1.936   1.504   3.073 -0.4019  0.4825  0.2591
12515TIP3    H158960   1.881   1.500   3.151 -1.4727 -1.4304 -0.5499
12515TIP3    H258961   1.936   1.596   3.048 -2.3127  0.6942  0.9400
12516TIP3   OH258962   0.326   4.066   5.526  0.2301  0.0755 -0.7053
12516TIP3    H158963   0.370   4.127   5.467 -0.1791 -0.4366 -1.5354
12516TIP3    H258964   0.321   4.113   5.609 -1.8177  1.9507 -1.8402
12517TIP3   OH258965   1.676   2.532  16.090  0.1733 -0.5111  0.2027
12517TIP3    H158966   1.585   2.562  16.096  0.0227 -0.7612 -0.6814
12517TIP3    H258967   1.708   2.572  16.009  1.3174  0.8012  1.2890
12518TIP3   OH258968   3.320   6.733  14.676  0.2161 -0.3382 -0.7952
12518TIP3    H158969   3.288   6.823  14.683 -0.3733 -0.4074 -2.4357
12518TIP3    H258970   3.352   6.726  14.586  1.4506 -1.3877 -0.2966
12519TIP3   OH258971   2.348   5.278   6.362  0.1263 -0.0523 -0.3833
12519TIP3    H158972   2.352   5.205   6.423 -0.7164 -0.4973 -0.8495
12519TIP3    H258973   2.421   5.264   6.302  0.5138 -0.0087  0.0742
12520TIP3   OH258974   2.264   2.015   5.004  0.3185 -0.4983 -0.0740
12520TIP3    H158975   2.291   2.100   5.036 -1.5628 -0.2684  0.9977
12520TIP3    H258976   2.335   1.987   4.945  0.8951  1.8270 -0.5316
12521TIP3   OH258977   1.726   0.765  14.554 -0.0147  0.3068 -0.0611
12521TIP3    H158978   1.722   0.802  14.642 -1.6989 -0.0753  0.0379
12521TIP3    H258979   1.736   0.671  14.568  2.1512  0.4693 -0.3073
12522TIP3   OH258980   2.759   4.181   2.441 -0.7477 -0.1366 -0.0694
12522TIP3    H158981   2.799   4.120   2.503 -0.6140  1.8932  1.8894
12522TIP3    H258982   2.822   4.186   2.369  0.1127 -0.8734  0.6132
12523TIP3   OH258983   2.058   6.044  17.237  0.6960 -0.3498 -0.1613
12523TIP3    H158984   2.119   5.973  17.258  0.6825 -0.2242  0.3091
12523TIP3    H258985   2.096   6.122  17.278  0.6305 -0.1154 -0.5440
12524TIP3   OH258986   5.452   4.902   4.403  0.2242  0.2780 -0.1828
12524TIP3    H158987   5.495   4.920   4.486  1.4752 -1.0664 -0.5397
12524TIP3    H258988   5.521   4.870   4.345 -1.5572 -3.8746 -0.1551
12525TIP3   OH258989   2.798   5.964  14.224 -0.1938 -0.3412 -0.3919
12525TIP3    H158990   2.790   6.027  14.152  0.9368  3.3468  2.5629
12525TIP3    H258991   2.721   5.908  14.215 -1.9491  2.2734 -2.3498
12526TIP3   OH258992   5.748   1.660   2.719  0.2082  0.4932 -0.6698
12526TIP3    H158993   5.793   1.626   2.796  0.4895 -1.0719 -1.5102
12526TIP3    H258994   5.777   1.751   2.713 -0.7709  1.0226  1.7814
12527TIP3   OH258995   3.492   2.567   1.604 -0.3098  0.7159 -0.0652
12527TIP3    H158996   3.458   2.488   1.562 -0.5335  0.9742 -0.3713
12527TIP3    H258997   3.468   2.557   1.696  0.6834 -0.1183  0.1180
12528TIP3   OH258998   4.676   1.791   3.736 -0.2011 -0.3779  0.1744
12528TIP3    H158999   4.689   1.700   3.761 -0.2246 -1.0457 -2.1524
12528TIP3    H259000   4.745   1.839   3.782  0.2336 -1.6575  0.8688
12529TIP3   OH259001   0.689   5.724  13.768 -0.2938  0.1030  0.4586
12529TIP3    H159002   0.662   5.813  13.791 -0.6105  0.5184 -1.4121
12529TIP3    H259003   0.772   5.735  13.722 -0.0922 -0.6186  0.6333
12530TIP3   OH259004   5.911   2.641   2.439 -0.3548 -0.5723  0.2317
12530TIP3    H159005   5.884   2.693   2.514 -1.4286 -0.7442 -0.0250
12530TIP3    H259006   5.853   2.564   2.440 -0.8005 -0.2730 -1.1103
12531TIP3   OH259007   0.965   5.379   3.194 -0.2635 -0.4856  0.2833
12531TIP3    H159008   0.917   5.433   3.257 -0.6933 -1.7960  1.1162
12531TIP3    H259009   1.057   5.405   3.205 -0.3413 -0.6648  1.4248
12532TIP3   OH259010   6.355   6.048  14.714  0.4692 -0.4513  0.4503
12532TIP3    H159011   6.274   6.002  14.738  0.5882  0.3181  2.4332
12532TIP3    H259012   6.385   6.003  14.635 -1.8891 -0.7398 -0.3184
12533TIP3   OH259013   1.918   3.278   1.045 -0.0855  0.0361  0.1644
12533TIP3    H159014   2.013   3.280   1.050  0.0409  0.3181 -1.8735
12533TIP3    H259015   1.897   3.190   1.016 -0.4622 -0.1352  0.9602
12534TIP3   OH259016   3.029   4.211   0.951 -0.5001 -0.3851 -0.3577
12534TIP3    H159017   3.070   4.132   0.988 -0.3483 -0.7202 -1.2262
12534TIP3    H259018   2.993   4.257   1.026  0.1044 -0.8913  0.2432
12535TIP3   OH259019   0.801   3.798   0.633 -0.9112  0.0002 -0.1397
12535TIP3    H159020   0.794   3.838   0.546 -0.4565 -1.7875 -1.0172
12535TIP3    H259021   0.728   3.737   0.638 -0.7559 -0.1306  0.6312
12536TIP3   OH259022   3.347   2.347   5.022  0.1877 -0.0690 -0.0879
12536TIP3    H159023   3.317   2.431   5.056 -1.4256 -0.7139  0.1303
12536TIP3    H259024   3.291   2.283   5.064  0.8053 -1.1905 -0.9456
12537TIP3   OH259025   1.611   4.499  13.401  0.0060 -0.0907 -0.3676
12537TIP3    H159026   1.562   4.420  13.423 -2.0970  0.6695 -2.1371
12537TIP3    H259027   1.618   4.497  13.306 -0.5396  2.0988 -0.4733
12538TIP3   OH259028   5.701   6.451  14.744 -0.1449  0.5288 -0.1568
12538TIP3    H159029   5.729   6.391  14.813  0.3538 -0.9332 -1.5955
12538TIP3    H259030   5.608   6.465  14.761  0.2333  1.1199  1.4912
12539TIP3   OH259031   4.567   2.754   1.729 -0.3392 -0.1518 -0.2320
12539TIP3    H159032   4.515   2.743   1.809  1.1797  1.4689  1.0215
12539TIP3    H259033   4.567   2.849   1.713  3.6481  0.1557  0.8546
12540TIP3   OH259034   1.176   2.165  15.234  0.3301  0.4774  0.0394
12540TIP3    H159035   1.153   2.148  15.325  2.0346  0.0613  0.4241
12540TIP3    H259036   1.207   2.080  15.201 -0.4613  0.5772 -0.9810
12541TIP3   OH259037   2.274   5.111   1.927 -1.1405  0.2001 -0.1918
12541TIP3    H159038   2.355   5.158   1.945 -0.2067 -1.1952 -0.6241
12541TIP3    H259039   2.216   5.132   2.000  0.9169 -1.6743  2.0828
12542TIP3   OH259040   2.643   0.049  13.465  0.2738  0.4409 -0.6071
12542TIP3    H159041   2.646   0.143  13.484  1.9905  0.2296  0.2284
12542TIP3    H259042   2.729   0.029  13.428  1.0177 -1.3446  1.9199
12543TIP3   OH259043   4.612   2.086  11.648  0.0496 -0.0727 -0.9345
12543TIP3    H159044   4.704   2.060  11.656 -0.8708 -3.3321 -0.4172
12543TIP3    H259045   4.573   2.059  11.731 -1.5903  0.4850 -1.5100
12544TIP3   OH259046   6.770   1.491  13.713  0.3544  0.0860  0.4272
12544TIP3    H159047   6.728   1.460  13.633 -0.5239  1.3760  0.3604
12544TIP3    H259048   6.863   1.493  13.693  0.1672  0.0840 -0.4576
12545TIP3   OH259049   0.311   5.569  11.245 -0.6599 -0.2015 -0.4688
12545TIP3    H159050   0.257   5.634  11.290 -1.8524 -0.2599 -1.7352
12545TIP3    H259051   0.358   5.619  11.178 -0.3398 -0.3923 -0.3851
12546TIP3   OH259052   4.491   2.338  11.638 -0.7452  0.1061 -0.3163
12546TIP3    H159053   4.528   2.250  11.647  0.4100  0.6114 -0.1038
12546TIP3    H259054   4.551   2.383  11.579 -0.3029  1.3447  1.0653
12547TIP3   OH259055   0.757   4.413   5.107  0.5638 -0.0914 -0.3635
12547TIP3    H159056   0.773   4.378   5.194  0.5847  0.4249 -0.1599
12547TIP3    H259057   0.787   4.504   5.111 -2.0034  0.7740 -0.0964
12548TIP3   OH259058   1.380   3.704  16.430 -0.3111  0.2726  0.2508
12548TIP3    H159059   1.427   3.744  16.357  1.8228 -2.2781  0.1870
12548TIP3    H259060   1.447   3.684  16.495 -1.9068  0.6155  2.0723
12549TIP3   OH259061   4.355   0.185  13.357  0.3565 -0.3645  0.1251
12549TIP3    H159062   4.406   0.226  13.286  0.0210  0.9054  0.5923
12549TIP3    H259063   4.264   0.197  13.330  0.2489 -0.5926  0.3909
12550TIP3   OH259064   3.264   5.696  13.058 -0.0903 -0.2744 -0.6587
12550TIP3    H159065   3.307   5.779  13.040  0.8703 -0.6428 -0.0779
12550TIP3    H259066   3.326   5.629  13.028 -0.2318 -0.8067  0.2284
12551TIP3   OH259067   5.759   6.062  16.813 -0.2634 -0.2935  0.6894
12551TIP3    H159068   5.736   6.005  16.739  1.2913  0.9808 -0.8268
12551TIP3    H259069   5.767   6.149  16.773  1.6971  0.2270  2.1654
12552TIP3   OH259070   4.070   0.881  15.671  0.2354 -0.1256 -0.5223
12552TIP3    H159071   4.057   0.867  15.764  1.5245  1.1574 -0.1175
12552TIP3    H259072   3.989   0.852  15.630 -0.6253 -0.0183  1.0698
12553TIP3   OH259073   6.542   3.258  15.324 -0.0189 -0.1507 -0.3557
12553TIP3    H159074   6.586   3.340  15.344  1.2684 -1.4438  2.4868
12553TIP3    H259075   6.604   3.209  15.270 -0.3899  0.3518 -1.2397
12554TIP3   OH259076   1.925   6.144   4.629  0.2875 -0.1368 -0.5061
12554TIP3    H159077   1.916   6.049   4.637 -0.5399  0.0013  0.2556
12554TIP3    H259078   1.982   6.168   4.702  0.6046 -0.0618 -0.7776
12555TIP3   OH259079   1.852   0.769  16.179 -0.0844  0.5103 -0.4082
12555TIP3    H159080   1.824   0.731  16.096  0.8288  0.1488 -0.5460
12555TIP3    H259081   1.865   0.862  16.160 -1.7218  0.8018 -0.2150
12556TIP3   OH259082   6.716   3.216   2.128 -0.2384  0.0957  0.3841
12556TIP3    H159083   6.690   3.307   2.114 -0.4790  0.1641  1.2478
12556TIP3    H259084   6.707   3.202   2.222 -1.6868 -1.2741  0.0664
12557TIP3   OH259085   1.136   1.466  13.708  0.2398  0.0753  0.5811
12557TIP3    H159086   1.097   1.379  13.711  0.4801 -0.0545  0.0362
12557TIP3    H259087   1.195   1.468  13.784  0.4242 -0.3337  0.4541
12558TIP3   OH259088   5.436   4.395  16.644 -0.0531  0.3651  0.1474
12558TIP3    H159089   5.421   4.475  16.593 -0.2825 -0.8006 -1.6821
12558TIP3    H259090   5.352   4.378  16.687 -0.7644 -0.2238 -1.4372
12559TIP3   OH259091   0.383   1.535   4.622  0.0335  0.2016  0.2349
12559TIP3    H159092   0.299   1.493   4.646 -0.3696  1.0735  0.3759
12559TIP3    H259093   0.420   1.563   4.706  0.1388  0.4284  0.1139
12560TIP3   OH259094   0.779   4.686   0.337 -0.4947  0.2470 -0.0360
12560TIP3    H159095   0.787   4.610   0.394 -2.9263  0.6536  0.9110
12560TIP3    H259096   0.808   4.656   0.251  0.2777 -1.2247  0.7313
12561TIP3   OH259097   5.842   1.731  11.013  0.2538 -0.4161  0.1451
12561TIP3    H159098   5.832   1.653  11.067  0.1374  0.0797  0.8524
12561TIP3    H259099   5.934   1.732  10.989  0.2484 -0.7926  0.1009
12562TIP3   OH259100   1.075   4.046  14.186  0.0596 -0.6218 -0.5123
12562TIP3    H159101   1.170   4.034  14.181  0.0713 -1.2340  0.8722
12562TIP3    H259102   1.038   3.968  14.143  0.1601  0.9862 -3.6573
12563TIP3   OH259103   0.593   2.522   1.073  0.0248  0.0563  0.7969
12563TIP3    H159104   0.677   2.485   1.099 -0.7198 -2.4600 -0.2347
12563TIP3    H259105   0.609   2.616   1.066  3.2580 -0.5766 -1.2679
12564TIP3   OH259106   3.792   5.981  15.782 -0.1133  0.0690  0.1645
12564TIP3    H159107   3.795   5.955  15.874 -2.0538 -1.5921 -0.2179
12564TIP3    H259108   3.702   6.010  15.768  0.1371  0.1924 -1.2272
12565TIP3   OH259109   4.013   0.676  14.604 -0.6415  0.5333 -0.7669
12565TIP3    H159110   3.933   0.709  14.645  0.2017 -1.3413  2.6154
12565TIP3    H259111   4.083   0.733  14.637 -0.0387 -0.5473 -0.1352
12566TIP3   OH259112   1.996   1.834   0.007  0.0280  0.3635 -0.2418
12566TIP3    H159113   1.925   1.888   0.044 -0.6837  0.6805 -1.9979
12566TIP3    H259114   1.963   1.809  -0.079  1.3692 -0.9126 -0.3884
12567TIP3   OH259115   6.543   0.933   2.062 -0.5974  0.4076  0.5289
12567TIP3    H159116   6.503   0.848   2.043 -2.7271  1.4490  0.1134
12567TIP3    H259117   6.535   0.981   1.979  1.6748  0.6067  0.4113
12568TIP3   OH259118   3.665   6.727   3.970 -0.3623  0.0072  0.3309
12568TIP3    H159119   3.689   6.785   4.043  2.2350 -0.3053 -0.2208
12568TIP3    H259120   3.658   6.786   3.895 -1.7111  0.1468  0.5633
12569TIP3   OH259121   5.087   2.046  14.050  0.1491 -0.1512  0.4778
12569TIP3    H159122   5.079   2.028  13.956 -2.1590 -0.9282  0.8051
12569TIP3    H259123   5.096   1.960  14.091 -0.8598  0.0631  1.1495
12570TIP3   OH259124   5.885   0.406  11.855 -0.0464 -0.4528  0.2389
12570TIP3    H159125   5.823   0.423  11.926 -1.3235 -0.4465 -0.8673
12570TIP3    H259126   5.864   0.318  11.825 -0.0209 -0.1580 -0.6419
12571TIP3   OH259127   0.785   5.564   1.361  0.8486 -0.4693  0.5420
12571TIP3    H159128   0.780   5.502   1.288  0.7448 -0.6360  0.6881
12571TIP3    H259129   0.805   5.648   1.321 -0.4316 -0.3135  0.1890
12572TIP3   OH259130   4.969   0.676  11.244  0.4870 -0.0365  0.2599
12572TIP3    H159131   4.991   0.591  11.206 -2.3864 -0.5686 -0.3935
12572TIP3    H259132   4.873   0.675  11.248  0.2793  4.0298 -1.7570
12573TIP3   OH259133   0.845   1.901   2.433 -0.0592 -0.1676 -0.4034
12573TIP3    H159134   0.773   1.904   2.369 -0.4230 -2.2153 -0.1261
12573TIP3    H259135   0.894   1.822   2.411  0.7248 -0.0623  0.8906
12574TIP3   OH259136   5.146   2.753  15.869  0.8251  0.1185 -0.5213
12574TIP3    H159137   5.122   2.843  15.894  2.0973 -0.0515  1.4613
12574TIP3    H259138   5.063   2.705  15.871  0.5273  0.6583  1.1722
12575TIP3   OH259139   5.512   5.726   2.172  0.1911  0.1782 -0.3532
12575TIP3    H159140   5.607   5.713   2.176  0.2031 -0.5213 -2.2902
12575TIP3    H259141   5.475   5.639   2.183 -0.2608  0.5402  1.0657
12576TIP3   OH259142   6.097   6.608  15.301  0.2600  0.2683  0.4767
12576TIP3    H159143   6.120   6.697  15.328  0.4593 -0.0316  1.3022
12576TIP3    H259144   6.007   6.615  15.269 -1.0034  0.1461  3.7827
12577TIP3   OH259145   1.923   0.028  13.113 -0.0993 -0.1782 -0.0917
12577TIP3    H159146   1.827   0.030  13.114 -0.1223 -0.9864 -0.0825
12577TIP3    H259147   1.945  -0.064  13.127  0.6980  0.1308  0.7424
12578TIP3   OH259148   2.888   0.300   5.680 -0.1808 -0.4216  0.2693
12578TIP3    H159149   2.959   0.325   5.740 -0.4136  1.2618 -0.1230
12578TIP3    H259150   2.917   0.333   5.595 -0.4613 -1.6209 -0.2897
12579TIP3   OH259151   2.463   0.312   0.387  0.1779  0.6041 -0.1718
12579TIP3    H159152   2.411   0.381   0.427  1.1269  0.4925  1.2859
12579TIP3    H259153   2.464   0.333   0.293 -0.4890  1.9185  0.1149
12580TIP3   OH259154   2.660   6.280   5.754 -0.1653  0.1371 -0.1305
12580TIP3    H159155   2.663   6.340   5.828 -1.1885  0.7537 -0.5791
12580TIP3    H259156   2.567   6.262   5.741  0.1328 -1.5121 -0.0359
12581TIP3   OH259157   1.588   6.095   1.355  0.1115 -0.9672 -0.0756
12581TIP3    H159158   1.673   6.106   1.397 -0.0399  0.5983 -0.1291
12581TIP3    H259159   1.530   6.154   1.403 -0.0169  1.0244 -2.5622
12582TIP3   OH259160   2.191   0.241   5.159 -0.1519  0.0153 -0.2987
12582TIP3    H159161   2.210   0.207   5.072  0.0318 -0.7016  0.0188
12582TIP3    H259162   2.209   0.168   5.218 -3.5747 -0.6196  0.0794
12583TIP3   OH259163   1.531   5.030   2.572 -0.6431 -0.2810 -0.7168
12583TIP3    H159164   1.516   4.980   2.492 -0.2632  0.6764 -1.4008
12583TIP3    H259165   1.505   5.120   2.549  1.0134  0.3238 -0.2922
12584TIP3   OH259166   2.719   2.690  11.771  0.0897  0.2393 -0.2788
12584TIP3    H159167   2.693   2.777  11.743  0.7532  1.0002  1.3994
12584TIP3    H259168   2.686   2.682  11.861 -0.7448 -1.5870 -0.7102
12585TIP3   OH259169   2.696   4.858  17.112  0.1378  0.7496 -0.1180
12585TIP3    H159170   2.782   4.825  17.085 -0.4486  0.2077 -1.3701
12585TIP3    H259171   2.678   4.813  17.195  1.1505  1.0365  0.2688
12586TIP3   OH259172   3.243   4.169  12.940 -0.1143  0.2812 -0.2483
12586TIP3    H159173   3.199   4.204  12.862 -1.9292  0.6276  0.8882
12586TIP3    H259174   3.264   4.246  12.992  1.4796  0.0805 -0.5660
12587TIP3   OH259175   3.471   5.955  16.387  0.2364  0.1756  0.1724
12587TIP3    H159176   3.437   6.025  16.442  0.1332  1.4207 -1.4261
12587TIP3    H259177   3.393   5.917  16.346  0.4526  0.4897 -0.5400
12588TIP3   OH259178   3.445   6.712   3.175  0.6483  0.4194 -0.2290
12588TIP3    H159179   3.419   6.663   3.097  0.7360 -0.1497  0.0959
12588TIP3    H259180   3.443   6.804   3.148 -1.9896  0.4272 -0.1195
12589TIP3   OH259181   5.239   0.730   6.223 -0.4553  0.5274  0.8532
12589TIP3    H159182   5.321   0.681   6.211 -0.4450  0.5748  0.7325
12589TIP3    H259183   5.182   0.670   6.272 -0.7417  0.0753 -0.0216
12590TIP3   OH259184   5.249   0.867  12.677 -0.5009  0.1678  0.3515
12590TIP3    H159185   5.294   0.945  12.645  0.6057 -0.0075  1.4258
12590TIP3    H259186   5.156   0.886  12.666 -0.1734  0.5896 -1.7652
12591TIP3   OH259187   4.311   1.680   5.079 -0.0498 -0.3404 -0.7906
12591TIP3    H159188   4.400   1.651   5.058  0.0992  0.6338 -1.5297
12591TIP3    H259189   4.305   1.672   5.174  0.3370 -1.7726 -0.8695
12592TIP3   OH259190   6.087   5.724   3.224  0.1995  0.0070  0.4799
12592TIP3    H159191   6.123   5.706   3.311  1.9240 -1.2068 -0.4655
12592TIP3    H259192   6.162   5.749   3.171 -0.8682  0.9336 -0.6372
12593TIP3   OH259193   6.288   4.574   2.419 -0.1272 -0.1298 -1.1766
12593TIP3    H159194   6.296   4.668   2.403 -1.0999  0.3584  1.0520
12593TIP3    H259195   6.370   4.551   2.465 -0.5676 -0.0445 -0.3362
12594TIP3   OH259196   1.748   4.365  16.914  0.2118  0.3333  0.4523
12594TIP3    H159197   1.739   4.436  16.978  0.8506  0.2679  0.6193
12594TIP3    H259198   1.842   4.353  16.905  0.1791  1.6354 -1.9422
12595TIP3   OH259199   1.736   2.426   5.967 -0.5385  0.2881 -0.3956
12595TIP3    H159200   1.811   2.429   5.908  1.5519  1.7943  2.2148
12595TIP3    H259201   1.682   2.502   5.942  0.2199  0.7872 -0.5225
12596TIP3   OH259202   2.058   5.384   1.210 -0.0950 -0.4541 -1.1731
12596TIP3    H159203   1.964   5.372   1.219 -0.2082  0.3114 -1.3323
12596TIP3    H259204   2.095   5.336   1.284 -0.5687 -1.3112 -1.4843
12597TIP3   OH259205   4.615   2.018   0.697 -0.2902 -0.4200  0.2942
12597TIP3    H159206   4.604   1.945   0.758  1.7165 -0.8604  0.1688
12597TIP3    H259207   4.683   1.989   0.637 -0.2857  1.1064 -0.4743
12598TIP3   OH259208   2.594   6.014   5.885 -0.0584  0.4742  0.4551
12598TIP3    H159209   2.605   5.933   5.835 -2.0122 -2.1577  4.0659
12598TIP3    H259210   2.524   6.060   5.839 -0.3986 -0.9070 -0.4461
12599TIP3   OH259211   6.466   5.052   4.199  0.4093  0.5429  0.0298
12599TIP3    H159212   6.444   4.992   4.271  2.0979  0.3086  0.3829
12599TIP3    H259213   6.544   5.098   4.230  1.3355  0.2218 -1.7805
12600TIP3   OH259214   0.986   4.655   1.122  0.1255 -0.0706  0.5773
12600TIP3    H159215   1.001   4.590   1.053  0.2201 -0.2418  0.7573
12600TIP3    H259216   1.070   4.701   1.130  0.8789 -1.6831  2.2616
12601TIP3   OH259217   6.182   1.551   4.535  0.5333 -0.2451 -0.1904
12601TIP3    H159218   6.184   1.647   4.531  2.9898 -0.1969  1.1576
12601TIP3    H259219   6.159   1.524   4.446  1.4994  1.5838 -1.0143
12602TIP3   OH259220   6.052   0.363  15.323 -0.5646 -0.0081 -0.6223
12602TIP3    H159221   6.027   0.455  15.320 -1.0939 -0.1631 -1.2232
12602TIP3    H259222   6.047   0.339  15.415  1.3712  1.0456 -0.2189
12603TIP3   OH259223   4.904   5.557  11.147 -0.2056 -0.0605 -0.2278
12603TIP3    H159224   4.996   5.571  11.125 -0.0268 -3.4618 -2.1036
12603TIP3    H259225   4.858   5.631  11.108  1.6880  1.4380  0.3420
12604TIP3   OH259226   6.223   0.721   4.516  0.2406 -0.5819 -0.0361
12604TIP3    H159227   6.189   0.732   4.605  1.7982  1.5213  0.3437
12604TIP3    H259228   6.301   0.667   4.526  0.5438 -0.1577 -0.0871
12605TIP3   OH259229   4.886   4.891   6.276 -0.2917  0.1048  0.2380
12605TIP3    H159230   4.911   4.960   6.338 -1.5914  1.2833 -0.5156
12605TIP3    H259231   4.966   4.840   6.263  0.3692  0.7146  1.7564
12606TIP3   OH259232   1.170   2.898   0.100 -0.4041 -0.6690  0.0422
12606TIP3    H159233   1.110   2.825   0.087  0.9744 -1.6856 -0.8505
12606TIP3    H259234   1.229   2.894   0.024  0.4084  0.6704  0.5784
12607TIP3   OH259235   4.867   3.741  12.573 -0.0193  0.3770  0.1509
12607TIP3    H159236   4.929   3.670  12.560  0.4415  0.8124 -0.0464
12607TIP3    H259237   4.838   3.732  12.664 -1.2336 -1.0667 -0.3594
12608TIP3   OH259238   1.798   4.965  14.230 -0.2474 -0.3888 -0.2314
12608TIP3    H159239   1.882   5.006  14.253 -0.1452 -1.2286  0.9353
12608TIP3    H259240   1.800   4.881  14.275 -0.7762 -1.3668 -2.0277
12609TIP3   OH259241   3.729   4.600   4.672  0.9443 -0.3924  0.0924
12609TIP3    H159242   3.680   4.646   4.604  1.9910  0.6017 -0.0148
12609TIP3    H259243   3.747   4.514   4.634  0.9338 -0.0835 -0.6272
12610TIP3   OH259244   3.658   0.450   4.078  0.5410 -0.0242 -0.0291
12610TIP3    H159245   3.606   0.480   4.152  0.4326 -0.7534  0.2001
12610TIP3    H259246   3.659   0.355   4.087 -0.7591 -0.2448 -1.8205
12611TIP3   OH259247   4.424   5.567  13.299 -0.2772 -0.0451  0.2097
12611TIP3    H159248   4.434   5.505  13.227 -0.0428 -0.0904  0.2817
12611TIP3    H259249   4.387   5.515  13.370  0.8373 -0.3199  0.5886
12612TIP3   OH259250   5.705   5.161   0.523  0.4447  0.0289  0.4412
12612TIP3    H159251   5.734   5.235   0.577 -0.0629  0.5541 -0.0019
12612TIP3    H259252   5.697   5.198   0.435 -0.2082 -0.4599  0.2962
12613TIP3   OH259253   4.217   1.496  12.362  0.6345 -0.3224 -0.4073
12613TIP3    H159254   4.257   1.417  12.397  0.5569 -1.3295 -2.5272
12613TIP3    H259255   4.283   1.534  12.304  0.1097  0.3476 -0.5792
12614TIP3   OH259256   2.296   6.741   3.268 -0.3047 -1.0839 -0.0072
12614TIP3    H159257   2.255   6.728   3.354  0.0308 -1.0636  0.1592
12614TIP3    H259258   2.224   6.737   3.206 -0.4797 -1.6074  0.2315
12615TIP3   OH259259   3.125   0.658  11.606 -0.1091  0.8733 -0.2147
12615TIP3    H159260   3.113   0.638  11.513  1.5706 -1.8933  0.1016
12615TIP3    H259261   3.206   0.613  11.630 -0.1485  2.1207  2.4453
12616TIP3   OH259262   4.297   4.640  11.477 -0.5913 -0.4697  0.2571
12616TIP3    H159263   4.211   4.601  11.465  0.2456 -1.7774 -1.8584
12616TIP3    H259264   4.302   4.709  11.411  1.8323 -3.7749 -3.2600
12617TIP3   OH259265   0.717   2.530  12.411  0.4879 -0.2601  0.1821
12617TIP3    H159266   0.688   2.601  12.355 -0.1495  0.9076  1.9449
12617TIP3    H259267   0.798   2.562  12.451  0.0463 -0.3855  1.2082
12618TIP3   OH259268   2.399   2.665  11.334  0.6960 -0.0455  0.0844
12618TIP3    H159269   2.358   2.650  11.248  0.9058  0.1621 -0.0538
12618TIP3    H259270   2.484   2.622  11.327  0.1027 -1.3511  0.7260
12619TIP3   OH259271   0.828   2.085  14.075 -0.3245 -0.1265 -0.0286
12619TIP3    H159272   0.896   2.145  14.045 -0.5694 -0.1487 -0.6369
12619TIP3    H259273   0.837   2.084  14.170  0.0978  0.3792 -0.0613
12620TIP3   OH259274   1.168   3.655  13.051  0.2218  0.1612  0.4499
12620TIP3    H159275   1.091   3.624  13.098  0.0421  1.8276  1.2712
12620TIP3    H259276   1.223   3.696  13.118  0.6889  1.1585 -0.5207
12621TIP3   OH259277   0.893   2.476  14.191  0.0363 -0.3648 -0.3321
12621TIP3    H159278   0.894   2.432  14.276 -0.7081  0.6742  0.2301
12621TIP3    H259279   0.941   2.418  14.133  1.3557 -0.6558  1.0235
12622TIP3   OH259280   4.653   5.642   2.952  0.0270 -0.0284  0.1499
12622TIP3    H159281   4.630   5.626   2.861  0.4697  0.5131 -0.0567
12622TIP3    H259282   4.732   5.591   2.967  1.1069  1.4611 -0.3444
12623TIP3   OH259283   2.846   4.382  12.868  0.0230 -0.4860  0.3236
12623TIP3    H159284   2.804   4.422  12.792  1.7201 -1.6921 -1.2964
12623TIP3    H259285   2.775   4.341  12.916 -0.9381 -0.6316 -1.1889
12624TIP3   OH259286   0.286   0.150   0.537  0.4445 -0.0286  0.0173
12624TIP3    H159287   0.340   0.073   0.518  0.5805 -0.1220  0.7609
12624TIP3    H259288   0.260   0.183   0.451 -0.5562 -1.5690 -0.3021
12625TIP3   OH259289   2.046   1.991   0.580  0.2813 -0.8000  0.0556
12625TIP3    H159290   2.019   1.899   0.588  0.0528 -1.0597 -3.0058
12625TIP3    H259291   2.141   1.988   0.574  0.2136 -0.9210 -0.9731
12626TIP3   OH259292   5.111   4.466  15.879  0.6289 -0.0519  0.2387
12626TIP3    H159293   5.034   4.415  15.854  0.2935  0.8229 -0.5036
12626TIP3    H259294   5.154   4.412  15.946 -0.2409 -0.8671  0.1507
12627TIP3   OH259295   3.667   1.855  17.089  0.5079  0.3744 -0.6659
12627TIP3    H159296   3.607   1.808  17.031 -0.0458 -0.0824  0.2595
12627TIP3    H259297   3.732   1.790  17.114  0.1033  0.2575  0.1119
12628TIP3   OH259298   5.210   6.450  14.143 -0.3700  0.4804  0.0581
12628TIP3    H159299   5.177   6.464  14.054  1.0217 -1.0510 -0.7155
12628TIP3    H259300   5.207   6.355  14.155  0.8780  0.5685  1.0985
12629TIP3   OH259301   2.278   6.435  16.053 -0.1492  0.1905 -0.5304
12629TIP3    H159302   2.346   6.476  16.000 -0.5739  2.1968  0.4337
12629TIP3    H259303   2.229   6.509  16.090 -2.3860 -1.2073 -0.6219
12630TIP3   OH259304   6.126   0.302  12.257 -0.0605 -0.4007  0.0518
12630TIP3    H159305   6.080   0.230  12.299  0.7769 -1.4343 -0.7651
12630TIP3    H259306   6.170   0.348  12.328  0.5107 -1.5261  0.4490
12631TIP3   OH259307   2.530   2.119  15.907 -0.0085 -1.1316 -0.3362
12631TIP3    H159308   2.608   2.169  15.883 -0.4659 -1.2134 -2.0170
12631TIP3    H259309   2.457   2.174  15.878 -0.6111 -0.9384  1.4501
12632TIP3   OH259310   2.648   5.538   4.530  0.2912  0.0472 -0.2826
12632TIP3    H159311   2.652   5.555   4.624 -0.5975  0.2589 -0.2785
12632TIP3    H259312   2.566   5.490   4.518  0.4094  0.0081 -0.9447
12633TIP3   OH259313   4.351   0.721   2.290 -0.0740 -0.2021 -0.4501
12633TIP3    H159314   4.312   0.743   2.375 -0.4896  1.1347 -0.9809
12633TIP3    H259315   4.433   0.772   2.288  0.1140 -0.5116 -0.7013
12634TIP3   OH259316   0.032   6.273  11.942 -0.5056 -0.0416 -0.5407
12634TIP3    H159317  -0.021   6.231  12.009  0.3556 -0.8491 -0.3454
12634TIP3    H259318   0.019   6.220  11.864  0.8630 -0.9046 -0.2019
12635TIP3   OH259319   1.967   3.509   2.655  0.3732 -0.0319  0.3436
12635TIP3    H159320   2.055   3.503   2.692  0.3854 -1.2516  0.1350
12635TIP3    H259321   1.954   3.425   2.610 -1.2104 -0.1897  1.0615
12636TIP3   OH259322   1.172   2.648  17.057  0.1023  0.5797  0.3913
12636TIP3    H159323   1.228   2.717  17.093 -0.5718  1.8340 -0.9188
12636TIP3    H259324   1.191   2.648  16.964 -0.7967 -0.1889  0.1984
12637TIP3   OH259325   5.831   0.218   1.956  0.0859 -0.3457  0.4721
12637TIP3    H159326   5.845   0.312   1.941 -0.7870 -0.3374 -0.3945
12637TIP3    H259327   5.872   0.176   1.880  1.2073 -0.7218  1.2808
12638TIP3   OH259328   0.301   2.737   0.739 -0.1466 -0.2283  0.0184
12638TIP3    H159329   0.254   2.654   0.749  0.9953 -0.7330  1.3841
12638TIP3    H259330   0.242   2.793   0.688 -1.2172 -1.6388 -0.3048
12639TIP3   OH259331   4.265   4.235  11.823  0.4359  0.1079  0.0365
12639TIP3    H159332   4.209   4.230  11.901  1.6329 -0.9329  0.8570
12639TIP3    H259333   4.226   4.173  11.762  0.6643 -0.5994  0.5971
12640TIP3   OH259334   2.293   1.752  12.120 -0.0799  0.2071  0.5606
12640TIP3    H159335   2.336   1.789  12.197  0.5502 -1.1590  0.8917
12640TIP3    H259336   2.224   1.696  12.156  0.4495 -0.7180  0.1644
12641TIP3   OH259337   1.571   5.474   5.977 -0.8948  0.1461 -0.0246
12641TIP3    H159338   1.528   5.388   5.980 -0.0204 -0.2658  0.8430
12641TIP3    H259339   1.613   5.483   6.062 -2.6552  2.3273  0.6478
12642TIP3   OH259340   5.266   6.515  15.678 -0.1162 -0.3810  0.5064
12642TIP3    H159341   5.318   6.460  15.619  0.8148  0.0953  0.8787
12642TIP3    H259342   5.204   6.559  15.620 -0.3259 -1.2016  0.0999
12643TIP3   OH259343   0.369   4.924  15.580  0.8439 -0.0481  0.0557
12643TIP3    H159344   0.374   4.992  15.512  0.8338 -0.7974 -0.6916
12643TIP3    H259345   0.323   4.851  15.538  1.3200 -0.7205  0.7015
12644TIP3   OH259346   0.441   4.304  16.498  0.2568 -0.3117  0.2666
12644TIP3    H159347   0.353   4.299  16.463  0.7814 -0.5407 -1.0575
12644TIP3    H259348   0.480   4.381  16.456  0.4019  0.3155  1.5257
12645TIP3   OH259349   2.095   0.285  11.749 -0.1399  0.3842 -0.3979
12645TIP3    H159350   2.176   0.302  11.701  0.3496 -0.7493  0.0108
12645TIP3    H259351   2.034   0.251  11.684  0.2781 -0.4310 -0.3559
12646TIP3   OH259352   3.192   3.477   2.824 -0.1056  0.2322  0.3264
12646TIP3    H159353   3.131   3.409   2.853 -0.5346 -0.0906 -1.2461
12646TIP3    H259354   3.207   3.457   2.731  2.1530  0.5027  0.6155
12647TIP3   OH259355   2.419   5.017  14.205 -0.4202 -0.4104 -0.1070
12647TIP3    H159356   2.353   5.087  14.206 -0.4818 -0.3841 -2.5666
12647TIP3    H259357   2.405   4.972  14.122  1.1661 -1.8596  0.3859
12648TIP3   OH259358   5.261   6.764  16.072  0.0019 -0.4547  0.1785
12648TIP3    H159359   5.345   6.727  16.045  1.1465  0.4575  2.3178
12648TIP3    H259360   5.254   6.741  16.165 -1.9210 -0.1499  0.1299
12649TIP3   OH259361   3.048   6.531   5.268 -0.7303  0.0356 -0.2586
12649TIP3    H159362   3.003   6.469   5.326 -1.0694 -1.8008 -2.4046
12649TIP3    H259363   2.984   6.601   5.254 -0.6273  0.5281  1.5779
12650TIP3   OH259364   3.112   2.789   3.595  0.1452  0.8870  0.4207
12650TIP3    H159365   3.186   2.729   3.594  0.4694  1.2879 -0.6436
12650TIP3    H259366   3.035   2.733   3.606  0.5268  0.3814  0.5360
12651TIP3   OH259367   6.406   2.490   3.979 -0.1054 -0.1964 -0.0525
12651TIP3    H159368   6.485   2.458   3.936  0.2976 -0.2643  0.7325
12651TIP3    H259369   6.347   2.415   3.980 -0.0024 -0.2786 -0.2327
12652TIP3   OH259370   6.177   0.042   2.682  0.2974 -0.0227 -0.6595
12652TIP3    H159371   6.094  -0.003   2.700  0.9637 -1.1037 -0.2182
12652TIP3    H259372   6.209   0.003   2.601  1.3284 -1.0229  0.2083
12653TIP3   OH259373   5.661   3.578  12.744  0.2973  0.0256  0.3450
12653TIP3    H159374   5.573   3.558  12.776  0.4671  0.5653  1.1493
12653TIP3    H259375   5.648   3.599  12.651 -0.9424  3.4293  1.2079
12654TIP3   OH259376   5.141   4.691  16.184  0.0757 -0.5172 -0.0603
12654TIP3    H159377   5.151   4.750  16.259  0.4781 -1.1853  0.4252
12654TIP3    H259378   5.078   4.625  16.215 -0.9275  0.0653 -0.8490
12655TIP3   OH259379   2.584   5.548  16.137 -0.6226  0.3605  0.0356
12655TIP3    H159380   2.591   5.552  16.232  0.8305  0.2346 -0.0578
12655TIP3    H259381   2.546   5.633  16.113 -0.4783  0.6157  0.6817
12656TIP3   OH259382   0.161   5.998   3.884 -0.2041  0.2494 -0.7931
12656TIP3    H159383   0.080   6.049   3.877  0.3201  1.1418 -0.4526
12656TIP3    H259384   0.153   5.951   3.967 -0.5853 -0.0347 -0.9917
12657TIP3   OH259385   0.258   6.224   3.059 -0.0907  0.4196 -0.1563
12657TIP3    H159386   0.304   6.187   2.983 -0.4196  0.9308 -0.6123
12657TIP3    H259387   0.244   6.315   3.035 -0.8812  0.3922  0.1999
12658TIP3   OH259388   3.035   2.287  16.925  0.3081 -0.2821  0.1204
12658TIP3    H159389   3.092   2.211  16.915 -0.0747 -0.5093 -0.3969
12658TIP3    H259390   2.947   2.249  16.933  0.2218  0.0620  0.8691
12659TIP3   OH259391   4.220   6.198  13.510 -0.1188 -0.3886 -0.1480
12659TIP3    H159392   4.298   6.144  13.514  0.4098  0.2438 -1.4987
12659TIP3    H259393   4.253   6.287  13.496 -0.9794  0.2617  1.7961
12660TIP3   OH259394   2.025   2.848   3.256 -0.1088  0.1756 -0.1352
12660TIP3    H159395   2.076   2.845   3.174 -1.5950  0.1775 -1.0882
12660TIP3    H259396   1.962   2.776   3.247 -1.1089  0.9613  0.4564
12661TIP3   OH259397   5.459   6.309  11.090 -0.2723  0.3015  0.2474
12661TIP3    H159398   5.466   6.243  11.022 -4.2978  1.4499 -1.4574
12661TIP3    H259399   5.484   6.391  11.048 -0.5546  0.6804  0.7994
12662TIP3   OH259400   4.547   4.086  12.819  0.2925 -0.4507 -0.1013
12662TIP3    H159401   4.551   4.176  12.785 -1.0433 -0.2382  0.2781
12662TIP3    H259402   4.635   4.051  12.804  1.2864  1.4197  1.1483
12663TIP3   OH259403   6.647   1.052  13.181 -0.0191  0.5697 -0.1843
12663TIP3    H159404   6.717   1.033  13.118 -0.8028 -2.5994 -0.1727
12663TIP3    H259405   6.567   1.052  13.128 -0.6681 -2.0119  0.7592
12664TIP3   OH259406   4.173   0.959  12.361 -0.3200 -0.5377 -0.0686
12664TIP3    H159407   4.230   1.011  12.418 -0.3520 -0.2522 -0.2921
12664TIP3    H259408   4.216   0.963  12.275 -0.9896  0.1936 -0.3826
12665TIP3   OH259409   4.770   4.920   2.729  0.3383  0.0352  0.1099
12665TIP3    H159410   4.748   4.828   2.715 -0.4421  0.2437 -0.0465
12665TIP3    H259411   4.748   4.937   2.821 -1.2167  0.5389 -0.3488
12666TIP3   OH259412   6.681   0.546   2.899  0.2564 -0.4039  0.0374
12666TIP3    H159413   6.684   0.625   2.846  1.3191  0.4225  1.3186
12666TIP3    H259414   6.588   0.535   2.921 -0.1768 -0.6509 -1.7766
12667TIP3   OH259415   3.822   0.557   2.561  0.3829  0.0618 -0.2151
12667TIP3    H159416   3.811   0.601   2.645  3.3382 -1.1293  0.8805
12667TIP3    H259417   3.741   0.508   2.548 -0.6462  1.3417  1.2774
12668TIP3   OH259418   6.696   4.309  11.851  0.2071 -1.3847 -0.0889
12668TIP3    H159419   6.655   4.322  11.765  0.7730  0.5336 -0.0870
12668TIP3    H259420   6.623   4.290  11.909 -0.7370  1.7870 -0.1343
12669TIP3   OH259421   1.596   1.421  15.254  0.2957  0.1467  0.3991
12669TIP3    H159422   1.535   1.356  15.288 -1.8205  1.0593 -1.5255
12669TIP3    H259423   1.682   1.383  15.269 -0.7499 -1.6016  2.3029
12670TIP3   OH259424   1.909   4.423   1.043 -0.3069  0.0429 -0.4841
12670TIP3    H159425   1.819   4.446   1.067 -0.4481  1.5334 -2.3229
12670TIP3    H259426   1.955   4.415   1.126 -2.2413 -1.2494  0.5200
12671TIP3   OH259427   4.482   3.121  16.268 -0.3073  0.3608  0.0263
12671TIP3    H159428   4.558   3.117  16.326 -0.3450  0.1137  0.0594
12671TIP3    H259429   4.516   3.092  16.183 -0.3788  0.1910  0.0540
12672TIP3   OH259430   1.039   4.537  14.714  0.0426 -0.2498 -0.2801
12672TIP3    H159431   1.064   4.573  14.628  0.4914  0.1344  0.0121
12672TIP3    H259432   0.971   4.473  14.693 -0.9704  0.9576 -0.7872
12673TIP3   OH259433   2.585   6.742  17.057 -0.6079  0.1646  0.1303
12673TIP3    H159434   2.646   6.804  17.015 -0.2531  0.0589  0.4892
12673TIP3    H259435   2.634   6.707  17.131 -0.2690 -1.6413 -0.9084
12674TIP3   OH259436   6.458   5.934  16.418  0.2109 -0.0388 -0.3755
12674TIP3    H159437   6.473   6.001  16.351 -3.7890  2.9329  1.5145
12674TIP3    H259438   6.475   5.979  16.501 -0.3719 -2.0597  0.8681
12675TIP3   OH259439   5.614   4.624  12.431 -0.2282 -0.3622  0.0260
12675TIP3    H159440   5.529   4.652  12.465 -0.6979 -1.6777 -0.0536
12675TIP3    H259441   5.653   4.574  12.503  0.8627  0.9784  0.3840
12676TIP3   OH259442   3.670   5.935  16.648  0.5576 -0.6375  0.1432
12676TIP3    H159443   3.700   6.008  16.701  0.0971  0.4285 -1.0468
12676TIP3    H259444   3.614   5.884  16.706 -3.4179  2.8139 -0.4495
12677TIP3   OH259445   0.941   4.109   2.326 -0.4650 -0.1049  0.2331
12677TIP3    H159446   1.027   4.083   2.293 -0.4392  0.9147 -0.5418
12677TIP3    H259447   0.950   4.111   2.421  0.5200  0.5039  0.1320
12678TIP3   OH259448   1.526   4.211   4.167  0.3054  0.3804  0.0782
12678TIP3    H159449   1.516   4.191   4.260  1.3058  1.3281  0.4065
12678TIP3    H259450   1.438   4.208   4.132  0.0873 -1.4954  0.7443
12679TIP3   OH259451   6.225   5.323  14.012  0.1720 -1.2829  0.6699
12679TIP3    H159452   6.154   5.323  14.077 -0.2015  0.6382  0.3021
12679TIP3    H259453   6.299   5.362  14.058 -0.0446 -0.0728  0.0085
12680TIP3   OH259454   2.266   1.766   3.756  0.3779  0.3738 -0.0070
12680TIP3    H159455   2.298   1.717   3.680  1.0940 -0.6293  0.9304
12680TIP3    H259456   2.288   1.857   3.736  0.4092  0.1414 -1.0807
12681TIP3   OH259457   3.353   6.320   5.769 -0.5351  0.3393 -0.8101
12681TIP3    H159458   3.282   6.321   5.833 -0.8785  1.6579 -1.1919
12681TIP3    H259459   3.311   6.297   5.686 -0.3294 -0.0106 -0.8166
12682TIP3   OH259460   4.763   2.838  11.580 -0.1954 -0.1732  0.2837
12682TIP3    H159461   4.792   2.848  11.671  2.7671 -0.5258 -0.5556
12682TIP3    H259462   4.824   2.892  11.530 -1.8807  0.1345 -1.5106
12683TIP3   OH259463   6.564   2.105   4.418 -0.3027  0.2682 -0.5215
12683TIP3    H159464   6.609   2.126   4.500  0.0768 -1.2678 -0.3071
12683TIP3    H259465   6.476   2.142   4.429 -0.6238 -0.8885  1.0679
12684TIP3   OH259466   2.052   1.714   0.651 -0.1538  0.3951 -0.0297
12684TIP3    H159467   2.147   1.703   0.656 -0.1831 -0.1225 -0.5326
12684TIP3    H259468   2.027   1.672   0.568 -0.4335  3.1337 -1.3827
12685TIP3   OH259469   1.666   5.465   0.118  0.4303  0.1090 -0.9113
12685TIP3    H159470   1.641   5.395   0.179  2.8038  0.2051  0.2077
12685TIP3    H259471   1.685   5.419   0.037  0.2807 -0.3508 -0.6899
12686TIP3   OH259472   1.174   2.921  15.918  0.4514 -0.2921  0.9901
12686TIP3    H159473   1.180   2.931  16.013  1.5481  2.1595  0.6902
12686TIP3    H259474   1.264   2.911  15.888  0.2243  0.2963  0.0672
12687TIP3   OH259475   6.358   3.835  13.084 -0.0516  0.1940 -0.3799
12687TIP3    H159476   6.346   3.793  13.169  0.3206 -0.2430 -0.5362
12687TIP3    H259477   6.293   3.793  13.027  0.2958 -0.1602 -0.5274
12688TIP3   OH259478   5.989   6.582  14.131 -0.6997  0.2405 -0.1436
12688TIP3    H159479   6.033   6.615  14.209  0.4707  2.2497 -1.5902
12688TIP3    H259480   6.038   6.503  14.108  0.1623  0.6940  0.0918
12689TIP3   OH259481   1.259   4.390  11.444  0.3755  0.0061  0.3894
12689TIP3    H159482   1.168   4.382  11.472  1.6945  0.3885  5.3738
12689TIP3    H259483   1.275   4.484  11.443  1.1424 -0.1037  1.2640
12690TIP3   OH259484   4.229   3.882  17.197  0.0802  0.6235  0.2923
12690TIP3    H159485   4.160   3.947  17.185 -1.0749 -0.8450 -1.3510
12690TIP3    H259486   4.242   3.877  17.292 -1.5830  1.4362  0.5776
12691TIP3   OH259487   6.103   5.970  16.612  0.0091  0.1851  0.2970
12691TIP3    H159488   6.090   5.882  16.575  1.8360 -0.9252  2.2148
12691TIP3    H259489   6.154   5.955  16.691 -0.3848  2.9294  1.0951
12692TIP3   OH259490   2.459   0.461   1.806 -0.5854  0.1741  0.2204
12692TIP3    H159491   2.410   0.511   1.740 -1.7716  0.0000  0.9694
12692TIP3    H259492   2.449   0.510   1.887  0.2865  0.0069  0.4404
12693TIP3   OH259493   0.148   2.226   5.254 -0.0765  0.3080  0.0090
12693TIP3    H159494   0.204   2.240   5.331 -0.5675 -2.0764  0.8386
12693TIP3    H259495   0.061   2.253   5.283 -0.3869 -1.1885  0.5439
12694TIP3   OH259496   6.409   5.269   4.014  0.0981 -0.0330  0.4432
12694TIP3    H159497   6.414   5.327   4.090 -0.9956 -0.5364  0.9047
12694TIP3    H259498   6.385   5.184   4.050 -0.5372 -0.2525 -0.4742
12695TIP3   OH259499   0.387   1.564   2.569  0.3226  0.0150  0.3438
12695TIP3    H159500   0.425   1.480   2.544  0.0571 -0.0642  0.2045
12695TIP3    H259501   0.376   1.611   2.487  0.6689  0.2708  0.4428
12696TIP3   OH259502   0.650   0.952   5.463 -0.1971  0.3612  0.0084
12696TIP3    H159503   0.724   0.892   5.448 -2.0726 -1.9805 -0.2468
12696TIP3    H259504   0.610   0.961   5.377 -0.3630  1.4234  0.2005
12697TIP3   OH259505   2.991   2.863   0.411  0.0891 -0.2217  0.3817
12697TIP3    H159506   2.985   2.884   0.318  1.2716  0.1134  0.3732
12697TIP3    H259507   2.905   2.829   0.434 -0.3479  0.1356 -0.7272
12698TIP3   OH259508   2.961   4.633  12.677  0.0023  0.3234 -0.0740
12698TIP3    H159509   2.911   4.698  12.628 -0.2838  0.1038 -0.0776
12698TIP3    H259510   3.004   4.683  12.746 -0.5530  0.4625  0.1813
12699TIP3   OH259511   4.179   5.920  15.482 -0.2309  0.1208 -0.3974
12699TIP3    H159512   4.097   5.957  15.448 -0.8576 -1.7837 -1.0492
12699TIP3    H259513   4.216   5.990  15.535 -1.5796  1.5221 -1.2326
12700TIP3   OH259514   4.420   1.455  13.936  0.1735  0.1309  0.2451
12700TIP3    H159515   4.451   1.544  13.954 -0.1111  0.5450 -1.2134
12700TIP3    H259516   4.493   1.399  13.958  0.2460  0.7058  1.4886
12701TIP3   OH259517   5.311   5.705  11.860 -0.4686  0.2597 -0.1880
12701TIP3    H159518   5.251   5.768  11.901 -1.6910  0.1799 -1.8009
12701TIP3    H259519   5.271   5.619  11.878 -1.4685  0.2724 -2.2181
12702TIP3   OH259520   0.713   4.574  13.360  0.0365 -0.5095  0.1446
12702TIP3    H159521   0.646   4.585  13.292 -0.2064 -0.8631  0.3202
12702TIP3    H259522   0.742   4.483  13.349 -0.3748 -0.7280  0.8446
12703TIP3   OH259523   5.626   6.622  15.085  0.0956  0.1425  0.1508
12703TIP3    H159524   5.707   6.579  15.115 -0.9469 -1.2141  1.0776
12703TIP3    H259525   5.615   6.591  14.995  0.9082  0.8012 -0.1872
12704TIP3   OH259526   1.721   0.866  12.135 -0.3323  0.7673 -0.0736
12704TIP3    H159527   1.746   0.806  12.205 -1.5423  1.9836  1.4432
12704TIP3    H259528   1.799   0.919  12.120  0.4084 -0.4690 -0.7010
12705TIP3   OH259529   3.667   4.976   3.474 -0.4888  0.4882 -0.8101
12705TIP3    H159530   3.593   4.936   3.426  0.4047 -0.9079 -1.0656
12705TIP3    H259531   3.732   4.994   3.406 -0.5736  1.7015 -0.5811
12706TIP3   OH259532   1.270   1.748  16.640 -0.3010 -0.0518 -0.1654
12706TIP3    H159533   1.322   1.670  16.619  0.6042  0.3568  0.5114
12706TIP3    H259534   1.335   1.816  16.656 -1.0947  0.9208 -1.0263
12707TIP3   OH259535   5.844   3.646   3.220  0.0476 -0.0903  0.3238
12707TIP3    H159536   5.883   3.616   3.302  2.6673 -2.5885 -1.7667
12707TIP3    H259537   5.913   3.697   3.177 -1.0974  0.7025 -0.6217
12708TIP3   OH259538   3.460   3.716   5.939 -0.2037 -0.4738 -0.0453
12708TIP3    H159539   3.422   3.788   5.990  1.1528 -0.8088  1.4837
12708TIP3    H259540   3.391   3.691   5.877 -1.1942  1.2025  0.3458
12709TIP3   OH259541   2.975   1.111  15.708  0.4211 -0.2370  0.0192
12709TIP3    H159542   2.987   1.198  15.745 -1.2379 -0.6205  1.5176
12709TIP3    H259543   2.967   1.053  15.784  2.5207 -1.8764 -0.9460
12710TIP3   OH259544   4.798   3.231  12.283  0.3703  0.4723  0.1658
12710TIP3    H159545   4.736   3.209  12.214 -0.6618 -0.2233  1.2862
12710TIP3    H259546   4.805   3.326  12.280 -0.2772  0.5075 -0.3755
12711TIP3   OH259547   5.083   1.005  14.158  0.1848  0.0483 -0.2289
12711TIP3    H159548   5.171   0.977  14.182  0.7689  0.4119 -1.9278
12711TIP3    H259549   5.033   1.001  14.240  1.9086  0.3402  0.8472
12712TIP3   OH259550   2.874   1.153   0.201  0.0978  0.2082  0.3567
12712TIP3    H159551   2.970   1.154   0.210  0.1310  0.4211 -0.0282
12712TIP3    H259552   2.845   1.217   0.267  0.1175 -1.0405  1.6087
12713TIP3   OH259553   4.913   2.392   0.235 -0.3329  0.3579 -0.4816
12713TIP3    H159554   4.943   2.309   0.273  0.7934  0.1284 -1.8306
12713TIP3    H259555   4.911   2.453   0.308  2.2777  0.0584 -0.1194
12714TIP3   OH259556   6.394   4.610   6.883  0.0784  0.7090  0.0995
12714TIP3    H159557   6.316   4.634   6.832  0.5955 -1.0687 -1.6190
12714TIP3    H259558   6.467   4.646   6.833  0.5591 -0.6244 -0.1770
12715TIP3   OH259559   2.427   1.627   4.636 -0.0830 -0.1353  0.7097
12715TIP3    H159560   2.412   1.552   4.579 -1.6436 -0.0814  1.0439
12715TIP3    H259561   2.473   1.690   4.579 -4.4499  1.2133 -1.5205
12716TIP3   OH259562   5.894   2.282  13.425  0.0677  0.1904  0.0685
12716TIP3    H159563   5.819   2.342  13.419 -0.1391  0.0784  1.2562
12716TIP3    H259564   5.965   2.337  13.458 -0.2839 -0.3142  1.7475
12717TIP3   OH259565   0.325   3.322   5.099 -0.4133 -0.2601  0.1221
12717TIP3    H159566   0.310   3.228   5.099 -0.2300 -0.3261  2.8733
12717TIP3    H259567   0.355   3.342   5.188  0.3375  2.2702 -0.6502
12718TIP3   OH259568   1.849   0.972   4.492 -0.4495  0.0340  0.3037
12718TIP3    H159569   1.907   0.927   4.553 -0.5381  0.0824  0.4220
12718TIP3    H259570   1.843   1.062   4.525 -1.6153 -0.2995  1.0112
12719TIP3   OH259571   0.042   5.599   0.398  0.0922  0.1365  0.3556
12719TIP3    H159572   0.008   5.684   0.424 -1.0854  0.4017 -1.9268
12719TIP3    H259573  -0.012   5.573   0.323  2.6065 -1.0536 -1.1194
12720TIP3   OH259574   3.644   4.608   0.957  0.5319  0.1906  0.0427
12720TIP3    H159575   3.564   4.560   0.979  0.8189 -1.2158 -1.8743
12720TIP3    H259576   3.621   4.700   0.972 -1.1841 -0.2550  0.2972
12721TIP3   OH259577   6.643   3.739   4.421 -0.0031 -0.5492 -0.3778
12721TIP3    H159578   6.655   3.775   4.333  0.6545 -1.3156 -0.6108
12721TIP3    H259579   6.725   3.692   4.439  0.8288  1.5087  1.5576
12722TIP3   OH259580   6.741   5.197  16.749 -0.4733  0.4998  0.3145
12722TIP3    H159581   6.707   5.109  16.761  2.0202 -0.5857 -0.2571
12722TIP3    H259582   6.689   5.234  16.677  1.6347 -2.2740 -2.7535
12723TIP3   OH259583   1.217   1.743  16.344  0.4279  0.6651  0.0983
12723TIP3    H159584   1.226   1.750  16.439  0.0886  0.2447  0.1587
12723TIP3    H259585   1.294   1.788  16.310  0.2282  1.3756  0.5590
12724TIP3   OH259586   5.983   2.851  12.515  0.2979 -0.5668  0.1740
12724TIP3    H159587   5.899   2.805  12.517 -0.1946  0.3565  1.8377
12724TIP3    H259588   5.992   2.889  12.602  2.3534 -0.4634 -0.0421
12725TIP3   OH259589   2.615   4.952   1.230  0.3201 -0.4364 -0.4001
12725TIP3    H159590   2.568   5.020   1.277  0.5219 -0.3775 -0.2826
12725TIP3    H259591   2.549   4.911   1.174  0.1305 -0.3554 -0.2351
12726TIP3   OH259592   2.943   4.119  15.504  0.0506  0.2429 -0.0063
12726TIP3    H159593   3.032   4.087  15.489 -0.3618 -1.6970  1.4948
12726TIP3    H259594   2.948   4.161  15.590 -0.4672  0.2050  0.0399
12727TIP3   OH259595   3.732   2.648  16.324  0.2310  0.0374 -0.1179
12727TIP3    H159596   3.701   2.585  16.258  0.9369  1.2165 -1.6174
12727TIP3    H259597   3.762   2.594  16.397 -3.6684 -1.2172  0.6649
12728TIP3   OH259598   4.715   1.435  16.889  0.2489 -0.3958  0.2666
12728TIP3    H159599   4.631   1.476  16.907  0.9914  0.1758  2.4609
12728TIP3    H259600   4.731   1.454  16.796 -0.9474  1.4680  0.4176
12729TIP3   OH259601   4.205   3.762  16.894  0.8531 -0.1806  0.1539
12729TIP3    H159602   4.215   3.754  16.989  0.2281 -0.7311  0.1745
12729TIP3    H259603   4.119   3.803  16.883  0.1253 -1.7921 -0.2316
12730TIP3   OH259604   2.606   0.324  13.268  0.1908 -0.1964  0.3359
12730TIP3    H159605   2.679   0.267  13.245 -1.2110 -1.5875 -0.7587
12730TIP3    H259606   2.528   0.271  13.251 -1.1318  1.9721 -0.5528
12731TIP3   OH259607   1.498   4.657  15.819  0.2328 -0.8720  0.2695
12731TIP3    H159608   1.573   4.676  15.876 -0.4744 -0.6546  1.1422
12731TIP3    H259609   1.534   4.659  15.731  0.8630  1.1615  0.5477
12732TIP3   OH259610   0.436   3.614   5.922 -0.1013 -0.0686 -0.0259
12732TIP3    H159611   0.418   3.552   5.994  0.5447 -0.3592 -0.1098
12732TIP3    H259612   0.367   3.597   5.858  0.9046 -1.7323 -0.7051
12733TIP3   OH259613   6.039   1.872   3.496 -0.1937 -0.7588 -0.1360
12733TIP3    H159614   5.952   1.863   3.536  0.8988 -0.8078  2.3314
12733TIP3    H259615   6.027   1.936   3.426 -2.0754 -0.2604  0.6229
12734TIP3   OH259616   6.432   2.221   3.789  0.4918  0.1083 -0.2601
12734TIP3    H159617   6.517   2.196   3.825 -0.4449  0.0373  1.9774
12734TIP3    H259618   6.452   2.288   3.724  2.4707 -1.7322 -1.6272
12735TIP3   OH259619   6.659   6.171  12.864  0.5738 -0.3301 -0.3494
12735TIP3    H159620   6.708   6.253  12.865  0.0308 -0.0043  0.2447
12735TIP3    H259621   6.571   6.195  12.894  0.0729 -0.9207 -1.3052
12736TIP3   OH259622   0.173   3.631   1.258  0.1062 -0.1819  0.4276
12736TIP3    H159623   0.124   3.668   1.185  0.0718  0.6627  0.8676
12736TIP3    H259624   0.175   3.537   1.241  0.1802  0.0210 -0.7045
12737TIP3   OH259625   5.400   2.467  16.769  0.2449  0.0060 -0.2066
12737TIP3    H159626   5.306   2.484  16.775  0.4166  0.1705  2.4833
12737TIP3    H259627   5.441   2.547  16.800  1.2897 -0.2047 -1.0146
12738TIP3   OH259628   4.353   6.206  12.412 -0.4921  0.2572 -0.2235
12738TIP3    H159629   4.382   6.187  12.323 -2.3262 -0.3606 -0.7226
12738TIP3    H259630   4.326   6.121  12.447  1.1409  0.3415  1.2791
12739TIP3   OH259631   6.722   1.476  16.291  0.1768  0.6169  0.0339
12739TIP3    H159632   6.646   1.454  16.237  0.8936 -2.2631  0.1260
12739TIP3    H259633   6.784   1.517  16.231 -0.9326  1.8586 -0.2922
12740TIP3   OH259634   1.574   3.197  15.479  0.3856  0.1189  0.2630
12740TIP3    H159635   1.525   3.240  15.549  2.3653 -0.6202  2.1672
12740TIP3    H259636   1.525   3.117  15.460  0.5351 -0.3395  1.7549
12741TIP3   OH259637   4.098   3.149  17.073  0.2676  0.5393  0.3000
12741TIP3    H159638   4.132   3.065  17.104  0.1442  0.1229 -0.6731
12741TIP3    H259639   4.006   3.150  17.102 -0.0493 -0.1594 -0.6395
12742TIP3   OH259640   5.592   5.042  17.207  0.1192  0.1691 -0.4288
12742TIP3    H159641   5.565   5.133  17.202  0.9600  0.4692  0.4443
12742TIP3    H259642   5.578   5.018  17.299  1.7405 -0.0073 -0.2215
12743TIP3   OH259643   6.712   4.944  15.546  0.1386  1.0814 -0.4306
12743TIP3    H159644   6.675   4.865  15.586 -0.1248  1.0530 -0.7205
12743TIP3    H259645   6.738   4.999  15.619  1.2042  0.3101 -0.2303
12744TIP3   OH259646   4.000   6.728  12.308 -0.1431  0.4847  0.0205
12744TIP3    H159647   4.060   6.654  12.298  0.1785  0.7558 -0.0806
12744TIP3    H259648   3.913   6.688  12.309  0.1323 -0.1186  2.2589
12745TIP3   OH259649   2.686   3.424  15.207 -0.3942  0.0200  0.0376
12745TIP3    H159650   2.705   3.341  15.164  0.8137 -0.5735  1.6673
12745TIP3    H259651   2.712   3.410  15.298 -0.0143  2.2436  0.2860
12746TIP3   OH259652   2.514   5.500  15.667  0.0257 -0.5147 -0.3396
12746TIP3    H159653   2.419   5.495  15.668 -0.1571  2.2628  1.0764
12746TIP3    H259654   2.536   5.532  15.580 -0.6393  2.5573  0.5507
12747TIP3   OH259655   5.080   0.872  11.693 -0.6066  0.0959  0.0897
12747TIP3    H159656   4.987   0.881  11.713 -0.8687 -0.7198 -0.6706
12747TIP3    H259657   5.125   0.916  11.764 -1.5060 -1.8189  1.8829
12748TIP3   OH259658   6.283   1.150  16.481 -0.1949  0.4693 -0.3385
12748TIP3    H159659   6.333   1.081  16.525  0.6042  2.0418  1.2745
12748TIP3    H259660   6.221   1.180  16.547 -0.2308  1.6024 -0.8872
12749TIP3   OH259661   5.347   3.293  13.341 -0.0516  0.1327 -0.1124
12749TIP3    H159662   5.309   3.316  13.256 -0.0290  0.2732 -0.0843
12749TIP3    H259663   5.272   3.263  13.393  0.1925 -1.6264 -0.7435
12750TIP3   OH259664   6.285   0.434  12.470 -0.1367 -0.1012 -0.7542
12750TIP3    H159665   6.378   0.431  12.490  0.3751 -0.9783 -3.0875
12750TIP3    H259666   6.271   0.519  12.429 -0.0704 -0.5158 -1.6567
12751TIP3   OH259667   0.941   2.606   6.310 -0.2913 -0.1235  0.0882
12751TIP3    H159668   0.889   2.679   6.345 -2.2530 -1.0072 -0.8960
12751TIP3    H259669   0.904   2.529   6.352  1.0562 -0.6607  0.2947
12752TIP3   OH259670   1.529   5.925  13.314 -0.4839  0.3997  0.0155
12752TIP3    H159671   1.505   5.936  13.222  0.5720 -1.8178 -0.5532
12752TIP3    H259672   1.586   6.000  13.333  1.2943 -0.4347 -1.8644
12753TIP3   OH259673   5.364   2.238   5.857 -0.0705 -0.1715  0.6311
12753TIP3    H159674   5.346   2.204   5.944 -0.6924 -1.8973 -0.1502
12753TIP3    H259675   5.294   2.300   5.840 -0.5217 -0.5852  0.9676
12754TIP3   OH259676   0.227   4.936  15.886  0.4339 -0.1443 -0.0297
12754TIP3    H159677   0.173   4.860  15.866 -0.3564  0.3780  0.0974
12754TIP3    H259678   0.315   4.900  15.900  0.1729 -0.9672 -0.4792
12755TIP3   OH259679   1.010   6.471   1.553  0.5964  0.8333 -0.3698
12755TIP3    H159680   0.922   6.462   1.590  0.7397 -0.1047 -0.2576
12755TIP3    H259681   1.058   6.521   1.619  0.6645 -0.2715  0.4420
12756TIP3   OH259682   2.791   5.276   4.871 -0.1977  0.6046 -0.2252
12756TIP3    H159683   2.727   5.218   4.829  1.3243 -0.2713 -1.3997
12756TIP3    H259684   2.863   5.218   4.897  0.3162  1.6269  0.6975
12757TIP3   OH259685   0.557   6.491   4.885  0.1644  0.8596 -0.5432
12757TIP3    H159686   0.585   6.502   4.976 -3.0223 -0.1881  0.6240
12757TIP3    H259687   0.463   6.473   4.891  0.1018 -0.2518 -3.9910
12758TIP3   OH259688   6.222   6.229  15.921  0.1293  0.8290  0.1951
12758TIP3    H159689   6.223   6.144  15.876 -0.6128  2.1242 -2.3775
12758TIP3    H259690   6.179   6.211  16.004  0.1360 -1.3555 -0.2288
12759TIP3   OH259691   3.350   1.041  14.560 -0.3896  0.5911  0.2514
12759TIP3    H159692   3.367   1.084  14.476  0.0000 -1.6806 -0.8486
12759TIP3    H259693   3.254   1.044  14.569 -0.4319  0.8231 -0.2585
12760TIP3   OH259694   5.045   1.707  16.934 -0.6649 -0.0250  0.4100
12760TIP3    H159695   4.988   1.720  16.859 -1.6569  0.8116  1.2856
12760TIP3    H259696   4.998   1.644  16.989 -0.8903  0.8646  1.2590
12761TIP3   OH259697   2.143   4.179   1.998 -0.4637  0.6441 -0.4223
12761TIP3    H159698   2.151   4.098   2.048  1.9554  0.8038 -0.4521
12761TIP3    H259699   2.078   4.160   1.930 -0.0035 -1.2467 -0.3602
12762TIP3   OH259700   4.162   2.278   5.259 -0.3958  0.0018 -0.1892
12762TIP3    H159701   4.129   2.198   5.300 -0.0191 -0.2683 -0.4168
12762TIP3    H259702   4.156   2.262   5.165 -2.6754  1.1824 -0.2962
12763TIP3   OH259703   0.576   1.077  15.540  0.0596 -0.5952  0.5419
12763TIP3    H159704   0.649   1.018  15.523  1.4058  1.1869  0.0258
12763TIP3    H259705   0.611   1.144  15.597 -0.8187  0.9584 -0.6808
12764TIP3   OH259706   5.701   6.768   3.797 -0.6886 -0.0317  0.5578
12764TIP3    H159707   5.646   6.722   3.860 -0.9243  2.2421  2.0765
12764TIP3    H259708   5.787   6.728   3.808 -1.2460 -1.2423  0.6529
12765TIP3   OH259709   2.035   3.715  13.125  0.0195  0.1826 -0.9417
12765TIP3    H159710   2.055   3.641  13.181  0.2249  0.7133 -0.3102
12765TIP3    H259711   2.022   3.789  13.185 -0.1980  0.6564 -1.5570
12766TIP3   OH259712   2.047   2.297   0.986  0.2272  0.8665  0.2981
12766TIP3    H159713   1.988   2.372   0.987 -2.3008 -1.0979  2.1806
12766TIP3    H259714   2.105   2.311   1.061 -0.1701  1.0089  0.5819
12767TIP3   OH259715   1.538   0.337  14.689  0.2174 -0.2638 -0.5567
12767TIP3    H159716   1.498   0.263  14.736 -1.3711  0.3922 -0.8217
12767TIP3    H259717   1.503   0.329  14.600  0.4559  0.5134 -0.7155
12768TIP3   OH259718   2.097   0.970   4.339 -0.6077  0.0770 -0.5163
12768TIP3    H159719   2.003   0.949   4.342 -0.2976 -1.4796 -1.2098
12768TIP3    H259720   2.120   0.962   4.246  0.0602  1.1993 -0.4572
12769TIP3   OH259721   2.971   6.748  13.595  0.2471 -0.2292 -0.2424
12769TIP3    H159722   2.976   6.729  13.501 -0.7212 -0.7496 -0.1938
12769TIP3    H259723   2.931   6.835  13.600  2.1263  0.6710 -0.3686
12770TIP3   OH259724   4.449   5.227  12.672  0.0241  0.0572  0.2523
12770TIP3    H159725   4.452   5.159  12.739 -0.4672 -1.8206 -1.5665
12770TIP3    H259726   4.522   5.285  12.694 -0.0242 -0.6072  2.2960
12771TIP3   OH259727   5.369   6.273   3.330  0.2496  0.0990 -0.2551
12771TIP3    H159728   5.330   6.277   3.418  3.0486  0.6851  1.0185
12771TIP3    H259729   5.301   6.234   3.276 -1.6301 -0.0885  2.1326
12772TIP3   OH259730   2.122   5.950  11.840  0.0784 -0.2184  0.3629
12772TIP3    H159731   2.057   5.899  11.888  2.5596 -1.8827  2.0369
12772TIP3    H259732   2.157   6.011  11.904  0.2736  0.5762 -0.4924
12773TIP3   OH259733   2.966   6.491   0.837 -0.6437  0.1030  0.3325
12773TIP3    H159734   2.974   6.575   0.793 -0.6715 -1.0358 -1.9125
12773TIP3    H259735   2.881   6.458   0.811  0.0764 -1.3878 -0.2053
12774TIP3   OH259736   3.158   4.124   1.704  0.4149  1.2257  1.0827
12774TIP3    H159737   3.065   4.138   1.687  0.0218 -1.2490  1.0303
12774TIP3    H259738   3.201   4.148   1.622 -0.4564 -0.3203  0.1496
12775TIP3   OH259739   1.919   4.442   3.310 -0.2032  0.8215  0.3961
12775TIP3    H159740   1.872   4.523   3.291 -1.1511  0.4629  1.1710
12775TIP3    H259741   2.000   4.470   3.352 -1.0860  1.3138  1.7976
12776TIP3   OH259742   4.832   0.177   0.185  0.2462  0.5339  0.0721
12776TIP3    H159743   4.757   0.180   0.244  0.2257 -0.3077  0.0827
12776TIP3    H259744   4.889   0.247   0.216 -0.6269  1.3242 -0.0657
12777TIP3   OH259745   4.316   3.288  15.787  0.5306  0.6719  0.0462
12777TIP3    H159746   4.253   3.347  15.830  1.5665  1.0187  1.1273
12777TIP3    H259747   4.401   3.313  15.824  0.9977 -1.4566  0.4879
12778TIP3   OH259748   4.044   1.605  15.228  0.4743 -0.2373  0.0126
12778TIP3    H159749   4.020   1.546  15.300  0.0517 -0.2012 -0.0954
12778TIP3    H259750   4.121   1.564  15.188  1.9437  0.7820  1.7275
12779TIP3   OH259751   6.245   4.077  12.933 -0.3515 -0.0526  0.2896
12779TIP3    H159752   6.329   4.035  12.912 -0.5640 -0.1269 -0.4140
12779TIP3    H259753   6.179   4.023  12.890 -0.7797 -0.0816  0.9747
12780TIP3   OH259754   1.577   1.457  14.071 -0.4685 -0.3357  0.0933
12780TIP3    H159755   1.643   1.516  14.037  1.4692 -0.1948  3.8892
12780TIP3    H259756   1.616   1.370  14.064 -1.1724 -0.6078 -0.5665
12781TIP3   OH259757   3.658   4.902  13.060 -0.2806  0.1966  0.1793
12781TIP3    H159758   3.612   4.867  13.136 -0.9526  1.8923  0.5801
12781TIP3    H259759   3.608   4.872  12.985 -1.1386  0.7284  0.5386
12782TIP3   OH259760   0.072   4.337   0.494 -0.3350  0.5283 -0.5938
12782TIP3    H159761   0.072   4.390   0.415 -1.5503  1.7750  0.2350
12782TIP3    H259762   0.132   4.265   0.474 -2.3430 -0.4524 -3.4908
12783TIP3   OH259763   3.582   2.640   4.200 -0.3596  0.3839 -0.2947
12783TIP3    H159764   3.581   2.560   4.251 -1.8375 -0.0963 -1.0228
12783TIP3    H259765   3.499   2.638   4.151 -0.5458  2.4694 -0.1268
12784TIP3   OH259766   1.425   1.314  11.453 -0.1068  0.5177  0.3556
12784TIP3    H159767   1.417   1.394  11.401 -1.0547  0.2857  0.1280
12784TIP3    H259768   1.472   1.253  11.396 -1.8196  0.0128 -0.5335
12785TIP3   OH259769   0.830   6.285   4.886  0.3161 -0.5210  0.6276
12785TIP3    H159770   0.851   6.280   4.793  0.3767 -1.7199  0.6991
12785TIP3    H259771   0.844   6.196   4.919 -0.3909 -0.2710  1.6367
12786TIP3   OH259772   6.144   2.042  13.620 -0.6986  0.1325  0.5044
12786TIP3    H159773   6.102   1.957  13.608 -0.2857 -0.0026 -0.0031
12786TIP3    H259774   6.071   2.104  13.625 -1.1045 -0.4774  2.9703
12787TIP3   OH259775   3.146   3.532  14.617 -0.3685 -0.7730 -0.0186
12787TIP3    H159776   3.103   3.586  14.683 -1.6099 -1.5629 -0.1541
12787TIP3    H259777   3.237   3.525  14.646 -0.6545 -0.1994  1.0096
12788TIP3   OH259778   1.047   6.627   0.056  0.5849  0.4583  0.2298
12788TIP3    H159779   0.966   6.600   0.014  0.4056 -1.2087  1.5943
12788TIP3    H259780   1.109   6.557   0.036 -0.2941 -1.9122  5.0606
12789TIP3   OH259781   3.832   6.408   5.939  0.5630 -0.2444 -0.2761
12789TIP3    H159782   3.753   6.399   5.993  1.3451 -3.6398  0.4318
12789TIP3    H259783   3.885   6.474   5.984  0.8237 -2.3986  2.7042
12790TIP3   OH259784   3.944   0.076  15.323  0.1893 -0.2927 -0.1507
12790TIP3    H159785   3.961   0.001  15.266 -0.8404 -0.2024 -0.6059
12790TIP3    H259786   3.856   0.059  15.358 -0.8731  1.6331 -1.7833
12791TIP3   OH259787   2.073   2.317  14.150 -0.1505 -0.4086  0.3601
12791TIP3    H159788   2.013   2.297  14.221 -2.1326  1.3345 -0.7818
12791TIP3    H259789   2.028   2.286  14.071  0.3212  1.1767 -0.5362
12792TIP3   OH259790   6.063   0.231   1.154 -1.1720 -0.8411  0.1420
12792TIP3    H159791   6.044   0.181   1.233  1.7877 -1.2926  0.6398
12792TIP3    H259792   6.151   0.204   1.129 -0.1154  2.8704 -0.5364
12793TIP3   OH259793   0.703   6.500  14.809 -0.1601 -0.0305  0.3649
12793TIP3    H159794   0.650   6.430  14.772  0.8109  0.3742 -1.8584
12793TIP3    H259795   0.771   6.455  14.860  0.1001 -0.6720 -0.5528
12794TIP3   OH259796   6.358   2.798  16.101 -0.4431 -0.4114  0.2432
12794TIP3    H159797   6.404   2.795  16.018 -1.4715  0.6492 -0.3792
12794TIP3    H259798   6.296   2.725  16.096 -0.7241 -0.1521 -0.0497
12795TIP3   OH259799   0.955   1.449   6.300 -0.3452  0.0453 -0.5934
12795TIP3    H159800   0.895   1.522   6.282  1.6910  1.3402 -2.3224
12795TIP3    H259801   0.912   1.373   6.260 -1.3996  0.7209 -0.7860
12796TIP3   OH259802   5.290   3.312   2.970 -0.2693  0.0570 -0.5505
12796TIP3    H159803   5.205   3.336   3.005  0.3047 -0.4587  1.2252
12796TIP3    H259804   5.301   3.220   2.993  1.6278  0.6470  1.0794
12797TIP3   OH259805   4.258   1.587  11.711  0.1171  1.0464  0.1626
12797TIP3    H159806   4.342   1.560  11.748 -0.2732  0.1116  0.3726
12797TIP3    H259807   4.271   1.678  11.687  1.4067  0.7303 -0.3962
12798TIP3   OH259808   2.075   2.533   0.550  0.1458  0.3053 -0.8041
12798TIP3    H159809   2.013   2.532   0.623  1.2358  0.7515  0.1567
12798TIP3    H259810   2.058   2.452   0.503 -0.3154 -0.1756  0.1718
12799TIP3   OH259811   2.299   6.075  12.707 -0.1088 -0.3706 -0.4213
12799TIP3    H159812   2.346   6.158  12.716  1.2362 -1.0283 -1.1775
12799TIP3    H259813   2.215   6.099  12.669 -1.0512  1.0090  2.3682
12800TIP3   OH259814   1.650   1.104   5.253 -0.0491  0.4295  0.5364
12800TIP3    H159815   1.592   1.180   5.253 -1.8312 -0.8989 -0.5455
12800TIP3    H259816   1.682   1.098   5.163 -1.0682 -0.9368  0.2461
12801TIP3   OH259817   0.756   6.215   2.477 -0.2789 -0.2237  0.0366
12801TIP3    H159818   0.813   6.149   2.516 -1.4307 -1.0631  0.3231
12801TIP3    H259819   0.748   6.189   2.385 -0.7668 -0.5103  0.1590
12802TIP3   OH259820   2.555   4.710   4.295  0.6912 -0.2360  0.5425
12802TIP3    H159821   2.594   4.647   4.355 -1.4933  0.8052  3.1417
12802TIP3    H259822   2.477   4.666   4.260  0.2081  0.3199  0.9093
12803TIP3   OH259823   5.925   1.463  15.258  0.0491  0.7487 -0.3072
12803TIP3    H159824   5.974   1.542  15.239 -0.4447  0.4491 -3.0383
12803TIP3    H259825   5.842   1.474  15.212 -0.0390 -1.3232 -0.7235
12804TIP3   OH259826   1.303   1.861  12.915 -0.4298 -0.4040  0.1191
12804TIP3    H159827   1.316   1.900  12.829  0.8670 -2.7783 -0.7862
12804TIP3    H259828   1.217   1.819  12.910 -0.3192 -0.6111 -0.0459
12805TIP3   OH259829   4.588   3.788   5.753 -0.0184 -0.2823  0.2188
12805TIP3    H159830   4.518   3.841   5.715 -1.6180 -1.7863  0.9933
12805TIP3    H259831   4.580   3.800   5.847  1.1228 -0.0490  0.3027
12806TIP3   OH259832   0.256   5.159   1.770 -0.6914  0.5123  0.4866
12806TIP3    H159833   0.206   5.224   1.819  1.7510  1.9685  1.1742
12806TIP3    H259834   0.340   5.202   1.752 -0.3691 -1.1382 -2.2526
12807TIP3   OH259835   4.211   1.564  10.616 -0.0176  0.1206  0.8576
12807TIP3    H159836   4.205   1.475  10.582  0.6118  0.3779  0.0677
12807TIP3    H259837   4.207   1.620  10.538  0.4366  0.7518  1.2858
12808TIP3   OH259838   0.987   6.617  15.750  0.0770  0.2017 -0.0016
12808TIP3    H159839   0.901   6.576  15.750  0.2872 -0.2405 -0.1757
12808TIP3    H259840   0.988   6.670  15.670  0.1586 -0.1937 -0.2601
12809TIP3   OH259841   4.921   3.851   2.951 -0.3782  0.2581  0.0928
12809TIP3    H159842   4.933   3.936   2.993 -2.2462  0.8947 -0.6171
12809TIP3    H259843   4.864   3.803   3.012  0.6684 -0.5017  0.4918
12810TIP3   OH259844   3.046   4.430   1.629 -0.0053 -0.5317 -0.0796
12810TIP3    H159845   3.052   4.463   1.539 -0.1350 -1.5874 -0.4847
12810TIP3    H259846   3.098   4.350   1.628  0.8388 -0.0219  1.0524
12811TIP3   OH259847   4.534   5.429   1.179 -0.1965  0.0236 -0.3106
12811TIP3    H159848   4.581   5.509   1.204 -1.1367  0.6955 -0.6957
12811TIP3    H259849   4.542   5.372   1.255  0.0936  0.6552  0.1374
12812TIP3   OH259850   0.177   2.628   3.459 -0.6090  0.4031  0.1681
12812TIP3    H159851   0.263   2.587   3.467 -0.2749  1.0085 -0.2666
12812TIP3    H259852   0.117   2.555   3.444  0.1006  0.1177 -1.4549
12813TIP3   OH259853   5.854   2.877  10.654  0.1203  0.2421 -0.4504
12813TIP3    H159854   5.915   2.803  10.665  0.6407  1.1593  3.7329
12813TIP3    H259855   5.901   2.952  10.690 -2.0611  1.7475 -0.6662
12814TIP3   OH259856   6.407   2.334  17.063 -0.4169  0.0063 -0.1044
12814TIP3    H159857   6.326   2.286  17.048  1.5063 -4.1711  1.9719
12814TIP3    H259858   6.463   2.311  16.989  0.4684 -0.8825  0.8299
12815TIP3   OH259859   2.274   1.221  16.766  0.1587  0.6873  0.2043
12815TIP3    H159860   2.303   1.161  16.835 -0.4063 -0.0087 -0.1545
12815TIP3    H259861   2.224   1.288  16.812  1.9731  1.6735  0.7742
12816TIP3   OH259862   3.690   0.852  15.590  0.2462 -0.0307  0.3331
12816TIP3    H159863   3.625   0.877  15.655 -0.7600  1.1752 -1.0961
12816TIP3    H259864   3.744   0.787  15.634 -1.7732 -0.8783  1.6286
12817TIP3   OH259865   4.613   3.505  13.492  0.1237  0.3225  0.0755
12817TIP3    H159866   4.525   3.486  13.460  1.2335 -0.6063 -2.5065
12817TIP3    H259867   4.662   3.424  13.479  0.8729  0.1459  3.4571
12818TIP3   OH259868   1.708   5.575  14.973  1.0493  0.2943 -0.3682
12818TIP3    H159869   1.757   5.493  14.962 -0.5786 -0.8023  0.3924
12818TIP3    H259870   1.633   5.551  15.028  0.8028  2.3952  0.2554
12819TIP3   OH259871   5.517   5.583  15.699  0.3927  0.0882 -0.1244
12819TIP3    H159872   5.487   5.664  15.742 -1.6572  0.0546 -1.4214
12819TIP3    H259873   5.505   5.515  15.765  1.0412  0.6481  0.5845
12820TIP3   OH259874   5.296   0.462   4.221 -0.0643  0.7189  0.1338
12820TIP3    H159875   5.335   0.455   4.308  0.9392  0.2417 -0.3504
12820TIP3    H259876   5.219   0.406   4.224  0.9976 -0.7543  0.1519
12821TIP3   OH259877   4.619   1.897  11.159 -0.1048 -0.0693  0.0790
12821TIP3    H159878   4.532   1.890  11.199 -1.0688  2.0219 -1.5185
12821TIP3    H259879   4.638   1.809  11.126 -1.8478 -0.4380  0.0118
12822TIP3   OH259880   2.297   6.420   2.198  0.5483 -0.3345 -0.6736
12822TIP3    H159881   2.213   6.421   2.244  0.8406 -0.5669 -0.1407
12822TIP3    H259882   2.343   6.498   2.229  0.8033 -0.5686 -0.4642
12823TIP3   OH259883   4.509   1.576  14.838  0.4245 -0.2369  0.3904
12823TIP3    H159884   4.532   1.666  14.862 -0.1571 -0.6178  2.4856
12823TIP3    H259885   4.567   1.521  14.890  1.4879 -1.0788 -1.6588
12824TIP3   OH259886   6.483   2.983   5.066  0.6043  0.1019 -0.3883
12824TIP3    H159887   6.419   3.049   5.094  1.9130  1.4013 -0.3593
12824TIP3    H259888   6.524   2.954   5.147 -0.9567 -1.8289 -0.2626
12825TIP3   OH259889   4.717   6.458   4.287 -0.0381 -0.3902 -0.4678
12825TIP3    H159890   4.715   6.492   4.197 -1.6873  0.0999 -0.2633
12825TIP3    H259891   4.676   6.372   4.281  0.3211 -0.5706 -0.2826
12826TIP3   OH259892   1.684   0.825   1.694 -0.1983  0.7521 -0.5889
12826TIP3    H159893   1.635   0.751   1.656  0.2508  0.2100 -0.1250
12826TIP3    H259894   1.717   0.873   1.618 -1.4516  1.1326 -0.9076
12827TIP3   OH259895   3.688   2.152  13.569  0.3735 -0.0423 -0.0490
12827TIP3    H159896   3.660   2.102  13.492  3.0786  1.1046 -1.8559
12827TIP3    H259897   3.703   2.241  13.535 -1.1381  1.1852  2.4065
12828TIP3   OH259898   5.988   5.135   3.268  0.7189  0.0247  0.2336
12828TIP3    H159899   5.985   5.060   3.327 -2.2306  0.4207  0.6311
12828TIP3    H259900   5.988   5.096   3.180 -1.4528 -0.4595  0.4281
12829TIP3   OH259901   4.144   0.886   5.557 -0.1130 -0.6121 -0.2113
12829TIP3    H159902   4.134   0.895   5.462  0.8631 -1.1525 -0.3760
12829TIP3    H259903   4.239   0.894   5.571  0.0861 -3.4854  0.3720
12830TIP3   OH259904   1.023   1.862   0.277  0.0652 -0.3421  0.2062
12830TIP3    H159905   1.056   1.801   0.343 -0.0670 -0.0039  0.5840
12830TIP3    H259906   0.933   1.832   0.261  0.3351 -0.8614 -0.3445
12831TIP3   OH259907   1.498   3.500   0.665  0.6611 -0.0065  0.6959
12831TIP3    H159908   1.492   3.434   0.734 -1.2250 -1.7141 -1.0155
12831TIP3    H259909   1.444   3.573   0.696  2.3396  0.5346  2.3719
12832TIP3   OH259910   3.015   6.218  11.858 -0.3952 -0.6054  0.3421
12832TIP3    H159911   3.016   6.127  11.889 -1.3348 -0.9582 -0.6456
12832TIP3    H259912   3.104   6.234  11.827 -0.4971 -1.5169 -0.4202
12833TIP3   OH259913   2.636   0.628   2.194 -0.1775 -0.0134  0.1263
12833TIP3    H159914   2.623   0.599   2.104  5.6551  0.3396 -1.0206
12833TIP3    H259915   2.659   0.548   2.242  0.5296  0.3899  0.4609
12834TIP3   OH259916   5.801   4.473  16.225 -0.1228 -0.1337  0.1673
12834TIP3    H159917   5.791   4.380  16.204 -2.5645 -0.1368  1.0833
12834TIP3    H259918   5.785   4.478  16.319 -1.7356  1.3946 -0.1426
12835TIP3   OH259919   2.382   6.677   2.334  0.0712 -0.5586 -0.3417
12835TIP3    H159920   2.448   6.734   2.295  1.0110 -1.5590 -0.2476
12835TIP3    H259921   2.301   6.726   2.326  0.7196  0.4399 -1.0169
12836TIP3   OH259922   1.479   6.601   3.938  0.1061  1.4290 -0.3854
12836TIP3    H159923   1.444   6.622   3.851  0.5234 -0.6231 -1.0818
12836TIP3    H259924   1.406   6.560   3.984  0.8524 -0.7568 -1.0471
12837TIP3   OH259925   4.402   0.795  12.515  0.1104  0.6009  0.0681
12837TIP3    H159926   4.366   0.884  12.513 -1.0677  0.1754  1.2718
12837TIP3    H259927   4.351   0.751  12.583  0.3189 -1.1515 -0.8992
12838TIP3   OH259928   3.687   4.127  12.571 -0.1683 -0.3185  0.1630
12838TIP3    H159929   3.643   4.152  12.490  0.9326 -2.1850 -1.0618
12838TIP3    H259930   3.683   4.205  12.626 -0.7669  1.0516 -1.7594
12839TIP3   OH259931   0.981   4.889   3.259 -0.2508  1.0557  0.6320
12839TIP3    H159932   0.934   4.808   3.280  0.4250  0.9431  1.7535
12839TIP3    H259933   1.058   4.887   3.315 -0.0437  2.3105  0.4098
12840TIP3   OH259934   5.103   6.306  11.502 -0.2830 -0.2204 -0.2220
12840TIP3    H159935   5.008   6.315  11.504 -0.2173  0.6364 -0.5987
12840TIP3    H259936   5.127   6.328  11.412  0.3706  0.7048  0.1680
12841TIP3   OH259937   1.138   0.167   1.471  0.1238 -0.4063  0.5341
12841TIP3    H159938   1.122   0.260   1.489  2.3732  0.2319 -0.5124
12841TIP3    H259939   1.083   0.147   1.395 -0.5472 -0.0002  0.9090
12842TIP3   OH259940   0.650   6.275   6.313 -0.3165 -0.5482  0.0443
12842TIP3    H159941   0.712   6.203   6.301  0.5664  0.4352 -1.4555
12842TIP3    H259942   0.567   6.241   6.278 -0.4485 -1.5792  1.3225
12843TIP3   OH259943   2.636   4.115  14.635  0.4029  0.3554 -0.2222
12843TIP3    H159944   2.648   4.207  14.659 -1.1630  0.5296 -0.0773
12843TIP3    H259945   2.549   4.093  14.667  0.7261 -1.1634 -0.3370
12844TIP3   OH259946   4.411   3.595   1.482 -0.2819  0.4708  0.4629
12844TIP3    H159947   4.386   3.676   1.436  0.4934 -1.2175 -3.1218
12844TIP3    H259948   4.506   3.596   1.482 -0.2663 -0.7294 -0.1323
12845TIP3   OH259949   6.379   3.052   0.120  0.2529  0.4990 -0.2896
12845TIP3    H159950   6.413   3.141   0.106  1.0879  0.4542  1.3636
12845TIP3    H259951   6.393   3.008   0.036 -0.4197  2.0045 -1.2085
12846TIP3   OH259952   6.213   6.202   4.291 -0.3135 -0.7908 -0.2419
12846TIP3    H159953   6.306   6.219   4.302 -0.3325 -0.5937 -0.3785
12846TIP3    H259954   6.201   6.111   4.319  0.1719 -1.2881 -1.6287
12847TIP3   OH259955   1.561   2.501  11.969 -0.3011 -0.0664 -0.2888
12847TIP3    H159956   1.650   2.483  11.998  0.2332  0.3612 -1.6177
12847TIP3    H259957   1.571   2.535  11.880 -1.8016 -0.1755 -0.5177
12848TIP3   OH259958   1.406   2.088   0.705  0.5352  0.2590  0.0683
12848TIP3    H159959   1.484   2.137   0.729  0.3233  0.6884 -0.1034
12848TIP3    H259960   1.439   2.005   0.671  0.7998 -0.5974  2.3933
12849TIP3   OH259961   2.064   5.932   4.880 -0.6039 -0.1369  0.5231
12849TIP3    H159962   2.037   5.846   4.848  0.7976 -0.9623  1.4573
12849TIP3    H259963   2.048   5.928   4.975 -0.5638  0.6398  0.5673
12850TIP3   OH259964   1.907   1.798  13.153 -0.0873 -0.5274 -0.0179
12850TIP3    H159965   1.897   1.854  13.230 -2.0249 -2.0589  0.8801
12850TIP3    H259966   1.867   1.847  13.081  1.8259  0.9521 -0.0927
12851TIP3   OH259967   3.739   6.451   2.343 -0.6141 -0.3017 -0.1454
12851TIP3    H159968   3.739   6.533   2.294  2.2453  0.1647  0.5271
12851TIP3    H259969   3.770   6.386   2.281 -1.7705 -0.6763 -0.3445
12852TIP3   OH259970   6.195   0.457   1.577 -0.1929  0.1675  0.1709
12852TIP3    H159971   6.287   0.433   1.577 -0.2986 -0.2482 -0.3793
12852TIP3    H259972   6.174   0.475   1.669  1.1029  2.8878 -0.0145
12853TIP3   OH259973   0.025   1.535  12.018 -0.5115  0.5300  0.2966
12853TIP3    H159974  -0.059   1.501  11.985 -0.6887  0.9508  0.3189
12853TIP3    H259975   0.049   1.474  12.087  0.9374 -1.6589 -2.0294
12854TIP3   OH259976   5.377   3.263  11.894  0.5936 -0.1315  0.2431
12854TIP3    H159977   5.399   3.298  11.807 -0.8829 -1.3700 -0.6485
12854TIP3    H259978   5.387   3.338  11.953 -0.5858  1.3220 -1.3321
12855TIP3   OH259979   4.315   4.432   1.184  0.4364  0.0409 -0.7743
12855TIP3    H159980   4.276   4.482   1.256 -1.5380 -1.6997 -0.5891
12855TIP3    H259981   4.244   4.425   1.119  1.9988  1.0458 -2.6392
12856TIP3   OH259982   1.957   1.295   5.217 -0.0765  0.2381  0.3020
12856TIP3    H159983   1.899   1.285   5.142  0.9246 -1.0568 -0.3332
12856TIP3    H259984   2.041   1.258   5.188  0.4798  0.2064  1.8718
12857TIP3   OH259985   2.193   5.686  15.630 -0.3412  0.0278  0.3945
12857TIP3    H159986   2.244   5.691  15.549 -1.7508 -0.6255 -0.5544
12857TIP3    H259987   2.122   5.750  15.617 -1.3241 -1.0235  0.5542
12858TIP3   OH259988   6.596   4.613   4.283  0.2043  0.8379  0.1461
12858TIP3    H159989   6.585   4.682   4.217 -0.0516 -0.7872 -1.5551
12858TIP3    H259990   6.513   4.566   4.282  0.0366  1.0548  1.9811
12859TIP3   OH259991   3.751   4.989   3.968 -0.9120  0.3773 -0.1623
12859TIP3    H159992   3.752   5.001   3.873  0.3823  1.5001 -0.0201
12859TIP3    H259993   3.844   4.987   3.993 -1.2175  2.9694  1.4006
12860TIP3   OH259994   4.508   2.423  13.594 -0.4440  0.4302 -0.1644
12860TIP3    H159995   4.506   2.382  13.680  0.7848  1.2208  0.2595
12860TIP3    H259996   4.601   2.438  13.577 -0.7099  0.6440 -1.4553
12861TIP3   OH259997   1.878   0.137  12.526 -0.5894  0.5746 -0.3369
12861TIP3    H159998   1.871   0.101  12.615  1.2835 -1.1209 -0.8244
12861TIP3    H259999   1.848   0.066  12.469  3.0033 -0.2695 -1.3222
12862TIP3   OH260000   6.247   4.058   5.448 -1.0022  0.4027 -0.5587
12862TIP3    H160001   6.234   4.049   5.542 -0.8455  2.3193 -0.3222
12862TIP3    H260002   6.317   3.996   5.426 -0.7239  0.2813  0.6724
12863TIP3   OH260003   0.689   5.714  14.429  0.2396  0.3563 -0.0974
12863TIP3    H160004   0.724   5.744  14.513 -1.3035  0.5181  0.5034
12863TIP3    H260005   0.602   5.681  14.450  0.7265 -1.7430 -1.2635
12864TIP3   OH260006   0.117   4.534   1.584  0.1610  0.2643 -0.0835
12864TIP3    H160007   0.123   4.623   1.548  0.0867  1.1863  2.1026
12864TIP3    H260008   0.163   4.540   1.668  0.8820 -1.9869 -0.3000
12865TIP3   OH260009   0.583   5.109  10.309  0.3553 -0.7783 -0.1652
12865TIP3    H160010   0.567   5.039  10.373 -0.6967 -1.0663 -0.7403
12865TIP3    H260011   0.598   5.063  10.227 -1.1112 -0.2956 -0.7058
12866TIP3   OH260012   3.313   5.029   5.454 -0.2849 -0.0691 -0.0408
12866TIP3    H160013   3.329   5.101   5.393  0.1987  1.0382  1.3736
12866TIP3    H260014   3.258   5.067   5.523 -1.3252 -1.4600 -0.0758
12867TIP3   OH260015   5.162   0.598   4.803  0.0450 -0.0295 -0.0268
12867TIP3    H160016   5.084   0.546   4.785 -0.5282 -0.2750  2.8342
12867TIP3    H260017   5.234   0.536   4.796 -0.3778 -0.6263  0.6945
12868TIP3   OH260018   2.385   1.085  15.293  0.1653  0.0550  0.2190
12868TIP3    H160019   2.375   1.094  15.387 -1.1790  1.4876 -0.0486
12868TIP3    H260020   2.465   1.135  15.273  0.5358 -0.3756  0.6078
12869TIP3   OH260021   5.212   2.638  16.200 -0.1662 -0.1033 -0.1074
12869TIP3    H160022   5.304   2.609  16.203 -0.4918 -1.0096  1.0975
12869TIP3    H260023   5.164   2.571  16.247 -1.6479 -0.3081 -1.8516
12870TIP3   OH260024   5.558   3.759  14.781 -0.2473 -0.0346  0.0477
12870TIP3    H160025   5.621   3.808  14.834  0.9774 -2.5437  1.0099
12870TIP3    H260026   5.500   3.718  14.846 -0.0699 -1.3766 -0.6241
12871TIP3   OH260027   5.057   3.470  17.051 -0.2394 -0.0187  0.3158
12871TIP3    H160028   4.969   3.497  17.078 -0.4592  0.5781 -0.9720
12871TIP3    H260029   5.088   3.541  16.995  0.5808 -0.7864 -0.2224
12872TIP3   OH260030   4.516   6.734   5.382 -0.5019 -0.3457 -0.0276
12872TIP3    H160031   4.464   6.653   5.379  2.6078 -2.3695 -2.3520
12872TIP3    H260032   4.453   6.803   5.363 -2.9563 -2.3634  0.4358
12873TIP3   OH260033   5.853   0.853  11.488  0.5721  0.1882  0.1034
12873TIP3    H160034   5.901   0.872  11.568 -0.4316 -1.4895  1.1274
12873TIP3    H260035   5.920   0.836  11.422  1.3917  1.0938  0.6974
12874TIP3   OH260036   4.221   3.740  11.815 -0.2927  0.5149 -0.3200
12874TIP3    H160037   4.244   3.709  11.727 -0.3278 -1.5174  0.3599
12874TIP3    H260038   4.126   3.749  11.813 -0.4667 -1.1359 -0.0068
12875TIP3   OH260039   6.198   4.879   6.287  0.1003 -0.2517 -0.4753
12875TIP3    H160040   6.250   4.945   6.333  0.0227  0.2158 -1.0592
12875TIP3    H260041   6.108   4.894   6.316 -0.3068  1.5692 -2.5440
12876TIP3   OH260042   1.255   3.938   3.716 -0.2798  0.0921  0.1180
12876TIP3    H160043   1.318   3.911   3.650 -0.1899 -1.1160  0.6923
12876TIP3    H260044   1.192   3.866   3.721 -0.4209  0.2802  1.1650
12877TIP3   OH260045   4.907   6.611   0.345 -0.0245  0.5695 -0.6082
12877TIP3    H160046   4.991   6.572   0.321  1.1688  2.7247  0.0080
12877TIP3    H260047   4.880   6.660   0.267 -0.0675  0.9545 -0.3531
12878TIP3   OH260048   2.203   4.112   2.977 -0.2824 -0.2968  0.1846
12878TIP3    H160049   2.235   4.197   3.008 -2.1302  0.4838 -0.0191
12878TIP3    H260050   2.123   4.097   3.028  0.5327 -2.3754  0.9168
12879TIP3   OH260051   5.042   6.357   5.810  0.2371  0.3384 -0.5041
12879TIP3    H160052   5.084   6.278   5.844  2.3739  1.8326  0.4681
12879TIP3    H260053   5.085   6.373   5.726  1.1960  1.4977  0.1821
12880TIP3   OH260054   4.224   3.933   3.654 -0.3069  0.5573  0.3656
12880TIP3    H160055   4.183   3.860   3.608 -1.9060  1.8122 -0.2375
12880TIP3    H260056   4.309   3.943   3.613 -1.0108  0.5163 -1.1382
12881TIP3   OH260057   6.592   0.782   4.549 -0.2822  0.0469 -0.5632
12881TIP3    H160058   6.532   0.721   4.592 -0.9414  1.6255  0.8074
12881TIP3    H260059   6.648   0.813   4.620 -0.0869  1.1834 -1.2180
12882TIP3   OH260060   2.677   6.193  10.582  0.0834 -0.0963  0.1443
12882TIP3    H160061   2.693   6.278  10.543 -2.2716 -0.4180 -1.6182
12882TIP3    H260062   2.745   6.183  10.648  0.7189  2.8918 -0.0270
12883TIP3   OH260063   3.075   4.281  12.718 -0.5064 -0.7617 -0.0504
12883TIP3    H160064   3.006   4.343  12.742  0.3972  0.3888 -0.3783
12883TIP3    H260065   3.028   4.206  12.682 -1.7342 -1.1371  2.1870
12884TIP3   OH260066   2.096   2.289  13.053 -0.0735  0.0278 -0.0900
12884TIP3    H160067   2.182   2.250  13.038  0.5448  1.0084  0.8080
12884TIP3    H260068   2.054   2.229  13.115  1.5350  1.6162  2.6436
12885TIP3   OH260069   2.116   3.531   0.643 -0.6511 -0.1912  0.3937
12885TIP3    H160070   2.200   3.524   0.597 -0.8787  1.3693 -0.2856
12885TIP3    H260071   2.125   3.611   0.696 -1.4021 -0.4800  0.9566
12886TIP3   OH260072   5.785   6.104  15.241  0.6713 -0.0298 -0.2949
12886TIP3    H160073   5.751   6.160  15.170  0.7198  0.5846  0.1653
12886TIP3    H260074   5.864   6.065  15.203 -0.6330 -1.6352 -1.4416
12887TIP3   OH260075   3.933   1.131  16.656  0.5122 -0.3222 -0.5471
12887TIP3    H160076   3.962   1.221  16.646  0.5303 -0.3340 -0.5990
12887TIP3    H260077   3.926   1.097  16.567  1.5511 -0.7014 -0.4957
12888TIP3   OH260078   6.261   2.846   0.894  0.7101 -0.3118 -0.1849
12888TIP3    H160079   6.341   2.841   0.842  0.5047 -1.8511 -0.3734
12888TIP3    H260080   6.191   2.823   0.832  0.1154  0.9265 -0.0014
12889TIP3   OH260081   4.603   1.886  10.631 -0.2530  0.4961  0.2815
12889TIP3    H160082   4.578   1.827  10.559  0.6765 -1.0764  1.2099
12889TIP3    H260083   4.549   1.964  10.618  2.1870  1.6176 -3.9942
12890TIP3   OH260084   0.336   6.714   5.153  0.6933 -0.2589  0.3807
12890TIP3    H160085   0.335   6.620   5.171  0.4011  0.0361  1.9791
12890TIP3    H260086   0.313   6.755   5.237 -1.9421  1.1589 -0.9866
12891TIP3   OH260087   5.626   4.927  15.085  0.9200 -0.0610  0.2581
12891TIP3    H160088   5.567   5.002  15.076 -0.4863 -1.2193 -0.3398
12891TIP3    H260089   5.699   4.947  15.027 -0.4496 -0.0787 -1.5241
12892TIP3   OH260090   6.725   1.635   3.296  0.7146 -0.1534 -0.1181
12892TIP3    H160091   6.764   1.561   3.343 -0.6561 -0.9758 -0.2592
12892TIP3    H260092   6.658   1.596   3.241  0.5992  1.1036 -0.8891
12893TIP3   OH260093   0.650   2.193   5.061  0.1983 -0.0731  0.0680
12893TIP3    H160094   0.726   2.178   5.117 -0.9563 -0.3072  1.6011
12893TIP3    H260095   0.664   2.279   5.022  1.3105 -0.1835  0.2255
12894TIP3   OH260096   6.646   5.454   3.338 -0.0198 -0.2147 -0.1662
12894TIP3    H160097   6.584   5.524   3.355  0.9731  0.6276  0.0272
12894TIP3    H260098   6.725   5.479   3.385  0.9482 -0.5520 -1.5679
12895TIP3   OH260099   6.121   5.333  13.623 -0.1082 -0.0228 -0.2487
12895TIP3    H160100   6.110   5.397  13.693 -0.2335  0.1213 -0.3992
12895TIP3    H260101   6.120   5.248  13.667  0.5153  0.0947  0.0106
12896TIP3   OH260102   2.825   5.424  11.666  0.5566 -0.4416  0.0369
12896TIP3    H160103   2.782   5.495  11.618  1.8034 -0.0352 -0.5145
12896TIP3    H260104   2.817   5.348  11.609  1.1680 -0.1942 -0.3916
12897TIP3   OH260105   3.915   6.650  11.884  0.2789 -0.7136  0.5099
12897TIP3    H160106   3.830   6.612  11.907 -0.5223 -0.6934 -2.2588
12897TIP3    H260107   3.977   6.579  11.895 -0.3445 -1.1942  0.9619
12898TIP3   OH260108   3.936   3.825  16.932 -0.1026  0.5924  0.3610
12898TIP3    H160109   3.913   3.732  16.926  0.4288  0.5357 -1.1884
12898TIP3    H260110   3.875   3.861  16.995  0.1893 -0.9733  1.5653
12899TIP3   OH260111   0.913   2.290   5.196 -0.4732  0.0036 -0.2551
12899TIP3    H160112   0.992   2.340   5.176 -0.6930 -0.0936 -1.4447
12899TIP3    H260113   0.906   2.292   5.291  0.1184  1.3141 -0.2273
12900TIP3   OH260114   2.156   6.043   4.112 -0.3414  0.2995 -0.1367
12900TIP3    H160115   2.095   6.055   4.185 -0.4253 -2.2959  0.2446
12900TIP3    H260116   2.181   5.951   4.115  3.9771  1.3816 -0.0445
12901TIP3   OH260117   2.776   1.014  16.920 -0.2641 -0.5352 -0.1493
12901TIP3    H160118   2.737   1.100  16.906  2.3354  0.8132  0.5319
12901TIP3    H260119   2.710   0.966  16.970 -1.1968  1.5487  0.6912
12902TIP3   OH260120   0.333   1.196  16.339  0.0527  0.0714  0.4216
12902TIP3    H160121   0.267   1.241  16.392  0.5062  1.5657 -0.2645
12902TIP3    H260122   0.385   1.266  16.300  0.3034 -1.0287 -1.2782
12903TIP3   OH260123   1.534   3.509   3.735 -0.0219  0.2103 -0.2959
12903TIP3    H160124   1.572   3.422   3.746 -0.5575  0.0635  0.4454
12903TIP3    H260125   1.440   3.495   3.741 -0.0799  0.9568  0.7475
12904TIP3   OH260126   2.191   1.587  14.191 -0.4100 -0.6565 -0.1908
12904TIP3    H160127   2.234   1.513  14.147 -0.6040 -1.3740  0.8008
12904TIP3    H260128   2.260   1.625  14.246 -0.1564  0.2607 -1.1334
12905TIP3   OH260129   4.596   5.019   0.488  0.2931 -0.2304  0.4400
12905TIP3    H160130   4.665   5.045   0.549 -0.2515  1.2379  0.4569
12905TIP3    H260131   4.600   4.923   0.486  0.6181 -0.2773  2.4294
12906TIP3   OH260132   4.902   6.216  16.813 -0.5536  0.3954 -0.8488
12906TIP3    H160133   4.824   6.271  16.804  0.0349  1.4002  0.0509
12906TIP3    H260134   4.868   6.127  16.814 -1.7161  0.8245 -0.3339
12907TIP3   OH260135   4.262   0.353  14.200 -0.5143  0.0840  0.2997
12907TIP3    H160136   4.210   0.434  14.195  0.9207  1.1791  2.3521
12907TIP3    H260137   4.329   0.372  14.265  0.3787 -2.4984  0.1780
12908TIP3   OH260138   0.684   1.082  14.280  0.2205 -0.4974 -0.4325
12908TIP3    H160139   0.764   1.081  14.227 -0.3311 -1.4276 -1.2407
12908TIP3    H260140   0.669   1.175  14.298  0.9332 -0.2455 -1.1017
12909TIP3   OH260141   3.502   3.822   0.277 -0.5766  0.5106 -0.1353
12909TIP3    H160142   3.486   3.736   0.317 -2.4641  1.5067  1.3545
12909TIP3    H260143   3.476   3.811   0.186 -0.4709 -0.6019 -0.0390
12910TIP3   OH260144   4.834   2.667   4.205  0.1692 -0.2342  0.2115
12910TIP3    H160145   4.769   2.737   4.195 -1.2501 -1.5100  0.2856
12910TIP3    H260146   4.812   2.626   4.288  1.3074 -0.4721  0.4037
12911TIP3   OH260147   1.473   0.884  15.926 -0.2223  0.2808 -0.4274
12911TIP3    H160148   1.424   0.962  15.951 -0.4922  0.8504 -2.7023
12911TIP3    H260149   1.423   0.811  15.963 -2.3798  0.9128 -2.0523
12912TIP3   OH260150   5.638   0.030   3.019 -0.5128 -0.1622 -0.2534
12912TIP3    H160151   5.543   0.025   3.026 -0.4992 -1.2252 -0.7867
12912TIP3    H260152   5.665   0.075   3.099 -1.2014 -2.7135  1.4883
12913TIP3   OH260153   2.444   0.923  13.356 -0.2803 -0.4047 -0.5716
12913TIP3    H160154   2.350   0.914  13.373 -0.4561 -0.5205 -1.5822
12913TIP3    H260155   2.456   1.016  13.335  0.1578  0.0245  1.4733
12914TIP3   OH260156   4.751   1.168   2.705  0.5375 -0.1573  0.1956
12914TIP3    H160157   4.710   1.216   2.776 -0.2599 -0.3667 -0.1130
12914TIP3    H260158   4.787   1.089   2.746  0.4325 -0.0807  0.4306
12915TIP3   OH260159   4.421   0.876   3.511 -0.4336 -0.5756  0.4811
12915TIP3    H160160   4.485   0.806   3.502  0.2043  0.0326  0.2934
12915TIP3    H260161   4.465   0.955   3.479 -0.9799  0.0061  1.1170
12916TIP3   OH260162   6.504   6.636  14.703 -0.2907 -0.2008 -0.0794
12916TIP3    H160163   6.578   6.581  14.729 -0.8055 -0.7399  0.2432
12916TIP3    H260164   6.465   6.664  14.785 -0.0053  0.6840 -0.2418
12917TIP3   OH260165   3.873   3.751  11.824 -0.0033  0.4766 -0.0083
12917TIP3    H160166   3.852   3.709  11.741  0.5013  0.8705 -0.3421
12917TIP3    H260167   3.790   3.757  11.871 -0.5937  1.7639 -1.1759
12918TIP3   OH260168   0.572   3.026  13.398  0.0190 -0.0339  1.0144
12918TIP3    H160169   0.531   3.022  13.485 -2.4515 -0.1398 -0.1125
12918TIP3    H260170   0.619   2.943  13.391 -1.9654 -1.2266  1.2524
12919TIP3   OH260171   6.500   2.831   0.750  0.3882 -0.0133 -0.4678
12919TIP3    H160172   6.539   2.772   0.686  2.2432  1.6220 -0.9080
12919TIP3    H260173   6.434   2.880   0.700  0.4067 -0.1733 -0.6505
12920TIP3   OH260174   1.077   1.396  16.151 -0.2347 -0.2650 -0.4378
12920TIP3    H160175   1.108   1.399  16.241  0.8098 -1.6482 -0.7287
12920TIP3    H260176   1.117   1.471  16.108  1.4658 -1.1279 -0.4058
12921TIP3   OH260177   2.544   4.700  15.102 -0.1498 -0.1495  0.2961
12921TIP3    H160178   2.495   4.776  15.070  0.3271  0.2370  0.4923
12921TIP3    H260179   2.611   4.685  15.036 -0.7603 -0.9159 -0.1626
12922TIP3   OH260180   2.812   4.732   3.124 -0.4490 -0.9104 -0.4246
12922TIP3    H160181   2.884   4.780   3.164  0.2704 -1.2798 -1.2699
12922TIP3    H260182   2.759   4.799   3.081  0.3812 -0.8302 -1.3368
12923TIP3   OH260183   0.568   5.810   3.456  0.1182  0.2468  0.0787
12923TIP3    H160184   0.646   5.809   3.511  0.3603  2.4116 -0.1962
12923TIP3    H260185   0.596   5.848   3.373 -1.0437  0.3302 -0.2927
12924TIP3   OH260186   5.840   6.526  13.883 -0.2208 -0.4020  0.2314
12924TIP3    H160187   5.811   6.617  13.875 -2.1085 -0.8633  1.4418
12924TIP3    H260188   5.903   6.527  13.955  1.2065  0.2348 -0.9863
12925TIP3   OH260189   6.548   4.420   0.063  0.5954 -0.1594  0.4050
12925TIP3    H160190   6.459   4.391   0.082  0.1020 -0.0768 -1.6694
12925TIP3    H260191   6.593   4.417   0.148 -0.9091 -1.8293  1.1773
12926TIP3   OH260192   2.447   2.140  16.977 -0.7912  0.1588  0.1314
12926TIP3    H160193   2.513   2.072  16.989 -1.4718 -0.4394  0.5224
12926TIP3    H260194   2.411   2.123  16.890 -0.8404  0.1294  0.1567
12927TIP3   OH260195   6.015   0.907   2.124 -0.0464 -0.5196 -0.4278
12927TIP3    H160196   6.010   0.817   2.156  0.6414 -1.8351 -3.8016
12927TIP3    H260197   5.958   0.908   2.047 -0.4004  2.0623 -0.1629
12928TIP3   OH260198   1.825   3.252  16.706 -0.5697  0.4680  0.1855
12928TIP3    H160199   1.746   3.199  16.701 -0.7339  0.6382  0.8645
12928TIP3    H260200   1.874   3.216  16.780  0.1380  0.1634 -0.4330
12929TIP3   OH260201   6.183   6.447   6.161  0.0116 -0.4857  0.3158
12929TIP3    H160202   6.236   6.498   6.222  0.0689  0.8959 -0.8382
12929TIP3    H260203   6.225   6.361   6.158  0.8321 -0.1214  1.1369
12930TIP3   OH260204   4.197   4.417   4.813 -0.0364 -0.0191  0.2046
12930TIP3    H160205   4.205   4.511   4.823 -0.5140 -0.0340  0.7071
12930TIP3    H260206   4.280   4.390   4.772  0.5468  0.4614  1.0719
12931TIP3   OH260207   5.786   5.155   4.886 -0.1928  0.7617 -0.0824
12931TIP3    H160208   5.693   5.140   4.905 -0.0844 -0.5951 -0.5492
12931TIP3    H260209   5.820   5.068   4.864  0.9359  1.4352 -1.0199
12932TIP3   OH260210   3.934   4.490  13.157  0.1888  0.4476 -0.0604
12932TIP3    H160211   3.961   4.544  13.083 -0.2798  1.1359  0.2641
12932TIP3    H260212   3.894   4.551  13.218 -0.7421 -0.3289  0.1280
12933TIP3   OH260213   4.807   2.093  16.462  0.1859  0.3098  0.1980
12933TIP3    H160214   4.845   2.130  16.382 -0.7739  1.9678  0.4951
12933TIP3    H260215   4.818   2.162  16.528 -1.1894 -0.1149  0.8851
12934TIP3   OH260216   4.792   3.199  15.779 -0.6862 -0.5810  0.5831
12934TIP3    H160217   4.879   3.239  15.787  0.6478 -3.4610  1.3245
12934TIP3    H260218   4.759   3.196  15.869 -0.6690 -1.3752  0.5605
12935TIP3   OH260219   3.173   0.879   5.402  0.3733  0.5285 -0.0429
12935TIP3    H160220   3.266   0.891   5.419  0.3148  0.9823 -0.0393
12935TIP3    H260221   3.169   0.806   5.340  0.6338 -0.5012  1.1378
12936TIP3   OH260222   6.612   0.890  14.323  0.4033 -0.2142  0.7551
12936TIP3    H160223   6.557   0.963  14.297  2.3277  1.3950  1.0395
12936TIP3    H260224   6.573   0.814  14.281 -1.4579  1.0257  0.1907
12937TIP3   OH260225   2.853   5.871   0.434 -0.5837  0.0314  0.5604
12937TIP3    H160226   2.860   5.874   0.530 -3.5626  0.1045  0.8302
12937TIP3    H260227   2.779   5.813   0.417 -0.2173  0.1728 -1.7145
12938TIP3   OH260228   0.019   5.094  13.942  0.2687 -0.2850 -0.4923
12938TIP3    H160229  -0.074   5.110  13.953  0.2659 -0.2148 -0.6146
12938TIP3    H260230   0.046   5.156  13.874  0.9462  1.5694  1.4034
12939TIP3   OH260231   2.663   6.176  12.719  0.0154 -0.3233  0.0988
12939TIP3    H160232   2.668   6.161  12.814 -1.2337 -0.9004  0.0897
12939TIP3    H260233   2.687   6.092  12.681 -0.6474 -0.4428 -0.0670
12940TIP3   OH260234   6.070   1.111   3.428 -0.1907 -0.2218 -0.3718
12940TIP3    H160235   6.081   1.073   3.515  1.0966  0.3297 -0.2834
12940TIP3    H260236   5.976   1.105   3.412 -0.4884 -0.0847  1.1678
12941TIP3   OH260237   2.542   4.626  12.968 -0.5845  0.6140 -0.0491
12941TIP3    H160238   2.595   4.608  12.891 -0.2339  2.0165 -0.1453
12941TIP3    H260239   2.456   4.650  12.933 -0.2029  2.0184 -0.0449
12942TIP3   OH260240   3.775   4.608   0.134  0.3346  0.1660 -0.3256
12942TIP3    H160241   3.772   4.610   0.039 -2.7828  0.5351 -0.2530
12942TIP3    H260242   3.820   4.689   0.158  0.0806  0.6435 -1.4488
12943TIP3   OH260243   3.034   1.619  14.398  0.4741 -0.0413 -0.6452
12943TIP3    H160244   3.083   1.691  14.438  1.3193 -1.3715  0.7686
12943TIP3    H260245   3.080   1.602  14.316  0.6956  0.5557 -0.6456
12944TIP3   OH260246   5.277   1.437   4.005  0.3038 -0.8257 -0.2210
12944TIP3    H160247   5.344   1.450   3.938 -0.4863 -1.2995 -1.1109
12944TIP3    H260248   5.302   1.497   4.076  0.1837  0.9976 -1.6622
12945TIP3   OH260249   1.165   3.836  14.961  0.0865  0.6203 -0.3044
12945TIP3    H160250   1.074   3.811  14.948  0.6093 -0.5883 -1.8889
12945TIP3    H260251   1.173   3.853  15.055 -1.7242  0.6157 -0.1388
12946TIP3   OH260252   0.342   6.418   3.284  0.3538  0.0239 -0.0409
12946TIP3    H160253   0.345   6.494   3.342 -0.1415  0.1618 -0.1947
12946TIP3    H260254   0.378   6.450   3.201 -3.3908  1.1614 -1.3032
12947TIP3   OH260255   1.397   2.625   0.615  0.4056  0.0130 -0.1627
12947TIP3    H160256   1.444   2.692   0.565  0.0434  0.2700 -0.1614
12947TIP3    H260257   1.320   2.605   0.562  1.4891 -1.8011 -1.1045
12948TIP3   OH260258   3.176   0.174  14.638  0.3300 -0.1756 -0.5543
12948TIP3    H160259   3.128   0.250  14.606 -0.5776 -0.5318 -0.0378
12948TIP3    H260260   3.250   0.211  14.685 -0.5305  0.4026  0.3542
12949TIP3   OH260261   2.142   1.023  11.913 -0.2793  0.2650  0.2765
12949TIP3    H160262   2.074   1.042  11.848 -0.3212  1.3679  0.6299
12949TIP3    H260263   2.172   0.935  11.892  0.5367  1.0394 -2.0040
12950TIP3   OH260264   2.718   2.907   2.502 -0.2924 -0.5644  0.0421
12950TIP3    H160265   2.764   2.989   2.488  1.1950 -0.9577  2.2785
12950TIP3    H260266   2.772   2.840   2.460 -0.0724 -0.7260  0.5741
12951TIP3   OH260267   5.445   4.478   0.186 -0.5055 -0.1580  0.4776
12951TIP3    H160268   5.417   4.539   0.254 -2.1330 -0.5591  0.1987
12951TIP3    H260269   5.416   4.518   0.104 -0.7417 -0.8377  0.2217
12952TIP3   OH260270   6.607   0.514   3.962  0.5100 -0.0564  0.1928
12952TIP3    H160271   6.631   0.475   4.046  1.2829 -1.3405 -0.6062
12952TIP3    H260272   6.548   0.450   3.923  2.1420 -0.6804 -1.3246
12953TIP3   OH260273   5.330   5.094   2.898 -0.1187  0.0347 -0.1204
12953TIP3    H160274   5.299   5.116   2.986  2.5873 -1.0787  1.1684
12953TIP3    H260275   5.254   5.056   2.855 -2.0648  2.4719  1.0003
12954TIP3   OH260276   1.317   1.670   0.536 -0.1460 -0.0229  0.2678
12954TIP3    H160277   1.348   1.585   0.507 -2.8860 -1.0569  0.1898
12954TIP3    H260278   1.222   1.664   0.531 -0.3997  3.2615 -0.3431
12955TIP3   OH260279   6.753   3.537  16.426  0.5110 -0.1530  0.4873
12955TIP3    H160280   6.835   3.496  16.400 -0.3285 -1.6886  0.2654
12955TIP3    H260281   6.711   3.562  16.344  1.4205  2.0113  0.6368
12956TIP3   OH260282   1.519   5.694  16.584 -0.0226  0.0051  0.2485
12956TIP3    H160283   1.431   5.703  16.623  0.1094  0.5364  0.4264
12956TIP3    H260284   1.503   5.691  16.490 -0.2711 -0.3473  0.3014
12957TIP3   OH260285   5.535   4.730  16.344  0.0374  0.2469  0.5102
12957TIP3    H160286   5.504   4.820  16.348  2.0424  0.9322  1.4739
12957TIP3    H260287   5.500   4.688  16.423 -0.1290  0.4437  0.5398
12958TIP3   OH260288   2.669   2.539   1.560  0.1620 -0.5930  0.0255
12958TIP3    H160289   2.714   2.514   1.640  0.3526  1.5274  0.6045
12958TIP3    H260290   2.582   2.568   1.590 -0.6843 -2.1723 -0.8118
12959TIP3   OH260291   1.842   4.028  14.957  0.1202 -0.2472 -0.0924
12959TIP3    H160292   1.849   4.090  15.030  0.1436 -2.1740  1.6067
12959TIP3    H260293   1.748   4.015  14.945  0.1049  0.3831 -0.7069
12960TIP3   OH260294   4.741   0.245   1.833 -0.0451  0.1721 -0.3246
12960TIP3    H160295   4.772   0.179   1.894 -0.3513  0.3520  0.0221
12960TIP3    H260296   4.818   0.300   1.817  0.0177  0.1602 -0.0622
12961TIP3   OH260297   6.247   1.245   5.901 -0.0177  0.4315  0.1010
12961TIP3    H160298   6.262   1.177   5.835 -1.3617  0.4264 -0.2225
12961TIP3    H260299   6.313   1.313   5.882  0.9346 -0.4982  0.0557
12962TIP3   OH260300   0.105   3.187   3.172  0.0366  0.1925  0.2772
12962TIP3    H160301   0.126   3.161   3.262 -1.2166 -2.1945 -0.0691
12962TIP3    H260302   0.121   3.107   3.120  0.9733  1.5885 -1.6738
12963TIP3   OH260303   3.033   0.745   4.561 -0.4454  0.2373 -0.1317
12963TIP3    H160304   3.079   0.693   4.496  1.2519  0.7467  0.6438
12963TIP3    H260305   3.033   0.690   4.640  0.0314  0.7868  0.2571
12964TIP3   OH260306   4.321   5.549   1.774 -0.0628  0.3358 -0.0225
12964TIP3    H160307   4.312   5.597   1.856  0.7899  0.2182  0.1464
12964TIP3    H260308   4.368   5.609   1.716  2.4272 -0.8470  0.6937
12965TIP3   OH260309   0.211   5.474   0.626  0.2740 -0.1477  0.1120
12965TIP3    H160310   0.163   5.535   0.682 -1.1363 -0.5648 -0.6066
12965TIP3    H260311   0.171   5.485   0.539  1.5711 -0.4248 -0.5379
12966TIP3   OH260312   3.577   0.763  16.444  0.0292 -0.1914  0.0806
12966TIP3    H160313   3.538   0.803  16.521 -0.3236 -1.2347  0.4593
12966TIP3    H260314   3.626   0.688  16.478  0.9863  0.1347 -0.5666
12967TIP3   OH260315   2.390   2.632  11.620  0.2660  0.0879 -0.3177
12967TIP3    H160316   2.412   2.659  11.531 -2.4458 -0.0157 -1.0628
12967TIP3    H260317   2.294   2.631  11.622  0.2837 -0.9488  2.2874
12968TIP3   OH260318   2.994   4.472   3.935 -0.2290  0.0511  0.0368
12968TIP3    H160319   2.995   4.405   3.867  1.6389  0.0534  0.0371
12968TIP3    H260320   3.084   4.505   3.937 -1.2618  2.9978 -0.3818
12969TIP3   OH260321   6.609   5.597  16.585 -0.2502  0.2806 -0.2787
12969TIP3    H160322   6.661   5.604  16.665 -1.8769 -1.4500  0.9498
12969TIP3    H260323   6.657   5.533  16.531  0.3670  0.7805 -0.3308
12970TIP3   OH260324   6.293   2.435   4.605 -0.0277  0.1954 -0.4066
12970TIP3    H160325   6.249   2.490   4.669  0.7169  0.3517 -0.0227
12970TIP3    H260326   6.346   2.375   4.657  0.5073  0.2627 -0.8731
12971TIP3   OH260327   1.628   1.230  15.782 -0.6139 -0.6439 -0.4734
12971TIP3    H160328   1.706   1.177  15.772 -0.3169 -0.4024  0.4982
12971TIP3    H260329   1.657   1.307  15.832 -2.0353 -1.9605  2.5444
12972TIP3   OH260330   3.238   0.180   4.485  0.3786 -0.5186  0.3755
12972TIP3    H160331   3.203   0.123   4.553 -0.3613  0.0692  0.4966
12972TIP3    H260332   3.185   0.161   4.408 -0.6713  0.8695  0.7448
12973TIP3   OH260333   2.342   2.453  14.484 -0.3002 -0.2534  0.1760
12973TIP3    H160334   2.424   2.409  14.506 -0.3423 -1.5744 -2.1590
12973TIP3    H260335   2.350   2.540  14.524  2.3138 -0.2984 -0.1492
12974TIP3   OH260336   6.425   0.308   0.075  0.0074 -0.0287 -0.1176
12974TIP3    H160337   6.464   0.259   0.003 -0.6848  0.5016 -0.8687
12974TIP3    H260338   6.499   0.333   0.129  0.4682 -1.0098 -0.2834
12975TIP3   OH260339   3.084   1.478  12.925  0.8665 -0.4757  0.3014
12975TIP3    H160340   2.995   1.509  12.907  1.3802  1.0113  0.3128
12975TIP3    H260341   3.073   1.384  12.940 -0.8835 -0.1106  1.4881
12976TIP3   OH260342   0.489   0.270   2.787 -0.3174 -0.3329  0.0912
12976TIP3    H160343   0.404   0.276   2.832 -1.5440 -1.7937 -1.9132
12976TIP3    H260344   0.497   0.177   2.764  1.5788 -0.1011 -0.2352
12977TIP3   OH260345   4.449   6.725   2.975 -0.1305  0.1068 -0.6535
12977TIP3    H160346   4.355   6.740   2.981 -0.1820 -0.7479  0.9357
12977TIP3    H260347   4.459   6.660   2.905 -0.9542 -1.7176  0.8868
12978TIP3   OH260348   3.640   1.427  14.025  0.6255 -0.0220  0.3032
12978TIP3    H160349   3.634   1.341  14.068 -1.6617  0.2469  0.5901
12978TIP3    H260350   3.696   1.412  13.949 -0.6246 -2.0558 -0.2728
12979TIP3   OH260351   5.118   5.411   2.955 -0.1607 -0.4921 -0.1733
12979TIP3    H160352   5.026   5.415   2.930 -0.0040  0.6682 -0.5977
12979TIP3    H260353   5.163   5.380   2.877 -0.0101  0.4255 -0.4565
12980TIP3   OH260354   1.034   5.661  14.416 -0.1213  0.3471 -0.5440
12980TIP3    H160355   1.071   5.574  14.402  0.4145  0.4540  0.1387
12980TIP3    H260356   0.942   5.645  14.438 -0.2238  0.0086 -1.2001
12981TIP3   OH260357   2.866   3.904  17.155  0.0611 -0.3232 -0.4228
12981TIP3    H160358   2.807   3.835  17.126 -0.4705 -0.2480  0.4711
12981TIP3    H260359   2.839   3.981  17.105 -1.3292 -0.0097  0.7866
12982TIP3   OH260360   5.416   4.113  14.472 -0.1433  0.2539 -0.2744
12982TIP3    H160361   5.462   4.195  14.492 -0.5717  0.1453  1.2128
12982TIP3    H260362   5.325   4.138  14.462 -0.0785  0.1534 -1.1598
12983TIP3   OH260363   4.907   3.340   4.200 -0.3684 -0.6024  0.8475
12983TIP3    H160364   4.839   3.277   4.221 -0.4278 -1.2550 -1.1494
12983TIP3    H260365   4.982   3.314   4.253 -0.6516 -1.8541  0.6346
12984TIP3   OH260366   4.268   6.704  14.554 -0.0980  0.1370  0.4838
12984TIP3    H160367   4.315   6.763  14.495  0.9079  1.0028  2.1280
12984TIP3    H260368   4.236   6.634  14.497 -0.1808  1.5762 -1.2847
12985TIP3   OH260369   3.720   4.387  14.805 -0.4338  0.4789  0.4617
12985TIP3    H160370   3.753   4.350  14.887  1.1950  0.7825 -0.0196
12985TIP3    H260371   3.692   4.476  14.828  3.4033  1.8995  0.0534
12986TIP3   OH260372   1.621   6.327   5.661  0.0926  0.4430 -0.1512
12986TIP3    H160373   1.555   6.301   5.597  1.8356  0.7806 -2.1485
12986TIP3    H260374   1.573   6.336   5.743 -1.2628 -5.5748 -0.0433
12987TIP3   OH260375   5.842   6.501   3.833 -0.1491  0.3713  0.2207
12987TIP3    H160376   5.842   6.491   3.928 -0.1691 -0.3725  0.1430
12987TIP3    H260377   5.930   6.473   3.806 -0.6580 -0.9433 -0.1307
12988TIP3   OH260378   0.693   5.124   0.718 -0.0111  0.3559 -0.1076
12988TIP3    H160379   0.725   5.101   0.631  1.5851 -0.1575  0.5775
12988TIP3    H260380   0.705   5.219   0.724  2.5034  0.0553  0.5130
12989TIP3   OH260381   4.087   4.521  10.954 -0.1515  0.1569 -0.2003
12989TIP3    H160382   3.993   4.538  10.964 -0.4970 -0.6819 -1.7950
12989TIP3    H260383   4.127   4.608  10.957 -1.1960  0.7030 -1.4508
12990TIP3   OH260384   0.352   2.264   1.864 -0.0689 -0.3328  0.3383
12990TIP3    H160385   0.400   2.234   1.787 -0.0201  0.3725  0.0846
12990TIP3    H260386   0.378   2.205   1.934  0.2426 -0.6934 -0.0803
12991TIP3   OH260387   5.441   4.615   6.087  0.0610 -0.2124 -0.0575
12991TIP3    H160388   5.441   4.693   6.142 -0.0264 -0.6935  0.6266
12991TIP3    H260389   5.489   4.641   6.009  0.3054  0.4334  0.3060
12992TIP3   OH260390   5.885   3.822   2.177 -0.2364  0.8493  0.1491
12992TIP3    H160391   5.818   3.849   2.114 -0.8565 -1.7301 -0.3536
12992TIP3    H260392   5.839   3.766   2.239  0.6057  2.5094  2.3224
12993TIP3   OH260393   5.855   4.466   0.082 -0.1470  0.0198 -0.6993
12993TIP3    H160394   5.801   4.471   0.004  1.8140 -1.1005 -2.2071
12993TIP3    H260395   5.944   4.483   0.050  0.6559 -0.2551  1.3233
12994TIP3   OH260396   1.762   4.589  16.564 -0.0472 -0.6013  0.6865
12994TIP3    H160397   1.766   4.495  16.576  0.7972 -0.4899  1.2761
12994TIP3    H260398   1.770   4.626  16.652  0.2089  0.0354  0.4039
12995TIP3   OH260399   1.132   0.560  10.990  0.0803  0.8392  0.2697
12995TIP3    H160400   1.047   0.518  11.004  0.2768 -0.0202 -1.0450
12995TIP3    H260401   1.118   0.618  10.915  0.7348  0.4463 -0.1602
12996TIP3   OH260402   1.368   1.145  16.253  0.0138  0.4578  0.0101
12996TIP3    H160403   1.286   1.103  16.277  0.0783  0.9800  1.1701
12996TIP3    H260404   1.352   1.180  16.165 -0.7516 -0.0835 -0.0717
12997TIP3   OH260405   5.359   3.450   2.631  0.3158  0.0611  0.8856
12997TIP3    H160406   5.306   3.519   2.591  1.3883 -0.6645 -1.8937
12997TIP3    H260407   5.304   3.373   2.631 -0.0108  0.2808  1.7374
12998TIP3   OH260408   4.072   2.033  12.755  0.5533 -0.5211 -0.3131
12998TIP3    H160409   3.990   2.029  12.803  1.2848 -1.7492  0.8434
12998TIP3    H260410   4.113   2.114  12.785 -0.4742  0.3910 -1.3178
12999TIP3   OH260411   2.951   5.982   4.137  0.8954  0.4876  0.3978
12999TIP3    H160412   2.895   5.905   4.148  2.3088 -0.6326 -0.0748
12999TIP3    H260413   2.906   6.036   4.072 -0.4560  0.4064  1.2476
13000TIP3   OH260414   4.701   5.583   3.811  0.0394 -0.1817  0.1551
13000TIP3    H160415   4.655   5.537   3.740 -0.0302  0.4917 -0.2364
13000TIP3    H260416   4.787   5.540   3.815  0.3445  0.3231 -0.8839
13001TIP3   OH260417   4.940   6.725   0.081 -0.0257  0.0931  0.0708
13001TIP3    H160418   4.907   6.814   0.084  1.8202  0.7618  2.5381
13001TIP3    H260419   5.027   6.730   0.120  0.8410 -2.5030 -1.3553
13002TIP3   OH260420   4.057   4.768  14.507  0.3164 -0.2818 -0.4085
13002TIP3    H160421   3.997   4.730  14.570 -0.2505  0.6271 -0.3951
13002TIP3    H260422   4.143   4.760  14.549  0.0353 -0.3427  0.1654
13003TIP3   OH260423   5.289   2.930  12.190  0.4046  0.0707 -0.3144
13003TIP3    H160424   5.211   2.959  12.144  0.9376  2.9128  0.4570
13003TIP3    H260425   5.260   2.918  12.281  0.1798 -1.9427 -0.6346
13004TIP3   OH260426   0.184   0.878  13.864 -0.1189 -0.2616 -0.0147
13004TIP3    H160427   0.243   0.872  13.939 -2.3227 -0.9974  1.7053
13004TIP3    H260428   0.192   0.969  13.835  0.3327  0.1953  1.4672
13005TIP3   OH260429   0.570   0.535   1.154 -0.0605  0.0331  0.3006
13005TIP3    H160430   0.647   0.571   1.198 -1.2976  1.2854  1.4458
13005TIP3    H260431   0.545   0.459   1.207  2.4817 -2.5885 -2.0529
13006TIP3   OH260432   3.588   6.390  14.754  0.7384 -0.6476  0.3559
13006TIP3    H160433   3.677   6.354  14.761  0.7048 -0.5019  1.5697
13006TIP3    H260434   3.557   6.359  14.669  2.3379  0.1679 -0.5542
13007TIP3   OH260435   3.788   6.695  11.617 -0.1690  0.0270  0.1583
13007TIP3    H160436   3.780   6.602  11.596 -0.4634 -0.6253  2.9533
13007TIP3    H260437   3.868   6.701  11.668  0.8362  1.6366 -1.5608
13008TIP3   OH260438   0.971   2.989  14.593 -0.1424  0.0999  0.3665
13008TIP3    H160439   0.934   3.004  14.506 -0.8689 -1.6672  0.3474
13008TIP3    H260440   0.927   3.052  14.649 -1.1211 -0.0733 -0.1922
13009TIP3   OH260441   3.543   3.962  15.102 -0.6281  0.0582 -0.0567
13009TIP3    H160442   3.626   3.981  15.147 -0.5933  3.1906 -1.2976
13009TIP3    H260443   3.568   3.943  15.012 -1.1697 -0.3861 -0.1189
13010TIP3   OH260444   3.340   5.423   5.094  0.0519 -0.1015 -0.6579
13010TIP3    H160445   3.331   5.491   5.160  0.1543 -3.6557  3.2786
13010TIP3    H260446   3.264   5.434   5.037 -2.1204  0.8512  2.3127
13011TIP3   OH260447   2.222   6.651  15.484  0.5534 -0.1066  0.0472
13011TIP3    H160448   2.263   6.622  15.402 -1.3037 -0.6817 -0.7051
13011TIP3    H260449   2.202   6.743  15.469  0.1935 -0.2175 -0.1404
13012TIP3   OH260450   3.310   4.333  16.409  0.1515 -0.0851 -0.0729
13012TIP3    H160451   3.264   4.305  16.488  1.6647  0.4047  1.0189
13012TIP3    H260452   3.291   4.427  16.403 -0.7172 -0.3007 -0.8293
13013TIP3   OH260453   0.638   0.432   2.625  0.6943 -0.4253  0.6053
13013TIP3    H160454   0.650   0.348   2.581  1.0029  0.3608 -0.8468
13013TIP3    H260455   0.569   0.416   2.689  0.0387 -1.5419 -0.3528
13014TIP3   OH260456   1.327   4.836   2.686 -0.9051 -0.5943  0.5193
13014TIP3    H160457   1.327   4.839   2.782 -0.1021 -0.1962  0.5112
13014TIP3    H260458   1.396   4.897   2.660 -2.1583  0.4827 -0.3492
13015TIP3   OH260459   6.011   1.402   2.223  0.1046  0.0186  0.1515
13015TIP3    H160460   5.998   1.310   2.247  0.5379 -0.4072 -1.2268
13015TIP3    H260461   6.054   1.440   2.300 -0.1096 -0.9215  0.7506
13016TIP3   OH260462   4.315   5.826  15.254 -0.0675  0.2718  0.1554
13016TIP3    H160463   4.281   5.737  15.244 -0.5653  0.6184 -1.3029
13016TIP3    H260464   4.267   5.861  15.329 -0.6938 -0.3031  0.0294
13017TIP3   OH260465   3.362   0.761  14.268  0.4252  0.7340  0.2654
13017TIP3    H160466   3.305   0.798  14.200  1.4616 -0.9851 -1.5684
13017TIP3    H260467   3.344   0.667  14.267  0.5224  0.6622  2.3439
13018TIP3   OH260468   0.321   6.116  16.664 -0.1916  0.1151 -0.0882
13018TIP3    H160469   0.344   6.130  16.572  0.1300  2.6307  0.3563
13018TIP3    H260470   0.397   6.146  16.713 -1.1303  0.6062  1.0832
13019TIP3   OH260471   5.612   6.580   2.461  0.0230 -0.7545 -0.1984
13019TIP3    H160472   5.651   6.622   2.384  1.5360  0.4673  1.1877
13019TIP3    H260473   5.565   6.651   2.505  0.1359 -1.1657  0.5873
13020TIP3   OH260474   3.133   6.576   2.806  0.3875  0.5119 -0.0433
13020TIP3    H160475   3.114   6.669   2.793 -0.0732  0.4108 -0.0984
13020TIP3    H260476   3.172   6.547   2.724 -0.1543  0.4834 -0.2955
13021TIP3   OH260477   1.298   3.918   6.581  0.2595  0.2790 -0.2135
13021TIP3    H160478   1.305   3.970   6.502 -2.1150  1.0001  0.0150
13021TIP3    H260479   1.290   3.982   6.652  1.2678 -0.3686  0.5146
13022TIP3   OH260480   1.293   2.612   0.195  0.3824  0.5167  0.0437
13022TIP3    H160481   1.316   2.622   0.102  4.8559 -0.1906  0.9329
13022TIP3    H260482   1.269   2.519   0.203  1.8661  0.1056 -0.0904
13023TIP3   OH260483   6.362   5.930   3.831 -0.4404 -1.0099  0.3934
13023TIP3    H160484   6.290   5.877   3.799 -1.1843  0.0065  0.3581
13023TIP3    H260485   6.333   5.961   3.917 -0.2725 -0.1648  0.1519
13024TIP3   OH260486   5.046   4.269   4.131  0.2333 -0.1140  0.5060
13024TIP3    H160487   5.068   4.183   4.169 -0.6973  0.0868  1.5488
13024TIP3    H260488   4.951   4.272   4.135  0.2577  0.8789  0.2624
13025TIP3   OH260489   5.248   1.867  14.217 -0.7972 -0.6113 -0.2785
13025TIP3    H160490   5.291   1.903  14.139 -0.3940  1.6921  0.9260
13025TIP3    H260491   5.320   1.834  14.270 -0.6736  1.2398  0.7560
13026TIP3   OH260492   4.946   1.037  17.017  0.0564 -0.1537  0.0591
13026TIP3    H160493   4.874   1.073  16.965  0.0406 -0.2634  0.0058
13026TIP3    H260494   4.918   0.949  17.038 -0.8301  0.5545  1.9320
13027TIP3   OH260495   6.609   1.200   4.688  0.3552 -0.0155 -0.0647
13027TIP3    H160496   6.599   1.113   4.727 -0.0122 -1.1091 -2.5267
13027TIP3    H260497   6.581   1.260   4.757  0.9744 -1.8126  1.8112
13028TIP3   OH260498   3.835   6.209   0.731 -0.0896  0.3586  0.7886
13028TIP3    H160499   3.878   6.294   0.744 -2.0659  1.2543  1.6809
13028TIP3    H260500   3.781   6.198   0.809  2.4786 -3.2144  2.1831
13029TIP3   OH260501   4.195   5.584  12.632 -0.2555  0.3053 -0.7603
13029TIP3    H160502   4.194   5.488  12.631  2.8515  0.2207 -0.7410
13029TIP3    H260503   4.138   5.608  12.705  2.6112 -1.6748  2.2581
13030TIP3   OH260504   5.162   4.863  16.414  0.3454 -0.0455  0.3417
13030TIP3    H160505   5.071   4.891  16.419  0.4356  0.1855  0.7095
13030TIP3    H260506   5.204   4.903  16.491  0.2300 -2.1459  1.5230
13031TIP3   OH260507   4.184   4.283   2.086  0.0039  0.6372  0.0319
13031TIP3    H160508   4.110   4.257   2.031 -1.5607  1.3397  1.7413
13031TIP3    H260509   4.252   4.308   2.024 -0.8586 -0.8915 -1.5919
13032TIP3   OH260510   5.526   5.142  15.834  0.1283  0.0404 -0.3470
13032TIP3    H160511   5.510   5.172  15.924 -1.2851  0.2476 -0.6629
13032TIP3    H260512   5.565   5.056  15.844  0.1717  0.1540  0.4753
13033TIP3   OH260513   6.786   1.623   6.207 -0.1263  0.4945 -0.0580
13033TIP3    H160514   6.779   1.559   6.136  1.3535  1.0221 -0.6786
13033TIP3    H260515   6.701   1.668   6.206 -0.3994 -0.0168 -0.9840
13034TIP3   OH260516   5.182   2.675   4.561  0.3291  0.0454  0.5973
13034TIP3    H160517   5.188   2.606   4.495 -3.5421 -2.9882  3.2091
13034TIP3    H260518   5.236   2.644   4.634  0.4565  0.9075  0.8805
13035TIP3   OH260519   3.661   0.165  11.576  0.8722  0.1173 -0.3678
13035TIP3    H160520   3.640   0.153  11.484  0.4199 -2.3059 -0.0008
13035TIP3    H260521   3.709   0.085  11.600  1.4689  0.9630  1.3355
13036TIP3   OH260522   0.648   3.325  11.432 -0.2305 -0.1388  0.0684
13036TIP3    H160523   0.618   3.408  11.467  0.0035 -0.3483  0.7889
13036TIP3    H260524   0.738   3.342  11.403 -0.4114  0.0265 -0.3876
13037TIP3   OH260525   4.158   5.735  13.920 -0.0659 -0.0053  0.2734
13037TIP3    H160526   4.197   5.648  13.928 -0.1838  0.0683  1.8397
13037TIP3    H260527   4.085   5.723  13.859  0.4966 -0.7948 -0.2542
13038TIP3   OH260528   5.725   5.216   5.632 -0.1660 -0.1655 -0.9398
13038TIP3    H160529   5.793   5.173   5.685 -0.8210  0.2656  0.2630
13038TIP3    H260530   5.649   5.158   5.639 -0.6166  0.4782 -0.4460
13039TIP3   OH260531   5.782   5.133   2.446  0.1932  0.0765  0.3738
13039TIP3    H160532   5.871   5.108   2.424  0.6890 -0.8808  3.2499
13039TIP3    H260533   5.731   5.052   2.438  0.2683 -0.1500  2.1110
13040TIP3   OH260534   3.605   2.589   3.433  0.4834  0.1696 -0.3919
13040TIP3    H160535   3.663   2.577   3.358  1.0704 -0.3627  0.1420
13040TIP3    H260536   3.628   2.519   3.493  2.6182  2.7582  1.9359
13041TIP3   OH260537   2.766   0.989   4.384 -0.4955  0.1303 -0.1595
13041TIP3    H160538   2.681   1.031   4.372 -0.0093  0.8775 -1.0363
13041TIP3    H260539   2.757   0.938   4.465 -1.5212  0.8406  0.1732
13042TIP3   OH260540   0.732   0.117   1.417  0.1619 -0.1610 -0.7500
13042TIP3    H160541   0.809   0.099   1.364  1.9106  0.2456  1.5392
13042TIP3    H260542   0.694   0.031   1.434  0.3784 -0.4084 -1.5093
13043TIP3   OH260543   1.236   3.403  14.254 -0.2854  0.2097  0.0600
13043TIP3    H160544   1.319   3.445  14.233 -0.5418  0.6734 -0.0260
13043TIP3    H260545   1.247   3.372  14.344 -0.3150  1.0071  0.3413
13044TIP3   OH260546   5.647   1.380   4.091 -0.0091 -0.4453  0.3891
13044TIP3    H160547   5.695   1.426   4.023 -0.2879  0.5404  0.8503
13044TIP3    H260548   5.699   1.393   4.171 -0.7058  0.0951  0.7618
13045TIP3   OH260549   1.283   4.493   1.997  0.4022  0.4244 -0.1868
13045TIP3    H160550   1.253   4.572   2.042 -0.5020 -0.4018  0.6888
13045TIP3    H260551   1.271   4.423   2.061  2.4848 -0.2160 -0.4835
13046TIP3   OH260552   4.161   3.141  12.088  0.4173  0.3295  0.1564
13046TIP3    H160553   4.074   3.171  12.114  0.0519 -0.3092 -0.3176
13046TIP3    H260554   4.221   3.191  12.144 -0.3486 -1.1169  2.3732
13047TIP3   OH260555   6.198   4.936   1.063  0.4807  0.0381 -0.4929
13047TIP3    H160556   6.281   4.937   1.109  0.4456  1.8244 -0.4292
13047TIP3    H260557   6.161   5.023   1.078 -2.1807 -1.2662  0.8751
13048TIP3   OH260558   6.055   0.983   5.485  0.0121  0.0406  0.2163
13048TIP3    H160559   5.982   0.935   5.445 -0.0774  0.2591  0.1147
13048TIP3    H260560   6.110   0.915   5.523 -0.5909 -0.0779  0.8809
13049TIP3   OH260561   1.181   6.263   2.702 -0.1960  0.5208 -0.5372
13049TIP3    H160562   1.166   6.330   2.768 -0.1005 -1.4696  1.5504
13049TIP3    H260563   1.276   6.252   2.699 -0.1967  0.6016 -1.0242
13050TIP3   OH260564   1.084   2.392  12.808  0.2988  0.0506 -0.2496
13050TIP3    H160565   0.995   2.390  12.844 -0.0848  0.8867 -1.1453
13050TIP3    H260566   1.073   2.417  12.716  1.5959  2.0499  0.0978
13051TIP3   OH260567   2.368   0.855  16.351  0.0072  0.5312  0.5234
13051TIP3    H160568   2.313   0.805  16.412 -0.9800  1.9121  0.8015
13051TIP3    H260569   2.326   0.941  16.347  0.7949  0.8584 -1.1292
13052TIP3   OH260570   3.480   6.620   2.312 -0.2437 -0.2282  0.3789
13052TIP3    H160571   3.556   6.665   2.276 -0.1157 -0.7439 -0.0027
13052TIP3    H260572   3.435   6.583   2.236 -0.4728 -0.5460  0.6647
13053TIP3   OH260573   0.389   0.689   4.244  0.0922  0.6058 -0.2673
13053TIP3    H160574   0.316   0.633   4.218 -1.8397  2.9454 -0.0917
13053TIP3    H260575   0.405   0.668   4.336  0.3408 -0.6582 -0.5954
13054TIP3   OH260576   3.976   4.277  14.751 -0.0199 -0.0817  0.1621
13054TIP3    H160577   3.887   4.311  14.750  0.3071  0.8592  1.4108
13054TIP3    H260578   3.990   4.249  14.842  0.7925 -0.6835 -0.1373
13055TIP3   OH260579   3.059   2.623   4.828  0.5926  0.6968 -0.0920
13055TIP3    H160580   3.126   2.569   4.786  1.5213  2.5874 -1.1103
13055TIP3    H260581   3.060   2.596   4.920  0.6835 -1.3413 -0.6707
13056TIP3   OH260582   1.449   0.243   0.009  0.3088 -0.1503  0.4427
13056TIP3    H160583   1.435   0.150  -0.006 -4.0692  0.4871  0.0834
13056TIP3    H260584   1.476   0.276  -0.077  1.5748 -0.9950  0.4969
13057TIP3   OH260585   6.254   6.445   0.845  0.1419 -0.5364 -0.1091
13057TIP3    H160586   6.317   6.464   0.915 -0.4245 -1.2378  0.5993
13057TIP3    H260587   6.204   6.526   0.836  0.6355 -0.2337 -0.1335
13058TIP3   OH260588   4.367   0.459  10.901 -0.1615 -0.1775  0.0641
13058TIP3    H160589   4.416   0.484  10.822  0.5417  0.9188  0.8290
13058TIP3    H260590   4.318   0.538  10.924 -0.1498 -0.4059  0.8844
13059TIP3   OH260591   2.953   5.694   5.657  0.1685 -0.2096  0.0821
13059TIP3    H160592   2.886   5.705   5.589  0.0468  0.5271  0.3133
13059TIP3    H260593   2.976   5.601   5.653  0.6751 -0.0263 -1.4304
13060TIP3   OH260594   3.789   5.597  13.474 -0.2645  0.2385  0.2983
13060TIP3    H160595   3.784   5.520  13.530 -0.3425  0.2411  0.2943
13060TIP3    H260596   3.867   5.644  13.505  0.0513 -0.0802 -0.0029
13061TIP3   OH260597   5.510   3.207  16.486  0.1971 -0.7560 -0.2936
13061TIP3    H160598   5.585   3.152  16.467  1.3096  0.2769  1.0067
13061TIP3    H260599   5.543   3.296  16.481 -1.3254 -0.2236 -1.2785
13062TIP3   OH260600   0.057   6.417  12.909 -0.0919  0.0071  0.3699
13062TIP3    H160601   0.133   6.406  12.965  0.3994  0.7913 -0.1308
13062TIP3    H260602   0.093   6.438  12.823 -0.7958 -2.4604 -0.5875
13063TIP3   OH260603   5.315   5.952  11.977  0.0665 -0.0380 -0.3163
13063TIP3    H160604   5.369   6.006  11.920 -0.7680  1.7072  0.5293
13063TIP3    H260605   5.239   6.006  11.997  0.2622 -0.6991  2.3359
13064TIP3   OH260606   3.220   3.219   3.256 -0.6232 -0.7116 -0.3293
13064TIP3    H160607   3.290   3.185   3.199  1.0093  2.4135 -0.3234
13064TIP3    H260608   3.240   3.184   3.342  0.1584 -0.9661 -0.6103
13065TIP3   OH260609   3.040   4.015   2.477  0.3768  0.2058 -0.8104
13065TIP3    H160610   2.970   4.014   2.542  1.5860 -0.5294  0.5283
13065TIP3    H260611   3.053   4.107   2.456  0.9056  0.5897  1.0767
13066TIP3   OH260612   0.256   6.013   4.520  0.6458 -0.4406  0.5707
13066TIP3    H160613   0.297   5.966   4.447  0.1412  0.2130 -0.1444
13066TIP3    H260614   0.329   6.047   4.572  1.0109 -1.4419  0.7230
13067TIP3   OH260615   5.015   5.245  14.058 -0.4637 -0.1841 -0.6287
13067TIP3    H160616   5.096   5.285  14.088 -1.3642  1.2618 -0.0662
13067TIP3    H260617   5.037   5.205  13.974  0.0145  3.2025 -2.1638
13068TIP3   OH260618   3.177   2.607   6.478 -0.2074 -0.5054  0.5129
13068TIP3    H160619   3.113   2.568   6.419  0.9027 -2.3787  0.4978
13068TIP3    H260620   3.146   2.584   6.566  0.1727 -0.9546  0.5263
13069TIP3   OH260621   3.509   6.639  14.863  0.1819  0.1203  0.2989
13069TIP3    H160622   3.441   6.680  14.810 -1.6832 -0.5826  2.1040
13069TIP3    H260623   3.531   6.559  14.816 -0.4140  0.2336 -0.1800
13070TIP3   OH260624   1.701   5.460   3.143 -0.2946 -0.0961 -0.5872
13070TIP3    H160625   1.639   5.423   3.079 -1.0157  0.1877 -0.0633
13070TIP3    H260626   1.773   5.495   3.090  0.4997 -2.4044 -1.1030
13071TIP3   OH260627   2.971   5.400   4.043  0.0878  0.1785 -0.2670
13071TIP3    H160628   2.985   5.306   4.036  0.0166  0.1939 -0.6381
13071TIP3    H260629   3.037   5.430   4.105  0.5249 -0.0179 -0.6329
13072TIP3   OH260630   0.812   0.760  12.388 -0.2405  1.0547  0.0649
13072TIP3    H160631   0.754   0.771  12.463 -1.0414  2.0697 -0.6994
13072TIP3    H260632   0.776   0.817  12.321  1.0506  0.9136 -0.7662
13073TIP3   OH260633   3.754   5.646   5.305 -0.0764  0.4451  0.1081
13073TIP3    H160634   3.758   5.679   5.395  1.0883  2.8127 -0.7714
13073TIP3    H260635   3.692   5.704   5.261 -1.3743 -1.2815 -0.4306
13074TIP3   OH260636   2.553   3.579  16.724 -0.0587  0.0134 -0.3103
13074TIP3    H160637   2.514   3.587  16.637  1.1966 -1.5886 -1.0595
13074TIP3    H260638   2.584   3.667  16.744  0.5443  0.2051 -1.9463
13075TIP3   OH260639   2.108   2.655  11.213  0.8978 -0.2819 -0.3725
13075TIP3    H160640   2.185   2.630  11.161  1.7317  1.0073  0.2129
13075TIP3    H260641   2.045   2.686  11.148  1.8505  1.1051 -0.6814
13076TIP3   OH260642   0.652   6.232  13.963  0.4517  0.2848  0.0743
13076TIP3    H160643   0.686   6.318  13.939  0.2728  0.0711 -0.9913
13076TIP3    H260644   0.707   6.203  14.036  1.3973  0.7164 -0.4624
13077TIP3   OH260645   0.746   0.641   3.399  0.0345  0.4242 -0.0159
13077TIP3    H160646   0.662   0.596   3.406  0.3500 -0.3784 -1.2080
13077TIP3    H260647   0.754   0.690   3.481 -1.2565 -0.0656  0.4175
13078TIP3   OH260648   2.443   4.170   0.339 -0.0372  0.1545 -0.1738
13078TIP3    H160649   2.479   4.147   0.253  0.2298  2.1394 -0.6040
13078TIP3    H260650   2.520   4.191   0.392 -0.1893 -1.1657  0.6185
13079TIP3   OH260651   4.980   0.812  16.268  0.1721  0.6424 -0.0105
13079TIP3    H160652   4.914   0.796  16.200  0.1796  1.7732 -0.2893
13079TIP3    H260653   4.990   0.907  16.270  1.1298  0.5320  0.6699
13080TIP3   OH260654   1.665   4.374   3.469 -0.8340  0.0348  0.0733
13080TIP3    H160655   1.699   4.451   3.424 -0.5678 -0.7305 -1.0818
13080TIP3    H260656   1.571   4.374   3.451 -0.9583  0.4986  0.7127
13081TIP3   OH260657   3.880   0.246   5.108  0.4622 -0.4656 -0.4300
13081TIP3    H160658   3.904   0.338   5.121 -2.0026 -0.0720  2.0543
13081TIP3    H260659   3.932   0.198   5.172  1.7610 -0.8216 -1.7390
13082TIP3   OH260660   6.334   0.915   0.491  0.1748 -0.1748  0.4094
13082TIP3    H160661   6.265   0.940   0.552  1.7035  2.0303  1.3146
13082TIP3    H260662   6.410   0.964   0.520  0.6979  1.8055 -3.9097
13083TIP3   OH260663   0.741   1.703   3.516 -0.1975 -0.3585  0.6390
13083TIP3    H160664   0.717   1.665   3.600 -0.3353 -1.2063  0.2156
13083TIP3    H260665   0.808   1.645   3.481  1.6975  1.3740  1.2988
13084TIP3   OH260666   1.305   0.780  15.289 -0.0855  0.1834 -0.2715
13084TIP3    H160667   1.220   0.810  15.322  0.2262 -0.3772  1.0676
13084TIP3    H260668   1.303   0.803  15.196 -1.0505  1.6528  0.0792
13085TIP3   OH260669   4.605   5.225   5.981 -0.4891 -0.1068 -0.0060
13085TIP3    H160670   4.668   5.278   5.933 -1.2653 -0.3086 -1.2601
13085TIP3    H260671   4.525   5.278   5.981 -0.6943 -0.4129  0.4678
13086TIP3   OH260672   3.183   2.363   5.581 -0.0094 -0.5117  0.2720
13086TIP3    H160673   3.140   2.361   5.667 -1.7477 -0.6256 -0.5662
13086TIP3    H260674   3.248   2.433   5.588 -0.7031  0.0411  1.4337
13087TIP3   OH260675   6.311   1.705   1.266  0.0874  0.6110  0.3136
13087TIP3    H160676   6.366   1.736   1.338 -1.4916  0.6524  1.5408
13087TIP3    H260677   6.372   1.673   1.201  1.5904  1.4914  1.2561
13088TIP3   OH260678   3.779   4.372   4.938 -0.3401 -0.1746  0.4953
13088TIP3    H160679   3.735   4.431   5.000  0.7567  1.6392 -0.4018
13088TIP3    H260680   3.848   4.330   4.990 -0.0043  0.6585  0.7443
13089TIP3   OH260681   1.258   6.729  14.894  0.2899  0.5771  0.4723
13089TIP3    H160682   1.220   6.805  14.851 -1.8492  0.0584  1.3815
13089TIP3    H260683   1.281   6.670  14.821 -2.4172  0.1156 -0.0767
13090TIP3   OH260684   6.625   0.004  17.035  0.1437  0.4596 -0.3057
13090TIP3    H160685   6.663  -0.041  17.111  0.7180  1.2250 -0.1320
13090TIP3    H260686   6.606  -0.065  16.973 -0.1934 -0.1652  0.4844
13091TIP3   OH260687   0.195   0.004   4.517 -0.1897 -0.2697  0.4077
13091TIP3    H160688   0.172   0.037   4.604 -0.1794  2.2090 -0.5101
13091TIP3    H260689   0.161   0.069   4.456  3.4530  0.1766 -1.2641
13092TIP3   OH260690   5.156   6.535   0.196  0.2441 -0.2044  0.3501
13092TIP3    H160691   5.220   6.467   0.173  0.3449  0.1847 -0.5601
13092TIP3    H260692   5.210   6.609   0.225  0.2579  0.4323 -1.2543
13093TIP3   OH260693   5.807   2.265   1.837 -0.0339 -0.1770  0.9152
13093TIP3    H160694   5.796   2.190   1.779 -2.8268 -0.0385  1.2273
13093TIP3    H260695   5.902   2.273   1.847  0.3984 -1.8680 -1.4258
13094TIP3   OH260696   0.357   5.200   0.506 -0.4656  0.2114 -0.2431
13094TIP3    H160697   0.278   5.182   0.557 -0.2689 -1.3787 -0.4589
13094TIP3    H260698   0.419   5.237   0.569 -0.8217 -0.0989  0.2896
13095TIP3   OH260699   1.972   3.203  15.663 -0.2748 -0.7110 -1.0765
13095TIP3    H160700   2.056   3.158  15.663 -0.9007 -1.9244 -2.0201
13095TIP3    H260701   1.936   3.187  15.575 -1.7029 -0.6346 -0.5264
13096TIP3   OH260702   2.981   3.379   4.366  0.1320  0.0180 -0.5878
13096TIP3    H160703   2.957   3.332   4.445 -2.1252  0.3723 -1.0318
13096TIP3    H260704   3.020   3.313   4.309  2.2215 -0.1413  0.9705
13097TIP3   OH260705   2.206   6.414   3.096  0.0882 -0.4458  0.4591
13097TIP3    H160706   2.166   6.373   3.019 -0.0999 -0.7809  0.7344
13097TIP3    H260707   2.285   6.363   3.112  0.6128  0.1965 -0.0661
13098TIP3   OH260708   0.632   2.389   2.015  0.0946  0.1377 -0.7517
13098TIP3    H160709   0.579   2.437   1.951 -0.8239  0.1639  0.0079
13098TIP3    H260710   0.586   2.305   2.026  0.4581 -0.0196 -0.4265
13099TIP3   OH260711   0.557   3.579  12.966 -0.0778  0.0420 -0.1447
13099TIP3    H160712   0.598   3.636  13.030  0.3870  0.2828 -0.6617
13099TIP3    H260713   0.589   3.610  12.881 -2.0403  0.8352 -0.6247
13100TIP3   OH260714   3.861   6.057  11.280  0.4186  0.4055 -0.4175
13100TIP3    H160715   3.950   6.088  11.299  1.2538 -1.7673 -0.6587
13100TIP3    H260716   3.849   6.074  11.187  0.9637 -0.2353 -0.6041
13101TIP3   OH260717   0.180   2.999  12.620 -0.8595  0.0975  0.1050
13101TIP3    H160718   0.138   2.968  12.701 -0.4922  0.1354  0.3128
13101TIP3    H260719   0.226   2.922  12.587 -0.3585  0.2860  0.3544
13102TIP3   OH260720   4.768   4.632   4.329  0.3483  0.3212  0.3326
13102TIP3    H160721   4.818   4.558   4.365 -0.4507 -0.1116  0.5667
13102TIP3    H260722   4.822   4.708   4.348  0.9725 -0.1527  0.4988
13103TIP3   OH260723   4.193   4.485   5.278  0.2737  0.5763  0.1420
13103TIP3    H160724   4.251   4.529   5.216  0.8056  2.0986  1.6781
13103TIP3    H260725   4.132   4.554   5.306 -0.9845 -0.5030  0.0733
13104TIP3   OH260726   4.028   3.799  11.075 -0.1461 -0.3617  0.1223
13104TIP3    H160727   3.952   3.754  11.112 -0.6165  0.1547 -0.2100
13104TIP3    H260728   4.099   3.783  11.138  0.0719 -2.7293 -0.6565
13105TIP3   OH260729   0.974   4.724   4.404 -0.7339 -0.2280  0.1708
13105TIP3    H160730   0.972   4.675   4.322  0.9968 -1.9893  1.1209
13105TIP3    H260731   0.999   4.813   4.379 -1.3676 -0.4562 -1.3156
13106TIP3   OH260732   6.296   4.442   6.306  0.1565  0.2470 -0.1926
13106TIP3    H160733   6.246   4.363   6.285 -0.8926  0.6415  0.7651
13106TIP3    H260734   6.335   4.424   6.392  0.1001  0.6743 -0.0752
13107TIP3   OH260735   5.117   4.780  14.442 -0.8116 -0.0119  0.2661
13107TIP3    H160736   5.055   4.851  14.429 -1.5978 -0.9415 -1.1588
13107TIP3    H260737   5.067   4.700  14.426  0.3507 -0.8347  0.6489
13108TIP3   OH260738   5.052   1.655   2.796 -0.1607 -0.4570  0.0137
13108TIP3    H160739   5.110   1.606   2.738  0.2820  0.9698 -0.7477
13108TIP3    H260740   4.964   1.638   2.761  0.1376  0.7897 -1.3882
13109TIP3   OH260741   0.736   4.473   1.388 -0.4387 -0.3031 -0.4756
13109TIP3    H160742   0.719   4.443   1.299 -2.2865  1.3544 -0.7257
13109TIP3    H260743   0.830   4.467   1.398 -0.3075 -1.4607 -2.2073
13110TIP3   OH260744   4.039   2.197   6.073 -0.1235 -0.0462  0.2787
13110TIP3    H160745   4.048   2.102   6.075  0.5381  0.0216  1.3712
13110TIP3    H260746   4.090   2.227   6.148 -1.7711  1.0552  0.9881
13111TIP3   OH260747   3.595   3.574   3.593 -0.2739 -0.4766 -0.4188
13111TIP3    H160748   3.544   3.528   3.660  0.2556  0.8173  0.9091
13111TIP3    H260749   3.537   3.644   3.564  0.7999  1.1648  1.2857
13112TIP3   OH260750   0.246   2.898  15.854  0.1149  0.2450 -0.0494
13112TIP3    H160751   0.245   2.903  15.759 -0.2822  0.5167 -0.0332
13112TIP3    H260752   0.321   2.951  15.880  0.3744 -0.0370 -0.2224
13113TIP3   OH260753   3.847   2.962  14.301  0.0708 -0.0499  0.0431
13113TIP3    H160754   3.913   2.920  14.357  0.6732  0.1931 -0.4661
13113TIP3    H260755   3.881   2.950  14.212 -0.2420  0.6600 -0.1768
13114TIP3   OH260756   1.671   4.812  11.325  0.3456  0.0746  0.2273
13114TIP3    H160757   1.616   4.820  11.247  0.0513 -0.4507  0.3728
13114TIP3    H260758   1.760   4.829  11.294  0.2021  0.0926 -0.1795
13115TIP3   OH260759   4.666   4.119  13.288  0.5409 -0.0897 -0.4114
13115TIP3    H160760   4.755   4.110  13.252  0.6239  1.3739 -0.5995
13115TIP3    H260761   4.653   4.213  13.296 -1.6464 -0.2244 -2.0302
13116TIP3   OH260762   4.877   1.317   4.712  0.2975 -0.0973 -0.0745
13116TIP3    H160763   4.785   1.314   4.685 -0.6669 -0.2383  2.9803
13116TIP3    H260764   4.906   1.405   4.689 -1.3842  0.8068  1.1181
13117TIP3   OH260765   1.120   4.839   3.589  0.0945  0.0915  0.0002
13117TIP3    H160766   1.039   4.798   3.558 -0.4582  2.0400 -1.2102
13117TIP3    H260767   1.093   4.893   3.663  0.3769  0.3092 -0.0560
13118TIP3   OH260768   1.294   2.994   3.555  0.8310 -0.0636 -0.1019
13118TIP3    H160769   1.255   2.962   3.636 -1.5737  1.2018 -0.7316
13118TIP3    H260770   1.344   3.071   3.582 -0.3548  0.6377  0.1219
13119TIP3   OH260771   5.714   3.182   4.677 -0.3082  0.1319  0.4068
13119TIP3    H160772   5.643   3.183   4.741 -0.7322  0.6358 -0.0652
13119TIP3    H260773   5.723   3.090   4.651 -0.5826  0.0265  0.6894
13120TIP3   OH260774   6.324   1.371   3.893 -0.0020  0.0828 -0.4895
13120TIP3    H160775   6.383   1.420   3.952 -1.0652  1.5638 -0.6280
13120TIP3    H260776   6.240   1.370   3.939 -0.3866 -0.2814 -1.1992
13121TIP3   OH260777   5.756   1.542   4.910 -0.6777  0.0340  0.8159
13121TIP3    H160778   5.689   1.485   4.947 -2.4583  0.4437 -1.6816
13121TIP3    H260779   5.708   1.603   4.854  1.8330 -0.2620 -1.7788
13122TIP3   OH260780   0.456   5.302   3.279  0.5801  0.2157  0.0476
13122TIP3    H160781   0.412   5.223   3.310  2.5191 -0.7445  0.3934
13122TIP3    H260782   0.528   5.270   3.225  1.3726  1.7479  0.1836
13123TIP3   OH260783   0.280   2.564  11.442  0.0689  0.6142 -0.0023
13123TIP3    H160784   0.333   2.532  11.515 -2.3723 -1.7465  0.8382
13123TIP3    H260785   0.335   2.550  11.365  1.1058 -0.7492  0.9535
13124TIP3   OH260786   1.351   5.496   5.122 -0.4273  1.0600 -0.3778
13124TIP3    H160787   1.308   5.514   5.039 -1.2288 -0.1629 -0.2531
13124TIP3    H260788   1.380   5.405   5.115 -1.8359  0.4468  1.2163
13125TIP3   OH260789   6.398   0.619   1.337  0.1573  0.8154 -0.1805
13125TIP3    H160790   6.348   0.538   1.334  0.2366  0.8039 -3.7236
13125TIP3    H260791   6.481   0.595   1.378 -0.5720 -0.4402  0.5612
13126TIP3   OH260792   6.479   2.667   6.103  0.8971 -0.0464  0.1955
13126TIP3    H160793   6.464   2.582   6.144  1.7411  0.0558  0.7224
13126TIP3    H260794   6.463   2.730   6.173  0.2184  0.2370 -0.2097
13127TIP3   OH260795   5.333   6.234   2.652  0.4555 -0.2336 -0.2359
13127TIP3    H160796   5.328   6.191   2.567  0.8094  0.5949 -0.6849
13127TIP3    H260797   5.426   6.229   2.676  0.2066 -1.3031  0.5485
13128TIP3   OH260798   0.593   2.846   3.415  0.4260  0.1376 -0.0859
13128TIP3    H160799   0.667   2.786   3.405 -0.7081 -1.5012  1.1615
13128TIP3    H260800   0.630   2.921   3.461  1.4600 -0.3502 -0.0952
13129TIP3   OH260801   2.727   4.975   2.349 -0.3076 -0.1916 -0.0368
13129TIP3    H160802   2.819   4.980   2.376 -0.4397 -2.1516  0.8689
13129TIP3    H260803   2.697   4.890   2.382 -2.6449  0.7207  0.2922
13130TIP3   OH260804   0.620   6.596   5.663  0.1833  0.5154  0.5747
13130TIP3    H160805   0.642   6.554   5.745 -0.2494 -0.3006  0.2765
13130TIP3    H260806   0.658   6.684   5.670  1.1393  0.0598  1.1696
13131TIP3   OH260807   4.150   2.057   3.953 -0.4868 -0.8363  0.3154
13131TIP3    H160808   4.125   2.081   4.042 -1.3348 -0.2637 -0.0739
13131TIP3    H260809   4.121   2.131   3.899 -0.2595 -1.3225 -0.4777
13132TIP3   OH260810   2.071   1.281   1.839  0.2317  0.1968 -0.3895
13132TIP3    H160811   2.088   1.296   1.932  1.9137 -1.8760 -0.3258
13132TIP3    H260812   2.064   1.186   1.831  0.9002  0.3104 -2.5020
13133TIP3   OH260813   3.721   6.137  16.137 -0.1731  0.0936  0.4945
13133TIP3    H160814   3.702   6.205  16.072  0.1588  1.4697  1.8071
13133TIP3    H260815   3.810   6.156  16.166  0.5037 -1.8413 -0.2172
13134TIP3   OH260816   2.773   0.346  10.405  0.0338 -0.2844 -0.4429
13134TIP3    H160817   2.703   0.283  10.388  0.0379  0.2925 -2.7162
13134TIP3    H260818   2.853   0.300  10.381  0.2409 -0.1488 -0.0270
13135TIP3   OH260819   2.192   5.741   4.245  0.0451 -0.4723  0.2409
13135TIP3    H160820   2.240   5.793   4.309 -0.1995 -0.2850  0.2694
13135TIP3    H260821   2.254   5.672   4.220  0.7277  0.3817 -0.5098
13136TIP3   OH260822   2.538   0.752  14.776  0.3774  0.6505  0.0459
13136TIP3    H160823   2.582   0.702  14.707  1.0272  0.0656  0.8905
13136TIP3    H260824   2.549   0.700  14.855 -0.5979  1.1992  0.5550
13137TIP3   OH260825   0.879   2.923   6.194  0.4191 -0.0111  0.4035
13137TIP3    H160826   0.861   2.932   6.101 -0.9479 -0.7791  0.5793
13137TIP3    H260827   0.799   2.887   6.231  0.0665  2.5155  2.2848
13138TIP3   OH260828   2.359   5.332   5.284 -0.2076  0.0661 -0.0702
13138TIP3    H160829   2.411   5.384   5.346 -0.3475  0.3044 -0.1518
13138TIP3    H260830   2.379   5.241   5.307 -0.5687  0.1468  0.5952
13139TIP3   OH260831   1.431   4.898  11.670 -0.2115 -0.0409 -0.4815
13139TIP3    H160832   1.362   4.902  11.604  0.6854 -0.6359 -1.4813
13139TIP3    H260833   1.512   4.916  11.622  0.2269  1.8178  0.8907
13140TIP3   OH260834   0.323   1.082   1.755 -0.1381 -0.3420 -0.3947
13140TIP3    H160835   0.369   1.100   1.837  0.1137  1.5141 -0.9063
13140TIP3    H260836   0.371   1.009   1.716 -0.0388 -1.0066  0.9228
13141TIP3   OH260837   1.448   5.424   5.626  0.4452 -0.0713 -0.2351
13141TIP3    H160838   1.392   5.348   5.642  0.6864 -0.2436 -0.1992
13141TIP3    H260839   1.536   5.387   5.615  0.6606  0.2524  0.3780
13142TIP3   OH260840   3.068   0.903   2.823  0.2029  0.2150  0.0734
13142TIP3    H160841   2.982   0.896   2.864 -1.0487  1.4203 -2.2176
13142TIP3    H260842   3.128   0.861   2.884 -1.9885 -0.4849  1.7921
13143TIP3   OH260843   6.112   1.477  16.512 -0.0537 -0.4376  0.0816
13143TIP3    H160844   6.083   1.429  16.434  0.7664 -1.3356  0.3244
13143TIP3    H260845   6.202   1.448  16.526 -0.9166 -1.9935  2.6915
13144TIP3   OH260846   4.947   3.543  12.192 -0.6338 -0.0979  0.2265
13144TIP3    H160847   4.875   3.606  12.181 -0.7109 -0.4664 -1.5899
13144TIP3    H260848   4.939   3.485  12.117  1.6958 -0.0339 -0.1014
13145TIP3   OH260849   2.596   0.517  10.858  0.9214  0.1884  0.5031
13145TIP3    H160850   2.647   0.589  10.820  1.6611  0.4014  1.8930
13145TIP3    H260851   2.625   0.440  10.810  0.5895  0.7023 -0.5537
13146TIP3   OH260852   0.751   0.128   2.044 -0.3034  0.1551  0.1548
13146TIP3    H160853   0.730   0.036   2.054  0.6639  0.0350  1.2330
13146TIP3    H260854   0.704   0.156   1.966 -1.6232 -0.9338  0.5543
13147TIP3   OH260855   0.126   4.789   0.590  0.8106  0.2427 -0.3422
13147TIP3    H160856   0.145   4.699   0.565 -0.2244  0.0636 -0.4784
13147TIP3    H260857   0.083   4.827   0.514  2.2510  1.1891 -0.7011
13148TIP3   OH260858   0.713   1.575   1.222  0.3860 -0.1251  0.6667
13148TIP3    H160859   0.780   1.611   1.163  0.5622 -2.5754 -0.7068
13148TIP3    H260860   0.742   1.485   1.237 -0.8879 -0.2154  2.7165
13149TIP3   OH260861   5.983   5.173  14.189  0.5544 -0.3404 -0.4615
13149TIP3    H160862   5.920   5.238  14.221 -0.5141 -0.3755 -2.4206
13149TIP3    H260863   5.952   5.090  14.225 -0.8396 -0.4313 -1.8114
13150TIP3   OH260864   0.635   4.029   3.573 -0.1272  0.1123 -0.9288
13150TIP3    H160865   0.684   3.994   3.499 -1.1298 -1.4390 -0.9106
13150TIP3    H260866   0.549   3.986   3.566  0.2520 -1.1970  1.9599
13151TIP3   OH260867   6.032   0.879  12.040  0.2028 -0.0788  0.3985
13151TIP3    H160868   6.127   0.886  12.033  0.2964 -0.1950  1.4345
13151TIP3    H260869   6.014   0.785  12.042  0.1976 -0.0629  1.6879
13152TIP3   OH260870   0.621   4.306  10.591 -0.7476 -0.6600  0.4524
13152TIP3    H160871   0.689   4.318  10.657 -0.5870  1.8538 -0.1169
13152TIP3    H260872   0.612   4.211  10.583  3.0341 -1.0961  0.1912
13153TIP3   OH260873   3.272   1.632  16.961  0.1513  0.5396  0.1100
13153TIP3    H160874   3.192   1.611  17.009  0.5627  0.1198  0.6240
13153TIP3    H260875   3.245   1.637  16.870 -0.7009  1.6567  0.4198
13154TIP3   OH260876   2.793   4.753   2.734  0.0245  0.3849 -0.5253
13154TIP3    H160877   2.713   4.743   2.786  2.0429 -1.7360  2.3782
13154TIP3    H260878   2.834   4.833   2.766 -0.0014  0.4245 -0.5929
13155TIP3   OH260879   2.574   5.557  11.613  0.6430 -0.1757  0.5773
13155TIP3    H160880   2.569   5.489  11.545 -1.6771  0.3944  0.1091
13155TIP3    H260881   2.643   5.616  11.584  0.1562 -0.3326 -0.9344
13156TIP3   OH260882   5.785   6.414  13.264  0.0376  0.2736 -0.2855
13156TIP3    H160883   5.801   6.507  13.256  1.9276 -0.0546 -0.4413
13156TIP3    H260884   5.714   6.408  13.328 -0.2559  1.8198 -0.4523
13157TIP3   OH260885   0.002   6.518   1.408  0.5420  0.2386 -0.2119
13157TIP3    H160886  -0.010   6.426   1.384 -1.1652  0.0935  1.0036
13157TIP3    H260887   0.084   6.544   1.368  0.8899 -1.7432 -0.8231
13158TIP3   OH260888   4.372   0.425  16.768  0.3805  0.3227 -0.2104
13158TIP3    H160889   4.396   0.369  16.843 -0.1672  0.4106  0.0376
13158TIP3    H260890   4.421   0.389  16.694  1.3231  0.5494  0.2931
13159TIP3   OH260891   5.694   5.518  11.126 -0.1835 -0.5387  0.6015
13159TIP3    H160892   5.704   5.604  11.086  3.2551 -0.7140  0.9871
13159TIP3    H260893   5.625   5.476  11.074 -1.0967  1.9746 -0.3194
13160TIP3   OH260894   1.145   2.406   5.116 -0.0363  0.1237  0.3453
13160TIP3    H160895   1.201   2.484   5.124  0.7914 -0.5489  1.2357
13160TIP3    H260896   1.206   2.333   5.120 -0.9685 -0.6129  1.0772
13161TIP3   OH260897   6.258   6.175  13.203  0.4083 -0.4625 -0.1181
13161TIP3    H160898   6.299   6.091  13.182  0.7440 -0.0619 -1.1053
13161TIP3    H260899   6.223   6.163  13.291  2.1569 -1.0058  0.5272
13162TIP3   OH260900   0.683   0.535  14.690 -0.0209 -0.5805  1.0377
13162TIP3    H160901   0.777   0.551  14.696  0.2332 -1.0219 -1.3939
13162TIP3    H260902   0.643   0.622  14.695  0.5678 -0.3185  1.1310
13163TIP3   OH260903   6.236   2.827  15.700  0.0395 -0.0006 -0.2073
13163TIP3    H160904   6.176   2.891  15.661  0.0550 -0.3049 -0.7489
13163TIP3    H260905   6.323   2.864  15.686 -0.0399  0.5693  0.8239
13164TIP3   OH260906   1.057   3.683   6.094  0.1119 -0.6655  0.7296
13164TIP3    H160907   1.111   3.761   6.106  0.0039 -0.8005  2.1413
13164TIP3    H260908   0.968   3.712   6.115  0.1984 -1.3792  2.1528
13165TIP3   OH260909   4.284   6.267  10.811 -0.3310  0.2156  0.1214
13165TIP3    H160910   4.271   6.298  10.722  0.5807  2.2250  0.6442
13165TIP3    H260911   4.379   6.263  10.821 -0.4048  1.7271  1.5555
13166TIP3   OH260912   6.564   4.929  12.626 -0.4552 -0.6798 -0.2816
13166TIP3    H160913   6.576   4.897  12.536  1.9679 -0.5764 -0.0315
13166TIP3    H260914   6.536   5.020  12.615 -0.5992 -0.7972 -0.9358
13167TIP3   OH260915   5.358   5.008  12.211  0.4558  0.3805  0.1295
13167TIP3    H160916   5.440   4.963  12.229  0.5642  0.5361  0.0209
13167TIP3    H260917   5.303   4.990  12.288  1.2612  1.8679  1.0604
13168TIP3   OH260918   0.809   4.918  14.711 -0.1833 -0.0367 -0.1377
13168TIP3    H160919   0.781   5.010  14.702 -0.5766 -0.1865 -0.4669
13168TIP3    H260920   0.866   4.903  14.636  0.7366  0.2499  0.5020
13169TIP3   OH260921   1.830   4.711  15.320 -0.1378  0.1854  0.0410
13169TIP3    H160922   1.783   4.629  15.334 -0.5082  0.4955  0.6441
13169TIP3    H260923   1.900   4.709  15.385  0.4527 -0.1015 -0.6016
13170TIP3   OH260924   3.654   5.312   4.106  0.1548  0.4609  0.3612
13170TIP3    H160925   3.734   5.280   4.148  0.1552 -1.8796 -1.3473
13170TIP3    H260926   3.583   5.281   4.163  0.3048 -0.2805  0.1507
13171TIP3   OH260927   6.016   1.520  17.130 -0.2668  0.3475 -0.2173
13171TIP3    H160928   5.982   1.573  17.203  0.5569  1.5193 -0.6640
13171TIP3    H260929   6.019   1.582  17.057 -1.8035 -1.0036 -1.4565
13172TIP3   OH260930   4.830   1.892   1.661 -0.2412  0.5781 -0.3981
13172TIP3    H160931   4.866   1.979   1.645 -0.9429  1.1470  1.0686
13172TIP3    H260932   4.901   1.844   1.704  0.1217  0.4403 -1.1438
13173TIP3   OH260933   6.591   1.982  14.167 -0.6375 -0.2719  0.2745
13173TIP3    H160934   6.663   2.000  14.226  0.0031  1.2399 -0.9373
13173TIP3    H260935   6.612   1.897  14.128 -1.0243 -1.2381  2.1009
13174TIP3   OH260936   6.430   6.649  14.952  0.5654  0.1546 -0.1016
13174TIP3    H160937   6.452   6.698  15.032 -0.0227  0.4723 -0.1301
13174TIP3    H260938   6.430   6.557  14.979 -0.2376  0.2974  0.4251
13175TIP3   OH260939   4.047   1.604  14.168 -0.0045 -0.0622  0.0940
13175TIP3    H160940   4.052   1.677  14.106 -2.6733 -0.7989 -1.0504
13175TIP3    H260941   4.078   1.528  14.119 -1.1083 -0.4530  0.0070
13176TIP3   OH260942   4.871   4.626   1.990  0.3962  0.0204 -0.5971
13176TIP3    H160943   4.929   4.549   1.995  0.8660  0.2381 -2.2300
13176TIP3    H260944   4.931   4.701   1.993  0.3589  0.2366 -3.4922
13177TIP3   OH260945   2.466   1.097   0.895 -0.1518  0.1792 -0.2208
13177TIP3    H160946   2.461   1.037   0.820 -0.3864 -0.2312  0.1173
13177TIP3    H260947   2.558   1.095   0.921 -0.3972 -1.0795  0.6183
13178TIP3   OH260948   1.163   2.170   5.427 -0.0935 -0.2875  0.1201
13178TIP3    H160949   1.250   2.201   5.402  0.2761 -1.7185 -0.4580
13178TIP3    H260950   1.160   2.080   5.393 -2.0622 -0.0004 -0.4744
13179TIP3   OH260951   3.750   1.326   1.384  0.3920 -0.3723  0.0496
13179TIP3    H160952   3.766   1.351   1.475 -0.2810 -2.5268  0.7796
13179TIP3    H260953   3.793   1.242   1.374  1.1842  0.2375 -1.8963
13180TIP3   OH260954   2.329   1.901  13.531 -0.0394 -0.1228 -0.5356
13180TIP3    H160955   2.291   1.815  13.516 -2.3585  0.6302  0.7459
13180TIP3    H260956   2.362   1.897  13.621 -1.1714  0.6578 -0.0710
13181TIP3   OH260957   0.639   3.704  11.968  0.1666 -0.0834  0.3626
13181TIP3    H160958   0.673   3.635  12.024 -0.0461 -0.7568 -0.3318
13181TIP3    H260959   0.639   3.782  12.023  2.1282 -0.2293  0.6204
13182TIP3   OH260960   6.087   2.408   0.555  0.1874  0.7226  0.3641
13182TIP3    H160961   6.019   2.449   0.500 -1.5860 -0.6445  1.4790
13182TIP3    H260962   6.133   2.482   0.595 -0.7166  1.6866 -0.3381
13183TIP3   OH260963   4.959   1.260  13.139 -0.0929  0.4578 -0.0673
13183TIP3    H160964   4.888   1.264  13.203 -0.2190  0.3336 -0.1990
13183TIP3    H260965   4.937   1.329  13.076  1.2115  2.1079  1.2326
13184TIP3   OH260966   1.186   3.796  14.267 -0.0737 -0.2268 -0.1113
13184TIP3    H160967   1.260   3.843  14.305 -0.5894  1.5583 -1.2564
13184TIP3    H260968   1.123   3.789  14.339  1.2400 -1.9260  0.9223
13185TIP3   OH260969   0.304   3.277   0.304 -0.2350 -0.6734 -0.1722
13185TIP3    H160970   0.366   3.287   0.232 -0.3258  0.8691 -0.0677
13185TIP3    H260971   0.344   3.213   0.362  0.9710 -0.1518 -0.4130
13186TIP3   OH260972   3.158   1.497   1.660  0.1156 -0.7157  0.0895
13186TIP3    H160973   3.074   1.475   1.620  0.6327 -1.0981 -0.8038
13186TIP3    H260974   3.138   1.513   1.752 -1.4781  2.3392 -0.7224
13187TIP3   OH260975   4.482   6.473  16.405  0.2880  0.3719  0.1417
13187TIP3    H160976   4.430   6.445  16.329 -0.1820 -0.5660  0.8001
13187TIP3    H260977   4.560   6.514  16.367  2.0879 -3.7998 -0.8842
13188TIP3   OH260978   3.380   0.090   5.117 -0.0741  0.3668 -0.7189
13188TIP3    H160979   3.400   0.134   5.199  0.1485  2.3279 -1.8002
13188TIP3    H260980   3.322   0.018   5.141  1.6231 -0.3319  1.4038
13189TIP3   OH260981   4.201   6.773   2.668  0.3011 -0.3333  0.6113
13189TIP3    H160982   4.222   6.684   2.698  0.5136 -0.5273 -0.1120
13189TIP3    H260983   4.285   6.818   2.669  0.2385 -0.2198  0.7065
13190TIP3   OH260984   1.598   6.581   5.463  0.4880  0.0884  0.1768
13190TIP3    H160985   1.682   6.573   5.418  0.3217 -0.9865  0.0426
13190TIP3    H260986   1.587   6.497   5.508 -1.7217 -0.7651 -1.8933
13191TIP3   OH260987   3.337   6.420  12.129  0.5035  0.2661  0.3944
13191TIP3    H160988   3.418   6.377  12.157  0.3034 -0.1903  0.2871
13191TIP3    H260989   3.346   6.429  12.034  1.6589  2.8211  0.7126
13192TIP3   OH260990   4.673   1.279  15.334 -0.3602 -0.3717 -1.3057
13192TIP3    H160991   4.708   1.350  15.280 -1.2996  1.1713  0.0528
13192TIP3    H260992   4.581   1.274  15.311 -0.9562  0.8501  0.6965
13193TIP3   OH260993   4.707   3.706   4.860 -0.0260 -0.7060  0.4264
13193TIP3    H160994   4.690   3.738   4.949  2.1361  3.3842 -0.5155
13193TIP3    H260995   4.652   3.762   4.804  1.0287 -1.1104 -1.0265
13194TIP3   OH260996   5.270   5.367   5.290 -0.4072  0.0437  0.3981
13194TIP3    H160997   5.253   5.273   5.294 -0.6042  0.1210  1.3782
13194TIP3    H260998   5.356   5.377   5.331 -0.7678  0.3974  1.0544
13195TIP3   OH260999   5.343   0.778   5.927  0.2690  0.0575  0.1241
13195TIP3    H161000   5.325   0.812   5.839 -0.3988 -0.7850 -0.0807
13195TIP3    H261001   5.435   0.752   5.925  0.5173  0.9341 -0.0197
13196TIP3   OH261002   2.957   6.358   4.100  0.1917  0.0019  0.4418
13196TIP3    H161003   3.043   6.329   4.132  0.7821  2.1250  0.8829
13196TIP3    H261004   2.926   6.286   4.046  1.9962 -1.0473  0.7562
13197TIP3   OH261005   4.533   3.271  13.691  0.3609 -0.2412 -0.0032
13197TIP3    H161006   4.556   3.352  13.737 -0.0531 -0.2851  0.2819
13197TIP3    H261007   4.570   3.282  13.603 -1.2264  1.0338 -0.5440
13198TIP3   OH261008   3.059   3.934  13.775 -0.2627 -0.0361 -0.1097
13198TIP3    H161009   3.062   4.028  13.757  2.4160  0.0576  0.6146
13198TIP3    H261010   3.150   3.907  13.777 -1.0237 -2.8409 -1.0782
13199TIP3   OH261011   0.091   3.624   4.509  0.2936  0.1343 -0.2729
13199TIP3    H161012   0.172   3.607   4.461  0.8849  2.0874 -0.0026
13199TIP3    H261013   0.119   3.634   4.600 -0.4824 -0.8537  0.0862
13200TIP3   OH261014   3.650   6.110  15.319 -0.2042  0.6409 -0.4525
13200TIP3    H161015   3.597   6.190  15.319 -0.1403  0.6885 -1.5637
13200TIP3    H261016   3.585   6.039  15.322 -0.2476  0.7194  1.2009
13201TIP3   OH261017   1.953   0.398   0.398 -0.4027  0.0051 -0.0316
13201TIP3    H161018   1.863   0.396   0.364 -0.7972  0.8636  0.9543
13201TIP3    H261019   1.995   0.322   0.358 -1.6297 -0.5264 -0.3357
13202TIP3   OH261020   6.043   3.092   4.381 -0.3210  0.1530 -0.1337
13202TIP3    H161021   6.070   3.069   4.470  0.5346  1.6795  0.0069
13202TIP3    H261022   6.061   3.012   4.330 -0.3614 -0.5680  0.9606
13203TIP3   OH261023   2.183   4.980  11.697  0.1746  0.2142  1.0756
13203TIP3    H161024   2.210   4.912  11.635 -0.5695 -0.6709  1.7177
13203TIP3    H261025   2.219   5.061  11.660  1.6065 -0.6011  0.6364
13204TIP3   OH261026   3.755   4.953  13.844 -0.7601  0.1216 -0.1668
13204TIP3    H161027   3.833   4.925  13.795 -0.4488  0.2966  0.2265
13204TIP3    H261028   3.759   4.903  13.925 -1.3397 -0.2510 -0.3687
13205TIP3   OH261029   5.190   3.690  12.272  0.0835 -0.3926 -0.2667
13205TIP3    H161030   5.166   3.602  12.245  0.9818 -1.0259  0.9300
13205TIP3    H261031   5.204   3.683  12.366  1.5743  0.6998 -0.3885
13206TIP3   OH261032   4.393   4.108  12.279 -0.0491 -0.5102 -0.4028
13206TIP3    H161033   4.477   4.090  12.323  0.0334  0.0659 -0.3157
13206TIP3    H261034   4.398   4.058  12.198  0.6647  0.0405 -0.7079
13207TIP3   OH261035   0.218   3.812   5.603  0.0975 -0.2747 -0.0227
13207TIP3    H161036   0.265   3.878   5.552 -1.5930  0.8405 -0.1809
13207TIP3    H261037   0.224   3.733   5.551  0.0433  0.3717 -1.0253
13208TIP3   OH261038   0.889   3.486  17.032 -0.4605  0.4685  0.0831
13208TIP3    H161039   0.927   3.573  17.026  1.8019 -0.4519  0.3930
13208TIP3    H261040   0.798   3.497  17.005 -0.1109  2.8451 -0.2071
13209TIP3   OH261041   2.651   5.036   4.793  0.2870 -0.7117  0.3296
13209TIP3    H161042   2.677   4.960   4.845 -0.1036 -0.3995  1.0056
13209TIP3    H261043   2.558   5.021   4.775  0.5825 -1.1530 -0.8817
13210TIP3   OH261044   2.138   4.629  11.916  0.0774  0.3944 -0.2208
13210TIP3    H161045   2.211   4.690  11.918 -0.0249  0.5325 -0.5870
13210TIP3    H261046   2.179   4.543  11.904  0.1041  0.6456 -2.1916
13211TIP3   OH261047   5.037   0.182  16.541 -1.0833 -0.7553 -0.5266
13211TIP3    H161048   4.984   0.196  16.619  1.0406 -0.6783  0.9533
13211TIP3    H261049   5.020   0.091  16.516 -1.1927 -1.0006  0.4520
13212TIP3   OH261050   4.423   1.333  16.924 -0.2830 -0.0142 -0.2751
13212TIP3    H161051   4.424   1.320  17.019  0.7974  0.1984 -0.2369
13212TIP3    H261052   4.387   1.253  16.888 -0.2202 -0.2983  0.2938
13213TIP3   OH261053   0.670   0.766   4.232 -0.6191 -0.4168 -0.0861
13213TIP3    H161054   0.594   0.710   4.214 -1.0699 -1.1354  3.7146
13213TIP3    H261055   0.736   0.706   4.266  0.9647  0.5229 -1.4506
13214TIP3   OH261056   1.428   1.478   6.020  0.7021  0.5094 -0.6410
13214TIP3    H161057   1.462   1.419   6.087 -1.3784  0.3764  0.3274
13214TIP3    H261058   1.386   1.420   5.956  0.0070  0.8470 -0.4895
13215TIP3   OH261059   4.068   5.366  15.654 -0.4483 -1.0276 -0.4430
13215TIP3    H161060   4.071   5.453  15.694 -0.8597 -1.5087  0.6431
13215TIP3    H261061   3.998   5.373  15.589 -0.1525 -0.4021 -0.7029
13216TIP3   OH261062   3.804   1.616  16.769 -0.0760 -0.2534 -0.1475
13216TIP3    H161063   3.710   1.621  16.788  0.2495 -0.1808  1.5130
13216TIP3    H261064   3.835   1.542  16.821  0.3579 -1.8510 -2.6128
13217TIP3   OH261065   3.747   1.247   1.905 -0.2527  0.1831 -0.1796
13217TIP3    H161066   3.821   1.306   1.921 -0.1464  0.4245 -1.5130
13217TIP3    H261067   3.670   1.298   1.928 -0.1258  0.6420 -0.7696
13218TIP3   OH261068   2.650   6.108   2.207 -0.2069  0.2090 -0.3483
13218TIP3    H161069   2.645   6.099   2.112  1.4508  0.0796 -0.4334
13218TIP3    H261070   2.743   6.102   2.227 -0.3405  2.2756  1.0756
13219TIP3   OH261071   4.830   1.193   0.117  0.3528  0.1825 -0.5965
13219TIP3    H161072   4.759   1.144   0.075 -0.3931  1.0461 -0.3763
13219TIP3    H261073   4.787   1.272   0.150  0.6017 -1.1094  3.0329
13220TIP3   OH261074   3.526   4.448  12.953 -0.1107  0.1363 -0.1768
13220TIP3    H161075   3.579   4.442  12.873  0.6557  0.7425  0.2870
13220TIP3    H261076   3.436   4.454  12.921  0.0889 -0.9409 -0.9668
13221TIP3   OH261077   1.618   3.045  12.519 -0.6613  0.0383  0.1529
13221TIP3    H161078   1.651   3.101  12.589 -0.1480  0.9998 -0.8400
13221TIP3    H261079   1.528   3.075  12.506 -1.2113 -1.0466  1.2960
13222TIP3   OH261080   6.075   6.569  13.125 -0.0068 -0.2006 -0.0438
13222TIP3    H161081   6.051   6.643  13.069  1.3524  0.3333  0.0776
13222TIP3    H261082   6.062   6.601  13.214 -0.5452 -0.5045 -0.0062
13223TIP3   OH261083   2.799   0.178  11.825  0.4493 -0.2314 -0.0593
13223TIP3    H161084   2.848   0.237  11.768 -1.8224  1.0318 -0.7626
13223TIP3    H261085   2.787   0.098  11.773  0.5460 -0.0316 -0.3893
13224TIP3   OH261086   3.015   1.207  12.919 -0.0788  0.4124 -0.0390
13224TIP3    H161087   3.004   1.196  12.824 -0.8344  1.7913 -0.1210
13224TIP3    H261088   2.926   1.207  12.953  0.2076 -0.6175  0.7561
13225TIP3   OH261089   1.570   2.689  13.998 -0.3300  0.1112 -0.4965
13225TIP3    H161090   1.641   2.748  13.974  1.4481 -1.4543  0.8061
13225TIP3    H261091   1.493   2.746  14.005  1.3996  2.3245  1.0248
13226TIP3   OH261092   0.750   6.530  11.025  0.0211  0.3999  0.2321
13226TIP3    H161093   0.831   6.495  10.987 -0.2356 -0.5470  0.5497
13226TIP3    H261094   0.714   6.585  10.956 -0.2322 -0.9998 -0.7710
13227TIP3   OH261095   1.311   1.535   4.056 -0.2102  0.5487 -0.2239
13227TIP3    H161096   1.305   1.618   4.008 -0.9979  0.2638 -0.6287
13227TIP3    H261097   1.321   1.560   4.148 -0.9748  1.0880 -0.2893
13228TIP3   OH261098   2.410   4.694  12.233 -0.9451  0.4225 -0.0024
13228TIP3    H161099   2.413   4.757  12.305 -0.6523 -0.5847  0.8730
13228TIP3    H261100   2.489   4.641  12.244 -0.9204  0.2282 -1.0354
13229TIP3   OH261101   4.916   6.221  16.517 -0.2028 -0.9224 -0.6457
13229TIP3    H161102   4.891   6.129  16.504 -4.3361 -0.2760  1.9041
13229TIP3    H261103   4.925   6.230  16.612 -3.1457  2.0195 -0.5559
13230TIP3   OH261104   0.583   5.173  14.179 -0.4611  0.1486 -0.2817
13230TIP3    H161105   0.633   5.113  14.124  0.7825  0.8665  0.0346
13230TIP3    H261106   0.494   5.169  14.145  0.1819  0.1841 -2.0175
13231TIP3   OH261107   4.064   0.639  13.166  0.0623  0.4199  0.0732
13231TIP3    H161108   4.103   0.580  13.230  2.3615  2.3022  0.4278
13231TIP3    H261109   3.972   0.646  13.193  0.2177 -1.4213  1.1639
13232TIP3   OH261110   2.820   4.786  15.541  0.1677 -0.0752  0.9231
13232TIP3    H161111   2.730   4.804  15.567  0.4371 -0.1462  1.9293
13232TIP3    H261112   2.824   4.813  15.449 -1.5291 -2.3542  0.1440
13233TIP3   OH261113   2.241   3.720   0.122  0.1010 -0.3991  0.3336
13233TIP3    H161114   2.174   3.753   0.062  0.9864  2.3577  0.7430
13233TIP3    H261115   2.324   3.753   0.085  0.9206 -1.1319  1.4821
13234TIP3   OH261116   2.459   4.375  15.884 -0.5734 -0.1940  0.3583
13234TIP3    H161117   2.515   4.376  15.962  0.3166 -0.5944 -0.2626
13234TIP3    H261118   2.448   4.282  15.863 -0.1264 -0.0743 -0.4566
13235TIP3   OH261119   6.538   4.230   4.028 -0.0802 -0.1027 -0.1293
13235TIP3    H161120   6.449   4.255   4.004  0.2691  0.7315 -0.5847
13235TIP3    H261121   6.527   4.163   4.096 -1.0388  1.7166  1.5565
13236TIP3   OH261122   0.599   5.041  14.554  0.4647 -0.0176  0.1053
13236TIP3    H161123   0.639   5.079  14.632 -2.4593  1.3251  1.0290
13236TIP3    H261124   0.615   5.105  14.485  2.2307 -0.7653 -0.2005
13237TIP3   OH261125   6.171   4.609  13.720 -0.4625 -0.4033  0.4044
13237TIP3    H161126   6.148   4.629  13.629 -1.1981 -0.8672  0.4870
13237TIP3    H261127   6.202   4.519  13.718 -1.0865 -0.6312  0.7107
13238TIP3   OH261128   1.714   2.195   5.279  0.6951 -0.1221 -0.1035
13238TIP3    H161129   1.724   2.183   5.184  2.7906  1.9009 -0.1714
13238TIP3    H261130   1.681   2.285   5.288  1.7195  0.1354  1.1388
13239TIP3   OH261131   3.420   0.473   0.295 -0.6234 -0.6562  0.1233
13239TIP3    H161132   3.379   0.391   0.269  0.7646 -1.0669 -0.8843
13239TIP3    H261133   3.467   0.452   0.376  1.8914 -1.5957 -1.5062
13240TIP3   OH261134   4.029   4.999   3.050 -0.4874 -0.1216 -0.3361
13240TIP3    H161135   3.966   5.050   2.998  0.2159  2.8147  1.5542
13240TIP3    H261136   4.055   4.927   2.992 -2.8005  0.7125 -2.5049
13241TIP3   OH261137   1.319   3.396   6.533  0.3473 -0.3003  0.0979
13241TIP3    H161138   1.402   3.439   6.553  0.5694 -0.6392 -0.0747
13241TIP3    H261139   1.335   3.304   6.556 -0.0275 -0.3397  0.1980
13242TIP3   OH261140   6.654   4.376  12.750  0.7781  0.5817 -0.1703
13242TIP3    H161141   6.731   4.400  12.802 -0.3014  2.3764  0.6403
13242TIP3    H261142   6.604   4.317  12.806  1.0979  0.1525 -0.3351
13243TIP3   OH261143   0.960   4.061   2.960  0.1803 -0.1757 -0.4298
13243TIP3    H161144   0.957   4.156   2.969  0.1075 -0.1729 -0.4777
13243TIP3    H261145   0.880   4.039   2.912  0.4649 -0.2099 -0.8884
13244TIP3   OH261146   6.724   5.579   1.644 -0.1201 -0.3994 -0.1527
13244TIP3    H161147   6.667   5.581   1.721  0.3898 -0.2974  0.2223
13244TIP3    H261148   6.697   5.654   1.592  0.2018  0.1064  0.4049
13245TIP3   OH261149   0.482   1.126  13.133 -0.0725  0.4407 -0.8222
13245TIP3    H161150   0.388   1.119  13.116 -0.0490  2.0999 -1.7228
13245TIP3    H261151   0.497   1.067  13.206 -1.6893 -0.4098 -1.1533
13246TIP3   OH261152   6.412   5.743   5.855  0.7976  0.4668  0.1874
13246TIP3    H161153   6.472   5.672   5.831 -0.1083 -0.8265  1.6241
13246TIP3    H261154   6.422   5.751   5.950 -0.6775  0.8135  0.3223
13247TIP3   OH261155   1.428   2.147  13.876  0.3730  0.4841  0.2354
13247TIP3    H161156   1.387   2.224  13.915 -0.9796  0.1296 -0.4636
13247TIP3    H261157   1.368   2.120  13.806  0.7987 -1.2161  0.4890
13248TIP3   OH261158   5.766   1.589  14.704  0.0053  0.0029 -0.6174
13248TIP3    H161159   5.834   1.576  14.638 -1.5451  0.1186 -2.2786
13248TIP3    H261160   5.698   1.639  14.659 -0.7371  0.7812  1.3115
13249TIP3   OH261161   3.427   4.418  14.620  0.8569 -0.0425 -0.5592
13249TIP3    H161162   3.522   4.430  14.614  0.9701 -0.6121  0.0008
13249TIP3    H261163   3.405   4.364  14.544  1.3447 -1.9131  0.6043
13250TIP3   OH261164   2.989   2.405   0.756 -0.0891 -0.1286  0.5104
13250TIP3    H161165   3.033   2.417   0.840 -0.5246  0.1101  0.7079
13250TIP3    H261166   2.994   2.311   0.739  0.1877 -0.1467  0.7007
13251TIP3   OH261167   6.092   3.064  15.751 -0.2567  0.2234 -0.5165
13251TIP3    H161168   6.080   3.048  15.845 -1.5316 -0.4997 -0.7919
13251TIP3    H261169   6.187   3.076  15.741  0.1619 -1.9415  0.5285
13252TIP3   OH261170   2.830   2.366   5.192  0.2029  0.2451  0.3222
13252TIP3    H161171   2.792   2.442   5.236  0.7625  1.4838 -1.2803
13252TIP3    H261172   2.891   2.329   5.256  0.8182  1.8761  0.7104
13253TIP3   OH261173   0.437   4.535  14.881 -0.3279 -0.0438 -0.0192
13253TIP3    H161174   0.446   4.590  14.803  0.1258  1.0988  0.8239
13253TIP3    H261175   0.516   4.554  14.932  0.3615 -2.2835 -0.2035
13254TIP3   OH261176   6.510   3.130   4.653 -0.5122 -0.1238 -0.1959
13254TIP3    H161177   6.433   3.085   4.687 -0.7358 -0.2163 -0.8160
13254TIP3    H261178   6.577   3.117   4.720 -0.3592 -2.0077 -0.6787
13255TIP3   OH261179   3.925   1.627  14.667  0.4526 -0.1073  0.1210
13255TIP3    H161180   3.980   1.557  14.633  0.3210 -0.5667  0.8197
13255TIP3    H261181   3.978   1.669  14.735  0.1122 -0.2777  0.4995
13256TIP3   OH261182   1.082   5.620   5.670 -0.7016  0.2086 -0.1817
13256TIP3    H161183   1.056   5.684   5.736 -1.0560  0.3096 -0.4168
13256TIP3    H261184   1.009   5.557   5.667 -0.9282  0.4968 -0.8482
13257TIP3   OH261185   3.735   4.351  15.890 -0.5331 -0.2667  0.3880
13257TIP3    H161186   3.696   4.292  15.826  1.9022  0.0420 -1.4514
13257TIP3    H261187   3.663   4.409  15.916 -1.7377 -0.8561 -1.5116
13258TIP3   OH261188   1.126   6.031   1.969 -0.4016  0.2770  0.4250
13258TIP3    H161189   1.055   5.973   1.998  1.1173 -1.5306  0.6164
13258TIP3    H261190   1.127   6.021   1.874  0.7065 -1.0417  0.5647
13259TIP3   OH261191   5.940   2.291   1.051  0.6448 -0.3842  0.8998
13259TIP3    H161192   5.893   2.344   1.115  0.9663  0.6658  0.2654
13259TIP3    H261193   5.893   2.207   1.051 -0.7053  0.3548  0.9076
13260TIP3   OH261194   0.463   4.830  14.186  0.1635  0.7097  0.5580
13260TIP3    H161195   0.536   4.772  14.204 -2.3230 -3.0876 -1.0384
13260TIP3    H261196   0.394   4.801  14.245 -0.9826  2.3857  0.0781
13261TIP3   OH261197   5.178   6.775   2.514  0.4061  0.2267  0.6198
13261TIP3    H161198   5.178   6.683   2.542  0.2387  0.1076  0.2329
13261TIP3    H261199   5.091   6.807   2.538  1.0663  0.7716  2.3272
13262TIP3   OH261200   5.538   5.601   0.540  0.1094  0.2694  0.1269
13262TIP3    H161201   5.480   5.601   0.616 -1.4828 -1.5485 -1.0414
13262TIP3    H261202   5.579   5.688   0.541  0.5672  0.0898  3.3604
13263TIP3   OH261203   2.351   2.725   4.646  0.1716  0.2836 -0.5403
13263TIP3    H161204   2.393   2.641   4.666 -0.6132 -0.9352 -3.6728
13263TIP3    H261205   2.259   2.712   4.669 -0.1324 -0.0677 -1.9064
13264TIP3   OH261206   0.757   3.304   4.320 -0.7273 -0.2150 -0.5804
13264TIP3    H161207   0.683   3.292   4.379  0.2975  0.4728  0.8764
13264TIP3    H261208   0.800   3.384   4.350  0.6921 -0.6752 -1.3025
13265TIP3   OH261209   0.600   4.067   1.485  0.6055  0.3914 -0.0804
13265TIP3    H161210   0.521   4.097   1.439 -0.9627 -2.2216  0.8115
13265TIP3    H261211   0.665   4.056   1.415 -0.4544  0.5650 -1.1135
13266TIP3   OH261212   6.489   6.657   5.253 -0.1727  0.0109 -0.1121
13266TIP3    H161213   6.457   6.715   5.184 -0.0751 -1.7460 -1.6559
13266TIP3    H261214   6.420   6.591   5.263  0.5052 -0.6311  0.4031
13267TIP3   OH261215   4.698   3.301   1.919  0.2026  0.5784 -0.2381
13267TIP3    H161216   4.771   3.324   1.862 -0.3413  2.3985 -0.2128
13267TIP3    H261217   4.641   3.377   1.917 -1.3607 -0.5516  0.3004
13268TIP3   OH261218   5.143   4.393   0.625  0.2902 -0.0782 -0.2930
13268TIP3    H161219   5.147   4.393   0.721  2.1849  1.6186 -0.3395
13268TIP3    H261220   5.233   4.375   0.598  0.1603  1.3411 -1.7456
13269TIP3   OH261221   1.002   3.357  14.791  0.5203  0.6711  0.7951
13269TIP3    H161222   1.093   3.331  14.775  0.7341  1.1928  1.1735
13269TIP3    H261223   0.957   3.275  14.810  0.4708  0.1333 -1.4803
13270TIP3   OH261224   1.663   0.597   1.243 -0.5851  0.1133 -0.1694
13270TIP3    H161225   1.704   0.584   1.158 -0.9424  0.6540 -0.4275
13270TIP3    H261226   1.599   0.666   1.228 -0.0111  0.8590  0.7394
13271TIP3   OH261227   1.024   3.064   2.695 -0.4654 -0.1003 -0.0345
13271TIP3    H161228   1.076   3.067   2.615  0.3999 -0.3237  0.5163
13271TIP3    H261229   1.016   3.156   2.722 -0.7711 -0.0233 -0.3763
13272TIP3   OH261230   3.148   1.805  15.945 -0.3192 -0.5514  0.3285
13272TIP3    H161231   3.074   1.778  16.000  0.2743  0.8062  1.8445
13272TIP3    H261232   3.223   1.756  15.980  0.3645  1.4534  1.7900
13273TIP3   OH261233   4.103   6.739   5.098 -0.1535 -0.0443  0.0669
13273TIP3    H161234   4.035   6.754   5.164 -1.0540  0.2736 -0.9150
13273TIP3    H261235   4.067   6.669   5.043 -0.3888  1.2082 -1.4089
13274TIP3   OH261236   6.178   4.347   4.748 -0.3396  0.1492 -0.6275
13274TIP3    H161237   6.192   4.393   4.831  0.3889  0.2907 -0.8235
13274TIP3    H261238   6.131   4.267   4.773 -1.3996  0.8762 -0.2541
13275TIP3   OH261239   6.780   4.659  10.978  0.0552 -0.2262  0.5216
13275TIP3    H161240   6.684   4.658  10.977  0.0560 -0.7437  0.5881
13275TIP3    H261241   6.804   4.595  11.045  0.4513 -0.5015  0.1221
13276TIP3   OH261242   3.302   5.212   5.883 -0.9872  0.4068 -0.2550
13276TIP3    H161243   3.216   5.206   5.841 -2.3904  1.0407  2.4271
13276TIP3    H261244   3.316   5.306   5.895 -0.3017  0.2625  0.0905
13277TIP3   OH261245   2.275   4.627   1.387  0.0890 -0.6574 -0.0744
13277TIP3    H161246   2.302   4.577   1.310 -0.0309 -0.6673 -0.1093
13277TIP3    H261247   2.357   4.665   1.421  0.5721 -2.8511  1.3574
13278TIP3   OH261248   2.028   1.344  15.131  0.3685 -0.7565  0.2713
13278TIP3    H161249   1.988   1.328  15.046  1.5718 -0.6194 -0.3257
13278TIP3    H261250   2.122   1.339  15.115  0.6133 -0.1448  1.4751
13279TIP3   OH261251   4.635   1.964  14.462 -0.2778  0.0564  0.0570
13279TIP3    H161252   4.699   1.985  14.393 -0.2733 -0.6166 -0.1508
13279TIP3    H261253   4.602   1.877  14.438  1.0481 -0.9990  1.8741
13280TIP3   OH261254   2.327   2.597  11.075 -0.4110  0.0139  0.4260
13280TIP3    H161255   2.302   2.622  10.986 -0.8677 -0.8622  0.3010
13280TIP3    H261256   2.401   2.537  11.064  1.2371  1.9452  0.7645
13281TIP3   OH261257   4.358   4.055  14.811  0.1994  0.2576 -0.2009
13281TIP3    H161258   4.320   4.019  14.891 -1.2959  2.5111  0.1571
13281TIP3    H261259   4.414   4.126  14.841 -0.6102  1.3194 -1.1548
13282TIP3   OH261260   1.800   1.573   3.825  0.4380  0.4468 -0.1132
13282TIP3    H161261   1.704   1.576   3.833  0.0805 -3.6230 -1.4994
13282TIP3    H261262   1.831   1.549   3.912  0.0250 -0.1478 -0.1266
13283TIP3   OH261263   4.586   3.492   5.743  0.0291 -0.5124  0.3422
13283TIP3    H161264   4.584   3.587   5.728 -2.1596 -0.8549 -1.9230
13283TIP3    H261265   4.494   3.465   5.739  0.8248 -3.1842 -2.5819
13284TIP3   OH261266   6.007   2.445   5.536 -0.8476  0.6095 -0.5409
13284TIP3    H161267   6.050   2.500   5.601  0.4627 -0.2487 -0.6664
13284TIP3    H261268   5.979   2.505   5.467 -0.7376  1.2994  0.0153
13285TIP3   OH261269   6.436   0.261   5.739  0.8558 -0.8385  0.0967
13285TIP3    H161270   6.405   0.312   5.814 -1.3676 -0.4090 -1.0715
13285TIP3    H261271   6.447   0.172   5.773  1.9927 -0.2042  1.4385
13286TIP3   OH261272   1.762   0.529   4.925 -0.6445 -0.7381  0.3167
13286TIP3    H161273   1.780   0.495   4.838  0.0753  0.9100 -0.2025
13286TIP3    H261274   1.827   0.488   4.982 -0.8771 -1.5238  0.0162
13287TIP3   OH261275   1.445   1.956  15.369 -0.1035  0.0964  0.8022
13287TIP3    H161276   1.485   2.043  15.364 -1.4981  0.6670 -1.4709
13287TIP3    H261277   1.518   1.896  15.382  1.3096  1.2933 -1.3304
13288TIP3   OH261278   2.879   3.197  13.519 -0.3786  0.3260 -0.2693
13288TIP3    H161279   2.880   3.289  13.544 -0.9777 -0.2177  1.9104
13288TIP3    H261280   2.947   3.189  13.452 -0.4444  2.3653 -0.5925
13289TIP3   OH261281   3.155   5.998  16.009 -0.4090 -0.9804  0.1740
13289TIP3    H161282   3.076   5.947  16.021 -0.2028 -1.1124  1.0687
13289TIP3    H261283   3.227   5.936  16.026 -0.1042 -0.9798 -1.0941
13290TIP3   OH261284   3.329   4.733  16.000 -0.0936 -0.0130 -0.4796
13290TIP3    H161285   3.325   4.690  15.914  0.2497  0.5635 -0.7826
13290TIP3    H261286   3.240   4.723  16.035 -0.4709  0.4953 -1.2676
13291TIP3   OH261287   3.242   0.638   5.708 -0.5235 -0.8057  0.2880
13291TIP3    H161288   3.275   0.566   5.654  0.0028 -0.4069  0.0776
13291TIP3    H261289   3.319   0.690   5.729 -1.0869  0.3942 -0.6007
13292TIP3   OH261290   4.992   2.092   0.032 -0.5758  0.2930 -0.3430
13292TIP3    H161291   5.027   2.014   0.075 -0.3556  0.4417 -0.2484
13292TIP3    H261292   4.919   2.120   0.088  0.2072  0.9453  0.3811
13293TIP3   OH261293   5.845   3.108  15.885  0.1423  0.1242 -0.2280
13293TIP3    H161294   5.771   3.052  15.865 -1.8790  1.8184  2.2278
13293TIP3    H261295   5.845   3.174  15.816 -0.9568  0.3982  0.0226
13294TIP3   OH261296   1.833   4.761   4.666 -0.6672 -0.5378  0.1303
13294TIP3    H161297   1.791   4.699   4.725 -1.5520  0.2711  0.3627
13294TIP3    H261298   1.784   4.753   4.583 -1.1082  0.2067  0.3169
13295TIP3   OH261299   0.911   0.791  16.602 -0.0315  0.1443 -0.3203
13295TIP3    H161300   0.929   0.880  16.573  0.6580 -0.4350 -1.7129
13295TIP3    H261301   0.908   0.797  16.698  0.3115  1.5978 -0.3935
13296TIP3   OH261302   2.427   6.533   3.365  0.7287  0.1773  0.2880
13296TIP3    H161303   2.382   6.580   3.295  3.4484  3.2424  0.4209
13296TIP3    H261304   2.492   6.480   3.320  0.6769  0.0732  0.3381
13297TIP3   OH261305   2.535   4.119  13.311 -0.3352  0.3107 -0.1107
13297TIP3    H161306   2.593   4.079  13.376 -0.7296  2.0224  1.3260
13297TIP3    H261307   2.536   4.058  13.237 -0.0820 -1.7897  1.5934
13298TIP3   OH261308   6.549   4.573   3.752 -0.1064 -0.7544  0.6120
13298TIP3    H161309   6.476   4.531   3.797 -1.5392  0.1995 -0.7811
13298TIP3    H261310   6.581   4.507   3.691 -0.0892 -1.0145  0.8993
13299TIP3   OH261311   0.690   2.686   5.223 -0.1233 -0.0963 -0.3887
13299TIP3    H161312   0.768   2.636   5.247 -0.2764  0.2738  0.8814
13299TIP3    H261313   0.638   2.625   5.171 -0.3625 -1.2975  1.2361
13300TIP3   OH261314   6.713   4.879   1.434 -0.5522  0.4188 -0.5059
13300TIP3    H161315   6.794   4.830   1.421 -0.3396  0.6494 -0.0385
13300TIP3    H261316   6.742   4.969   1.448 -0.8962  0.5170 -0.4253
13301TIP3   OH261317   0.882   1.198  14.668  0.3580 -0.1594 -0.1699
13301TIP3    H161318   0.921   1.196  14.581  0.3059  0.7747 -0.2206
13301TIP3    H261319   0.789   1.213  14.653  0.4862  0.9476  0.0730
13302TIP3   OH261320   4.173   6.110   2.587  0.6779 -0.2406 -0.0537
13302TIP3    H161321   4.120   6.188   2.606  0.1822 -0.3640 -0.8641
13302TIP3    H261322   4.183   6.066   2.671 -2.4527 -1.4146 -0.2024
13303TIP3   OH261323   3.059   1.518  16.025  0.2294  0.1368  0.4192
13303TIP3    H161324   2.978   1.569  16.037  0.8188  0.3515  3.9247
13303TIP3    H261325   3.126   1.570  16.069  1.8439 -1.1762 -0.4758
13304TIP3   OH261326   1.298   6.427   0.999  0.1220 -0.2460  0.2701
13304TIP3    H161327   1.206   6.429   0.975  0.0878 -1.5161  0.2435
13304TIP3    H261328   1.338   6.499   0.950 -0.7701  0.0392 -0.0427
13305TIP3   OH261329   5.041   0.023  13.253  0.9716  0.1239  0.3233
13305TIP3    H161330   4.958   0.055  13.288  0.8040 -0.9630  0.9172
13305TIP3    H261331   5.089  -0.011  13.329  1.5842 -0.0919 -0.1517
13306TIP3   OH261332   4.381   3.775  13.511 -0.2699 -0.1675  0.2860
13306TIP3    H161333   4.414   3.781  13.421 -1.8012  0.9787 -0.2236
13306TIP3    H261334   4.458   3.750  13.563  1.0685  1.0200 -1.0626
13307TIP3   OH261335   5.388   0.485   5.473 -0.2851  0.4379  0.2388
13307TIP3    H161336   5.362   0.514   5.386 -1.7449 -1.1927  0.1152
13307TIP3    H261337   5.352   0.397   5.482  1.6593 -0.2625  1.6839
13308TIP3   OH261338   3.606   0.186   4.612  0.0543  0.4331  0.3576
13308TIP3    H161339   3.561   0.156   4.691  1.8673  1.0968  1.6600
13308TIP3    H261340   3.580   0.277   4.603 -0.7688  0.1451 -0.2724
13309TIP3   OH261341   3.834   1.395  10.705  0.0848  0.3142 -0.2350
13309TIP3    H161342   3.923   1.374  10.675 -0.0223  0.0019 -0.3373
13309TIP3    H261343   3.839   1.385  10.800 -0.2806 -1.4131 -0.3821
13310TIP3   OH261344   4.672   3.213  16.893 -0.4291 -0.2595  0.2485
13310TIP3    H161345   4.670   3.260  16.809 -1.8929 -1.2896 -0.3043
13310TIP3    H261346   4.765   3.207  16.914  0.0145 -0.6553 -1.6968
13311TIP3   OH261347   4.322   4.864  12.064  0.1209  0.4034 -0.1989
13311TIP3    H161348   4.291   4.918  11.991 -1.1791 -0.6914 -0.4873
13311TIP3    H261349   4.326   4.923  12.138  3.5217  2.0562 -1.6075
13312TIP3   OH261350   0.793   0.626   3.779 -0.3009 -0.3127 -0.2324
13312TIP3    H161351   0.699   0.633   3.763 -0.2527 -0.2368 -0.4705
13312TIP3    H261352   0.801   0.639   3.874 -0.4866  0.1139 -0.2728
13313TIP3   OH261353   4.288   3.732  16.640 -0.6743 -0.4810  0.7213
13313TIP3    H161354   4.294   3.637  16.629 -0.7414 -0.3576 -0.4306
13313TIP3    H261355   4.265   3.745  16.732  2.1803 -1.5024  1.6405
13314TIP3   OH261356   1.535   2.806   3.539  0.7418  0.6046  0.0879
13314TIP3    H161357   1.550   2.836   3.629 -0.4220  0.7225  0.2507
13314TIP3    H261358   1.460   2.857   3.509  0.4486 -0.2038 -0.5806
13315TIP3   OH261359   2.160   4.650   3.094 -0.0651 -0.4860 -0.2974
13315TIP3    H161360   2.073   4.680   3.121  0.1489 -0.3391  0.2445
13315TIP3    H261361   2.191   4.598   3.169  1.3350  1.5298  0.5582
13316TIP3   OH261362   0.255   6.607   1.656  0.4007  0.0632 -0.1439
13316TIP3    H161363   0.275   6.514   1.666 -1.0251 -0.2651 -0.1237
13316TIP3    H261364   0.224   6.615   1.566  0.5883  0.5260 -0.1667
13317TIP3   OH261365   1.022   5.468  16.174  0.5140 -0.3707 -0.3890
13317TIP3    H161366   1.051   5.558  16.165  1.6370 -0.9606 -3.1507
13317TIP3    H261367   1.065   5.436  16.253 -0.1608  1.5823  0.7982
13318TIP3   OH261368   1.989   5.695  11.548  0.0958 -1.0794  0.2705
13318TIP3    H161369   2.024   5.648  11.472 -1.7035  0.5443 -1.6245
13318TIP3    H261370   2.044   5.774  11.555 -2.4163  0.9629 -2.0861
13319TIP3   OH261371   2.009   2.568  14.617 -0.6221  0.2080  0.0651
13319TIP3    H161372   1.963   2.650  14.599  1.9930  1.3921 -1.4231
13319TIP3    H261373   2.072   2.590  14.686  0.6094 -0.3648 -0.8617
13320TIP3   OH261374   4.338   5.138  14.144  0.5649 -0.0297  0.0123
13320TIP3    H161375   4.264   5.088  14.109  1.0485 -0.1929 -0.7976
13320TIP3    H261376   4.308   5.229  14.146 -0.1358 -0.2804  0.9892
13321TIP3   OH261377   1.321   0.598  12.938  0.3163 -0.2277  0.8882
13321TIP3    H161378   1.273   0.547  13.003  0.3191 -1.3471  0.0318
13321TIP3    H261379   1.413   0.584  12.960  0.2962  0.5556  1.5030
13322TIP3   OH261380   3.267   1.976  13.944  0.3432 -0.6590 -0.5719
13322TIP3    H161381   3.240   1.922  13.869  0.8377  0.5972 -1.6841
13322TIP3    H261382   3.351   2.013  13.917 -0.0451  0.7541  0.1009
13323TIP3   OH261383   2.718   0.750  15.580 -0.2631 -0.3197 -0.7574
13323TIP3    H161384   2.782   0.748  15.651 -0.7868  0.6578 -0.2396
13323TIP3    H261385   2.759   0.702  15.509  0.6675 -0.4796 -0.1229
13324TIP3   OH261386   3.177   5.201  12.379  0.0887  0.6238  0.3682
13324TIP3    H161387   3.244   5.243  12.434  0.6771  0.5249 -0.2724
13324TIP3    H261388   3.223   5.127  12.339 -0.3948  0.5953 -0.1254
13325TIP3   OH261389   6.172   6.516  11.395  0.0962  0.1484  0.0133
13325TIP3    H161390   6.107   6.445  11.399  0.0067  0.3250  2.3902
13325TIP3    H261391   6.120   6.594  11.373 -0.2430 -0.0444  0.1190
13326TIP3   OH261392   1.789   4.331  16.159 -0.2413  0.4889 -0.6326
13326TIP3    H161393   1.843   4.409  16.150 -0.4679  0.7384  0.1562
13326TIP3    H261394   1.851   4.259  16.163 -0.0557  0.5475 -2.1169
13327TIP3   OH261395   2.084   1.828  12.755 -0.3950 -0.4824  0.3820
13327TIP3    H161396   2.167   1.803  12.713  1.2396  2.1681  1.8543
13327TIP3    H261397   2.059   1.751  12.806  2.6485 -0.4200  2.0822
13328TIP3   OH261398   1.996   1.672   1.225  0.6344 -0.1573 -0.4839
13328TIP3    H161399   1.913   1.639   1.190  0.8150 -0.6739 -0.4250
13328TIP3    H261400   1.972   1.712   1.309  0.4946 -0.5842 -0.3205
13329TIP3   OH261401   5.327   1.120  11.522 -0.4347 -0.8304 -0.4737
13329TIP3    H161402   5.389   1.191  11.504  0.3334 -1.4960 -0.4740
13329TIP3    H261403   5.252   1.164  11.563 -0.4233  0.1299 -1.4376
13330TIP3   OH261404   5.329   1.459  14.128 -0.2783 -0.3449  0.1088
13330TIP3    H161405   5.409   1.407  14.139 -0.0954 -0.1316 -0.2068
13330TIP3    H261406   5.350   1.521  14.058 -0.8818 -0.6044 -0.3032
13331TIP3   OH261407   0.300   0.209  15.492  0.3312 -0.3318  0.2481
13331TIP3    H161408   0.383   0.162  15.486 -0.3029 -1.4412  0.1178
13331TIP3    H261409   0.324   0.300  15.474  1.2635 -0.8839 -1.4913
13332TIP3   OH261410   3.325   0.889   1.481  0.0107  0.0429 -0.0408
13332TIP3    H161411   3.281   0.895   1.396 -0.5019 -2.2790  0.0024
13332TIP3    H261412   3.270   0.939   1.541 -0.3650  0.5636 -0.8197
13333TIP3   OH261413   0.055   3.258  14.223  0.5788  0.2315 -0.3949
13333TIP3    H161414   0.097   3.190  14.171  0.2818  0.6541 -1.1917
13333TIP3    H261415   0.123   3.285  14.286  0.4897 -1.2301  0.3352
13334TIP3   OH261416   5.978   4.257  15.015  0.2388 -0.0835 -0.2595
13334TIP3    H161417   6.056   4.247  14.959  0.6997  1.6709  0.0285
13334TIP3    H261418   5.935   4.336  14.982 -0.8007 -0.3929  0.3310
13335TIP3   OH261419   3.031   0.376   1.926  0.1963 -0.5192 -0.1653
13335TIP3    H161420   3.002   0.347   2.012  3.1770 -1.3961  0.6191
13335TIP3    H261421   3.022   0.299   1.870  0.6915 -0.7009  0.0019
13336TIP3   OH261422   2.830   0.663  12.996  0.2288 -0.3356  0.6376
13336TIP3    H161423   2.790   0.680  13.082 -1.1769  0.7858 -0.2156
13336TIP3    H261424   2.913   0.620  13.017 -0.4794 -0.8468  2.5254
13337TIP3   OH261425   5.969   4.648  17.089  0.3922 -0.1196  0.2141
13337TIP3    H161426   5.889   4.687  17.125  0.6939 -0.2409  1.0234
13337TIP3    H261427   5.989   4.702  17.013 -0.8675 -0.5324 -0.4266
13338TIP3   OH261428   0.932   6.240  16.800 -0.3225  0.2300 -0.2013
13338TIP3    H161429   0.933   6.289  16.718 -0.8624 -0.3861 -0.5809
13338TIP3    H261430   0.888   6.158  16.778 -2.2209  0.8545  1.1758
13339TIP3   OH261431   2.487   3.526   1.471  0.4371 -0.1281 -0.4877
13339TIP3    H161432   2.413   3.476   1.508 -0.8264  1.0497 -1.3715
13339TIP3    H261433   2.553   3.525   1.540 -1.2393  0.6092  1.1647
13340TIP3   OH261434   2.980   1.313  16.988  0.1099 -0.2133  0.0073
13340TIP3    H161435   3.018   1.328  17.074  0.1684  1.8626 -0.3519
13340TIP3    H261436   3.044   1.259  16.942  1.9342  1.8896 -0.0301
13341TIP3   OH261437   2.238   0.774   5.542  0.1517 -0.3586 -0.0354
13341TIP3    H161438   2.278   0.696   5.579 -1.7333 -0.0810  2.7128
13341TIP3    H261439   2.144   0.758   5.548 -0.2419  1.5379 -0.7452
13342TIP3   OH261440   1.729   0.517  16.823 -0.7074 -0.2165  0.4906
13342TIP3    H161441   1.674   0.447  16.788 -2.0077  0.1533  1.7649
13342TIP3    H261442   1.718   0.511  16.918  1.5514 -0.2116  0.7862
13343TIP3   OH261443   5.728   0.206  10.380 -0.5684  0.0097 -0.4680
13343TIP3    H161444   5.648   0.183  10.428  1.7787 -1.1927  3.0889
13343TIP3    H261445   5.751   0.293  10.412 -1.6351  1.3419 -3.1979
13344TIP3   OH261446   0.735   2.633  13.816 -0.4667  0.1534 -0.2613
13344TIP3    H161447   0.751   2.541  13.795 -0.5638 -0.2161  1.2144
13344TIP3    H261448   0.655   2.633  13.867  0.3825  0.8611  1.1163
13345TIP3   OH261449   0.753   5.268  13.904 -0.2443 -0.5280 -0.3076
13345TIP3    H161450   0.838   5.290  13.864  0.6209  0.2936  1.9002
13345TIP3    H261451   0.768   5.277  13.998 -2.2078 -2.5114  0.2299
13346TIP3   OH261452   2.331   1.151  13.047 -0.1903 -0.6102 -0.0806
13346TIP3    H161453   2.239   1.176  13.055 -0.1184 -0.3636 -0.0256
13346TIP3    H261454   2.373   1.185  13.126  0.0562 -0.2433 -0.3669
13347TIP3   OH261455   4.246   1.089  16.558  0.1369 -0.2204  0.0464
13347TIP3    H161456   4.311   1.052  16.498 -0.5619 -2.3781  0.5635
13347TIP3    H261457   4.248   1.183  16.541  2.7294 -0.3584 -0.5872
13348TIP3   OH261458   6.084   6.525  16.632  0.0763  0.2971 -0.1395
13348TIP3    H161459   6.070   6.618  16.648 -1.0767  0.3956 -1.6471
13348TIP3    H261460   6.153   6.500  16.694 -0.4233  1.8778  1.0796
13349TIP3   OH261461   0.408   6.222  16.151  0.1755  0.4004  0.3422
13349TIP3    H161462   0.347   6.293  16.171  0.3219  0.4253  0.7137
13349TIP3    H261463   0.368   6.176  16.077  0.7054  1.6287 -0.7248
13350TIP3   OH261464   4.329   1.111  14.638  0.0209 -0.3443  0.6035
13350TIP3    H161465   4.411   1.161  14.641  0.7044 -1.4882  1.1128
13350TIP3    H261466   4.261   1.178  14.639  0.9459  0.6215  0.0934
13351TIP3   OH261467   0.616   2.829   5.637  0.2729  0.0449 -0.3777
13351TIP3    H161468   0.574   2.881   5.705 -0.7407 -0.6084 -0.4916
13351TIP3    H261469   0.710   2.836   5.655  0.1797  2.0260 -0.4730
13352TIP3   OH261470   2.531   5.596  13.337  0.0232  0.1977  0.2785
13352TIP3    H161471   2.616   5.558  13.314  0.1308  2.0173 -2.5890
13352TIP3    H261472   2.500   5.637  13.256 -3.0011  0.6953  1.6098
13353TIP3   OH261473   1.219   4.675  15.538 -0.3373 -0.2271  1.2395
13353TIP3    H161474   1.270   4.711  15.611  1.5441 -0.7554  0.2336
13353TIP3    H261475   1.237   4.734  15.465 -0.0320 -1.2333  0.4982
13354TIP3   OH261476   0.990   6.271   4.640 -0.1413  0.0028 -0.1934
13354TIP3    H161477   0.935   6.309   4.571  0.1508 -0.7020 -0.8211
13354TIP3    H261478   1.067   6.239   4.594  1.0382  1.4573  0.7575
13355TIP3   OH261479   5.094   0.629   3.542  0.3593  0.1266 -0.0749
13355TIP3    H161480   5.139   0.576   3.476  1.2934 -0.4690  1.0082
13355TIP3    H261481   5.155   0.701   3.560  0.2015  0.1667  0.2966
13356TIP3   OH261482   1.918   4.159   5.468  0.2136  0.1012 -0.1512
13356TIP3    H161483   1.961   4.182   5.386  0.2666 -1.9856 -0.7427
13356TIP3    H261484   1.834   4.121   5.441 -0.2488  0.4016  0.8235
13357TIP3   OH261485   0.340   5.517  12.076  0.5081 -0.2682  0.0617
13357TIP3    H161486   0.247   5.529  12.095  0.8682  1.0829  0.9961
13357TIP3    H261487   0.374   5.605  12.061  1.3592 -0.8571 -1.7051
13358TIP3   OH261488   3.855   2.722  12.366  0.4949  0.0907 -0.0180
13358TIP3    H161489   3.829   2.641  12.409  1.4522  0.7171  1.8155
13358TIP3    H261490   3.776   2.752  12.321  0.0612 -1.6949 -0.4939
13359TIP3   OH261491   1.900   3.785   4.061  0.3547  0.2858  0.2425
13359TIP3    H161492   1.957   3.835   4.118  0.6828 -0.5719  0.6803
13359TIP3    H261493   1.811   3.805   4.092  0.4313  1.3575 -0.2269
13360TIP3   OH261494   3.574   4.832   1.772  0.1451  0.6232 -0.0756
13360TIP3    H161495   3.656   4.791   1.801  0.1328 -0.1506 -1.0906
13360TIP3    H261496   3.597   4.872   1.688 -1.0766 -1.6147 -1.5247
13361TIP3   OH261497   6.478   3.584   6.395  0.0701 -0.1844 -0.7309
13361TIP3    H161498   6.572   3.586   6.410 -0.4208  1.0589  2.4743
13361TIP3    H261499   6.442   3.652   6.452 -2.7015  0.0412 -2.6078
13362TIP3   OH261500   5.342   1.749   4.907 -0.0569 -0.2563 -0.1752
13362TIP3    H161501   5.412   1.781   4.851 -0.0795  0.1908  0.0565
13362TIP3    H261502   5.276   1.715   4.846  0.0345 -0.0043 -0.4133
13363TIP3   OH261503   0.479   4.535  15.307 -0.0945 -0.1336  0.2231
13363TIP3    H161504   0.573   4.526  15.292  0.0434  1.8859 -0.2918
13363TIP3    H261505   0.473   4.574  15.395 -0.4549 -0.3355  0.2881
13364TIP3   OH261506   6.310   1.185  16.876 -0.2041 -0.0060  0.0850
13364TIP3    H161507   6.250   1.197  16.949 -2.7287  1.4350 -2.1153
13364TIP3    H261508   6.371   1.259  16.882 -2.2087  1.7788 -0.8895
13365TIP3   OH261509   4.446   3.161  15.330 -0.1772 -0.0626  0.1731
13365TIP3    H161510   4.504   3.160  15.254  0.9959  1.3628  1.0106
13365TIP3    H261511   4.504   3.151  15.405 -1.3454 -1.6819  0.8943
13366TIP3   OH261512   1.866   3.311  11.537 -0.0343  0.2065 -0.3798
13366TIP3    H161513   1.924   3.356  11.598  2.0770 -0.9478 -1.4993
13366TIP3    H261514   1.830   3.381  11.482 -0.3711  1.0151  0.8420
13367TIP3   OH261515   2.407   4.105  15.373 -0.7639  0.5103 -0.3422
13367TIP3    H161516   2.411   4.184  15.426  0.4650  0.4008 -0.2366
13367TIP3    H261517   2.380   4.134  15.287 -1.0909  0.9351 -0.0944
13368TIP3   OH261518   0.439   2.230  14.803 -0.0556 -0.0470 -0.2328
13368TIP3    H161519   0.347   2.256  14.813 -0.2922 -1.2767  0.9726
13368TIP3    H261520   0.486   2.289  14.863 -0.1154  0.2271 -0.4519
13369TIP3   OH261521   6.123   5.607   3.968 -0.6982 -0.1868 -0.1097
13369TIP3    H161522   6.177   5.636   4.041  0.2599  0.5026 -1.0598
13369TIP3    H261523   6.072   5.534   4.002 -0.5437  0.3673  1.3409
13370TIP3   OH261524   6.749   6.578   3.598  0.2035  0.3417 -0.4328
13370TIP3    H161525   6.832   6.606   3.636  0.8408 -0.7430 -1.0161
13370TIP3    H261526   6.694   6.657   3.601  0.5111  0.5060  1.9184
13371TIP3   OH261527   2.327   1.628  14.602 -0.5206  0.0436  0.6593
13371TIP3    H161528   2.339   1.658  14.512 -1.5958 -1.6782 -0.0900
13371TIP3    H261529   2.232   1.635  14.616 -0.4420 -0.4002  1.4054
13372TIP3   OH261530   6.510   5.163   5.594  0.2414 -0.0195  0.3573
13372TIP3    H161531   6.539   5.224   5.526 -0.5831 -1.2438 -1.1393
13372TIP3    H261532   6.590   5.135   5.637  0.7513  1.0049  0.0850
13373TIP3   OH261533   0.755   1.195   0.576  0.0008  0.1961  0.4622
13373TIP3    H161534   0.734   1.287   0.588  1.7067  0.5312  0.9594
13373TIP3    H261535   0.805   1.171   0.654  0.2116 -0.9492 -0.0148
13374TIP3   OH261536   1.648   3.178  16.093 -0.5179 -0.1199 -0.2025
13374TIP3    H161537   1.723   3.209  16.144 -1.1764 -0.0705  0.7549
13374TIP3    H261538   1.667   3.205  16.003  0.1181  0.8111  0.2066
13375TIP3   OH261539   1.910   4.824  12.140  0.3700  0.0582 -0.0782
13375TIP3    H161540   1.981   4.762  12.154 -0.4232 -0.5427  1.4910
13375TIP3    H261541   1.844   4.775  12.092  0.8733  0.5264 -1.2687
13376TIP3   OH261542   0.971   4.940   5.114 -0.3082 -0.0376 -0.1395
13376TIP3    H161543   0.890   4.948   5.064  0.2548  0.7033 -0.9299
13376TIP3    H261544   0.952   4.983   5.197 -0.6952  0.2046 -0.3511
13377TIP3   OH261545   2.501   4.063   5.408  0.0300  0.3343  0.4366
13377TIP3    H161546   2.595   4.059   5.391 -0.0132  3.5494 -0.6880
13377TIP3    H261547   2.494   4.111   5.491 -0.5695 -1.9687  1.7930
13378TIP3   OH261548   2.045   5.731  13.511 -0.2303  0.2323 -0.2417
13378TIP3    H161549   1.951   5.747  13.514 -0.1025  1.0986 -0.6394
13378TIP3    H261550   2.075   5.747  13.600 -0.5911 -0.9195  0.0938
13379TIP3   OH261551   3.620   1.248  14.925 -0.1420  0.1067  0.3780
13379TIP3    H161552   3.553   1.268  14.860  0.0314 -1.6154 -0.3700
13379TIP3    H261553   3.700   1.237  14.874  0.0233 -1.1170  0.8733
13380TIP3   OH261554   3.621   1.109   0.494 -0.0843  0.1715 -0.0157
13380TIP3    H161555   3.707   1.137   0.526 -0.1743  0.6398 -0.1759
13380TIP3    H261556   3.599   1.034   0.548  0.4490  0.0182 -0.0012
13381TIP3   OH261557   3.577   6.341  12.869  0.6766  0.1489  0.0974
13381TIP3    H161558   3.618   6.359  12.784 -1.4841  0.2834 -0.9448
13381TIP3    H261559   3.634   6.276  12.910  0.9102 -1.0845 -2.1236
13382TIP3   OH261560   6.562   4.803  10.637 -0.3662 -0.1570 -0.0386
13382TIP3    H161561   6.520   4.831  10.556 -1.5084  1.5574  1.1251
13382TIP3    H261562   6.649   4.843  10.635 -1.1292  1.5671  0.5073
13383TIP3   OH261563   5.653   4.108   0.081  0.0135  0.6004 -0.0442
13383TIP3    H161564   5.730   4.129   0.028 -0.2125 -1.0711 -1.1128
13383TIP3    H261565   5.688   4.071   0.162  0.3453 -0.0941 -0.5006
13384TIP3   OH261566   2.825   0.528  16.203  0.4982 -0.3145 -0.1486
13384TIP3    H161567   2.911   0.557  16.234 -0.8021  1.4985  1.8910
13384TIP3    H261568   2.787   0.483  16.278 -0.3159 -1.1997 -1.0797
13385TIP3   OH261569   3.594   0.137   4.301  0.2294  0.4923 -0.4216
13385TIP3    H161570   3.578   0.094   4.385 -0.0533  0.7931 -0.3224
13385TIP3    H261571   3.546   0.220   4.307  1.0437  0.9655 -0.4911
13386TIP3   OH261572   3.486   4.125  10.511 -0.3465 -0.0704 -0.2498
13386TIP3    H161573   3.408   4.092  10.467  0.4564 -2.7467  0.2300
13386TIP3    H261574   3.461   4.130  10.603 -0.5288  0.9100 -0.3478
13387TIP3   OH261575   1.452   3.538   6.014 -0.0426 -0.3744  0.0529
13387TIP3    H161576   1.432   3.472   6.081  0.7825  1.2419  1.9322
13387TIP3    H261577   1.548   3.541   6.012 -0.0621 -0.1887 -1.0094
13388TIP3   OH261578   4.979   6.495  16.488 -0.1347  0.7713 -0.7506
13388TIP3    H161579   4.970   6.528  16.577  1.3284  0.8500 -0.6140
13388TIP3    H261580   4.958   6.402  16.495 -0.4438  0.8675 -0.3966
13389TIP3   OH261581   2.348   4.914   0.928 -0.1541  0.0555 -0.2668
13389TIP3    H161582   2.373   4.886   1.016  0.6050  0.1375 -0.4471
13389TIP3    H261583   2.431   4.916   0.879 -0.5046  0.4370 -0.8595
13390TIP3   OH261584   4.503   2.966   4.006  0.5620 -0.4551 -0.5420
13390TIP3    H161585   4.583   2.969   4.058  0.0650  3.4047  0.1470
13390TIP3    H261586   4.461   2.884   4.033  2.0243 -0.2698  2.6041
13391TIP3   OH261587   1.704   6.651  15.369  0.1811  0.5388 -0.8713
13391TIP3    H161588   1.643   6.581  15.348 -1.4805  2.1691 -1.6313
13391TIP3    H261589   1.754   6.618  15.444 -1.3553 -0.9860 -0.5043
13392TIP3   OH261590   6.554   4.209  16.935  0.3018 -0.1719 -0.0290
13392TIP3    H161591   6.637   4.214  16.886  1.7638 -1.1514  2.2951
13392TIP3    H261592   6.540   4.299  16.966  0.2512  0.0921 -0.8042
13393TIP3   OH261593   5.403   3.365   4.705  0.3877 -0.0967 -0.2008
13393TIP3    H161594   5.457   3.422   4.759  0.9065 -0.8841  0.1208
13393TIP3    H261595   5.345   3.321   4.767  0.3623 -0.3283 -0.3874
13394TIP3   OH261596   2.498   3.760  10.969  0.0338 -0.6043  0.2433
13394TIP3    H161597   2.411   3.723  10.975  0.1352 -0.9004 -0.0909
13394TIP3    H261598   2.532   3.729  10.885  0.0120  0.4607 -0.1749
13395TIP3   OH261599   6.746   4.766  15.772 -0.7215 -0.0759  0.5137
13395TIP3    H161600   6.820   4.705  15.767 -1.1184 -0.5751  0.7143
13395TIP3    H261601   6.678   4.718  15.819 -1.6419 -0.1093 -0.8088
13396TIP3   OH261602   3.994   2.858   4.751 -0.1258  0.0197  0.0087
13396TIP3    H161603   4.050   2.801   4.699  0.7110  0.5576  0.3101
13396TIP3    H261604   3.905   2.825   4.736  0.2176 -0.5183 -0.8744
13397TIP3   OH261605   5.443   0.508  16.079  0.1080  0.0538 -0.1260
13397TIP3    H161606   5.375   0.468  16.133  0.2377  1.3051  1.0058
13397TIP3    H261607   5.394   0.564  16.018  0.0805  0.4259  0.2352
13398TIP3   OH261608   4.624   0.227  14.331  0.1691 -0.0154  0.3457
13398TIP3    H161609   4.638   0.321  14.337 -2.3237  0.3624  0.6610
13398TIP3    H261610   4.605   0.211  14.239  0.5873 -0.2118  0.2922
13399TIP3   OH261611   5.372   3.077   5.563 -0.1497 -0.5244  0.1733
13399TIP3    H161612   5.350   2.991   5.526 -0.3244  0.0552 -1.0806
13399TIP3    H261613   5.467   3.074   5.575  0.1127 -0.2332 -1.6224
13400TIP3   OH261614   4.483   2.466   5.073  0.4082  0.4638 -0.0887
13400TIP3    H161615   4.452   2.486   5.161  2.4454  1.0727  0.5116
13400TIP3    H261616   4.446   2.536   5.018  0.0382  0.7047  0.4575
13401TIP3   OH261617   3.628   0.959   5.023 -0.0376 -0.0706  0.0081
13401TIP3    H161618   3.605   0.907   4.947  0.6084 -1.7106  0.9141
13401TIP3    H261619   3.717   0.989   5.006  0.4734 -1.2523  0.5330
13402TIP3   OH261620   1.073   3.433   2.325  0.1833 -0.0679  0.4281
13402TIP3    H161621   1.082   3.526   2.303  0.8215 -0.3126 -0.3651
13402TIP3    H261622   0.999   3.430   2.386  0.0667  0.9428  0.3490
13403TIP3   OH261623   1.288   3.397   0.367 -0.2326 -0.5583 -0.1687
13403TIP3    H161624   1.341   3.330   0.411 -0.6008 -0.0139  1.1268
13403TIP3    H261625   1.225   3.425   0.433  0.6481  1.8866 -0.3165
13404TIP3   OH261626   6.512   1.738  11.114 -0.0967 -0.0825  0.4420
13404TIP3    H161627   6.542   1.781  11.034 -0.4285 -0.8033 -0.0767
13404TIP3    H261628   6.417   1.733  11.105 -0.2621  0.9812  1.4691
13405TIP3   OH261629   2.787   4.963   5.482  0.2629  0.3150 -0.2149
13405TIP3    H161630   2.772   5.052   5.452 -0.5090  0.4388  0.5134
13405TIP3    H261631   2.795   4.971   5.577 -0.6067 -0.4910 -0.0657
13406TIP3   OH261632   3.028   3.117   4.997 -0.4548  0.1803 -0.5593
13406TIP3    H161633   3.101   3.056   5.006 -0.9229 -0.4463 -0.9801
13406TIP3    H261634   3.069   3.200   4.972  0.1937  0.0784  0.1579
13407TIP3   OH261635   1.143   0.598  11.351 -0.1373  0.0690 -0.4612
13407TIP3    H161636   1.091   0.650  11.291  0.4474 -0.4682 -1.4417
13407TIP3    H261637   1.122   0.507  11.330  1.1581 -0.1553 -0.8460
13408TIP3   OH261638   3.459   3.035   3.367 -0.3292 -0.2264  0.5529
13408TIP3    H161639   3.551   3.018   3.387 -0.1043 -0.0582 -0.2986
13408TIP3    H261640   3.457   3.046   3.272 -1.0119  1.1453  0.7187
13409TIP3   OH261641   4.742   2.250   2.743 -0.2358 -0.6548 -0.3439
13409TIP3    H161642   4.799   2.324   2.722 -3.1438  1.4961 -0.8982
13409TIP3    H261643   4.772   2.180   2.684  1.4195  0.6094 -1.0494
13410TIP3   OH261644   5.759   3.006   1.124 -0.5662  0.3190 -0.3253
13410TIP3    H161645   5.767   2.959   1.207  0.1517 -0.1143 -0.6403
13410TIP3    H261646   5.826   3.074   1.128 -0.0807 -0.1275 -0.8343
13411TIP3   OH261647   2.026   2.470   5.420  0.2675 -0.1935 -0.1737
13411TIP3    H161648   2.029   2.544   5.481 -1.3698 -0.3394  0.1034
13411TIP3    H261649   1.933   2.456   5.403  0.6475 -0.8438 -1.8838
13412TIP3   OH261650   3.798   3.639   2.685  0.0629  0.7255  0.2921
13412TIP3    H161651   3.707   3.652   2.659  0.4418  1.2291 -0.8216
13412TIP3    H261652   3.837   3.726   2.679  0.7991  0.3772  0.0155
13413TIP3   OH261653   3.039   0.312  15.332 -0.4209  0.8347 -0.0971
13413TIP3    H161654   2.950   0.334  15.359 -0.5202  0.4365 -0.0890
13413TIP3    H261655   3.060   0.232  15.382 -1.2054 -0.8306 -2.3524
13414TIP3   OH261656   5.059   5.029   3.364  0.1219 -0.1562 -0.2275
13414TIP3    H161657   5.073   4.994   3.452 -0.9187 -1.1269 -0.4488
13414TIP3    H261658   4.979   4.988   3.333 -0.1078  0.9978 -1.2247
13415TIP3   OH261659   0.370   5.451  15.013  0.4477  0.0661  0.6543
13415TIP3    H161660   0.403   5.361  15.019  0.9655  0.1922 -0.0993
13415TIP3    H261661   0.290   5.451  15.065  0.1418 -0.9773  0.2121
13416TIP3   OH261662   1.148   3.577   1.211 -0.3195 -0.2361 -0.2698
13416TIP3    H161663   1.151   3.486   1.240  2.0217 -0.0614  0.1825
13416TIP3    H261664   1.175   3.574   1.119 -0.8626 -0.0664 -0.4350
13417TIP3   OH261665   4.546   4.446  16.796  0.4311 -0.6233  0.4865
13417TIP3    H161666   4.599   4.374  16.762  1.3174  0.1796  0.1383
13417TIP3    H261667   4.608   4.500  16.844  0.1080  0.8318 -0.7123
13418TIP3   OH261668   6.713   3.114  15.162  0.3933 -0.4024  0.2965
13418TIP3    H161669   6.747   3.032  15.126  0.7727 -0.9631  1.8801
13418TIP3    H261670   6.787   3.174  15.159  0.1595 -0.1572 -0.7139
13419TIP3   OH261671   2.029   5.331   0.050 -0.3277  0.3383 -0.1441
13419TIP3    H161672   2.027   5.363  -0.040  1.3311  1.2337  0.1276
13419TIP3    H261673   1.991   5.402   0.102 -0.2781  0.2554  0.0067
13420TIP3   OH261674   1.980   6.563  13.004  0.6855  0.1995 -0.0500
13420TIP3    H161675   1.967   6.479  13.049 -0.2235  0.5634  0.3722
13420TIP3    H261676   2.032   6.541  12.927  0.1511 -0.8005 -0.1290
13421TIP3   OH261677   5.844   3.100  15.007 -0.0214 -0.0026  0.2596
13421TIP3    H161678   5.788   3.024  15.019  1.2316 -1.0573 -0.4842
13421TIP3    H261679   5.806   3.168  15.063 -2.6103 -0.3832 -1.0047
13422TIP3   OH261680   0.712   4.872   4.833  0.8661  0.3073 -0.2801
13422TIP3    H161681   0.763   4.795   4.858  2.7231  1.5402 -0.1862
13422TIP3    H261682   0.678   4.852   4.746  1.1520 -0.6824 -0.1709
13423TIP3   OH261683   1.736   2.960  14.228 -0.6325 -0.2545 -0.3925
13423TIP3    H161684   1.801   2.947  14.298 -0.5738 -0.7308 -0.5290
13423TIP3    H261685   1.764   2.899  14.159  2.1875  3.6754 -2.9155
13424TIP3   OH261686   6.673   3.916  16.594  0.2830 -0.2485  0.0718
13424TIP3    H161687   6.711   4.004  16.596 -0.2715 -0.0054 -0.0544
13424TIP3    H261688   6.624   3.912  16.513  1.6931 -1.2721 -0.7678
13425TIP3   OH261689   4.624   5.449  10.650  1.1071 -0.0858 -0.7382
13425TIP3    H161690   4.585   5.453  10.563 -0.9419 -1.7174  0.0387
13425TIP3    H261691   4.603   5.533  10.690  0.1495 -0.1591 -1.0670
13426TIP3   OH261692   5.079   1.800   4.539  0.2029 -0.1424  0.0267
13426TIP3    H161693   5.094   1.868   4.604  0.9822  1.0688 -1.3886
13426TIP3    H261694   5.166   1.774   4.509 -0.1516 -0.4601 -0.7563
13427TIP3   OH261695   5.195   0.210  13.017 -0.2126 -0.0633 -0.0359
13427TIP3    H161696   5.144   0.245  12.944  0.0908  0.4655  0.0048
13427TIP3    H261697   5.190   0.279  13.084 -0.9272 -0.7640  0.6400
13428TIP3   OH261698   1.429   6.233   4.588 -0.5108 -0.1812 -0.5868
13428TIP3    H161699   1.357   6.195   4.539 -1.0134  0.0329 -0.0112
13428TIP3    H261700   1.395   6.246   4.677 -0.1388  0.9540 -0.5946
13429TIP3   OH261701   1.922   6.601  13.900  0.0101  0.0974  0.5598
13429TIP3    H161702   1.828   6.618  13.905 -0.3924 -1.7750 -0.3843
13429TIP3    H261703   1.942   6.598  13.806  0.4012 -2.6820  0.7007
13430TIP3   OH261704   0.480   6.021   3.120  0.0191  0.9546 -0.0528
13430TIP3    H161705   0.422   6.056   3.052 -1.1509  0.4324  0.6710
13430TIP3    H261706   0.498   5.932   3.092 -0.5265  0.7138  0.3595
13431TIP3   OH261707   2.058   5.168   0.668 -0.0488 -0.0265  0.1985
13431TIP3    H161708   2.058   5.073   0.656 -0.9913  0.1231 -1.1111
13431TIP3    H261709   2.093   5.181   0.756  0.9736 -1.5322  0.0353
13432TIP3   OH261710   6.530   1.193   3.738 -0.0698 -0.0592 -0.1710
13432TIP3    H161711   6.526   1.117   3.680  0.9126  0.5721 -1.0790
13432TIP3    H261712   6.465   1.254   3.702 -1.3001 -0.6985  0.9173
13433TIP3   OH261713   0.357   0.069  13.142  0.0692 -0.1393  0.0202
13433TIP3    H161714   0.446   0.038  13.122  0.6930  1.7635 -0.2584
13433TIP3    H261715   0.332   0.120  13.065 -2.7191 -3.5763 -1.4805
13434TIP3   OH261716   1.654   5.396   1.538  0.4684  0.3521  0.1918
13434TIP3    H161717   1.596   5.357   1.603 -1.5096 -0.0575 -1.7721
13434TIP3    H261718   1.639   5.491   1.546 -0.5867  0.2423 -0.3927
13435TIP3   OH261719   0.459   4.649   5.700  0.5804  0.2114  0.1596
13435TIP3    H161720   0.420   4.562   5.694  0.4777  0.3996 -3.6267
13435TIP3    H261721   0.550   4.636   5.672  0.9715  1.1001  1.0031
13436TIP3   OH261722   4.933   4.147  15.091  0.1846  0.2393  0.4415
13436TIP3    H161723   4.904   4.211  15.025  2.4472 -0.5317 -1.3780
13436TIP3    H261724   4.872   4.074  15.081 -0.6139  0.8925  0.4801
13437TIP3   OH261725   0.876   0.069  11.505  0.0601  0.2151  0.6922
13437TIP3    H161726   0.968   0.054  11.483 -0.3538 -0.5031 -0.6000
13437TIP3    H261727   0.878   0.140  11.569  1.4771  0.6579  0.1772
13438TIP3   OH261728   4.122   0.088  12.702  0.0626  0.5589 -0.7642
13438TIP3    H161729   4.148  -0.002  12.681 -2.1298 -0.3418  0.1843
13438TIP3    H261730   4.164   0.106  12.787  1.1316  0.7292 -1.3202
13439TIP3   OH261731   0.442   6.039   0.990  0.2347 -0.2007  0.1819
13439TIP3    H161732   0.538   6.042   0.987  0.2346  1.9541  1.3495
13439TIP3    H261733   0.414   6.111   0.933 -0.6948 -1.1036 -0.5075
13440TIP3   OH261734   4.892   5.172  16.447 -0.6948  0.7987 -0.1292
13440TIP3    H161735   4.867   5.257  16.484  0.9573  1.8566 -1.4006
13440TIP3    H261736   4.845   5.167  16.364  0.3336  1.1127 -0.7352
13441TIP3   OH261737   1.166   5.390  14.412  0.2788  0.1661 -0.5522
13441TIP3    H161738   1.093   5.329  14.424  0.8558 -0.2523  1.0483
13441TIP3    H261739   1.238   5.335  14.383  1.1647 -0.1637  2.1619
13442TIP3   OH261740   6.083   3.786  16.948  0.2359 -0.1187  0.1443
13442TIP3    H161741   5.992   3.764  16.967  1.1329 -3.4883  0.7590
13442TIP3    H261742   6.082   3.812  16.856 -0.7876 -3.7655 -0.9440
13443TIP3   OH261743   0.654   1.304   5.582  0.7253  0.0106 -0.4810
13443TIP3    H161744   0.714   1.312   5.507  0.8311 -0.2995 -0.4315
13443TIP3    H261745   0.577   1.260   5.546  1.0955 -0.8521 -0.2346
13444TIP3   OH261746   5.695   6.111  10.930 -0.4101 -0.5001 -0.4089
13444TIP3    H161747   5.653   6.053  10.995  0.6172 -0.0413  0.6789
13444TIP3    H261748   5.631   6.116  10.858 -2.7998  1.1053  1.7097
13445TIP3   OH261749   4.821   3.192   3.402  0.3474  0.2300 -0.4043
13445TIP3    H161750   4.747   3.240   3.440  1.0195 -0.6554  2.1885
13445TIP3    H261751   4.784   3.106   3.381 -0.2194  0.9698 -2.6107
13446TIP3   OH261752   6.750   0.116  11.996  0.3300  0.8934 -0.2058
13446TIP3    H161753   6.688   0.075  11.934 -1.0654  2.6170  0.0197
13446TIP3    H261754   6.751   0.056  12.071 -2.8138  1.9135  0.7443
13447TIP3   OH261755   1.570   1.339   2.655 -0.1278 -0.0110  0.0607
13447TIP3    H161756   1.574   1.310   2.563  0.3290 -1.9261  0.6583
13447TIP3    H261757   1.642   1.293   2.697  1.6809  3.3010  0.7622
13448TIP3   OH261758   1.719   6.240  13.523 -0.3640  0.0117  0.1090
13448TIP3    H161759   1.790   6.176  13.515  1.0411  1.5903 -0.3886
13448TIP3    H261760   1.676   6.238  13.437  0.0145  0.1360 -0.0829
13449TIP3   OH261761   1.980   1.281   0.490  0.4303 -0.5504 -0.2585
13449TIP3    H161762   2.066   1.239   0.486  0.6335  0.0033 -2.3519
13449TIP3    H261763   1.938   1.258   0.407 -1.2891 -0.4592  0.5604
13450TIP3   OH261764   2.203   2.585   5.616  1.2078  0.5949  0.6451
13450TIP3    H161765   2.223   2.493   5.633 -0.7521 -0.0668 -0.4694
13450TIP3    H261766   2.235   2.600   5.527  0.3267  0.6273  0.3360
13451TIP3   OH261767   6.494   6.416   5.890  0.1637  0.2124  0.2991
13451TIP3    H161768   6.537   6.369   5.961 -1.0813  0.1430  1.0134
13451TIP3    H261769   6.454   6.492   5.931 -0.9611 -0.0739 -0.2336
13452TIP3   OH261770   0.957   1.449  14.341  0.0733 -0.1876  1.0189
13452TIP3    H161771   0.930   1.487  14.425  0.7276  1.2025  0.6112
13452TIP3    H261772   0.993   1.522  14.292 -1.3236 -0.7685 -0.9233
13453TIP3   OH261773   3.995   4.642   3.696 -0.2282 -0.4135  0.4220
13453TIP3    H161774   3.906   4.628   3.663  0.0811 -1.3610 -0.0191
13453TIP3    H261775   3.982   4.688   3.779 -1.0951  0.1224  0.0030
13454TIP3   OH261776   1.945   3.827  10.559  0.4839 -0.4640  0.3016
13454TIP3    H161777   2.032   3.830  10.520  0.1498 -0.5973 -0.4610
13454TIP3    H261778   1.901   3.905  10.526  0.0764 -0.7728  0.1122
13455TIP3   OH261779   6.010   2.275  11.551 -0.1212  0.1665  0.2526
13455TIP3    H161780   6.091   2.305  11.593 -0.5917  1.2497  0.4082
13455TIP3    H261781   5.958   2.355  11.540 -0.3481 -0.2069 -1.6369
13456TIP3   OH261782   0.372   4.676   3.334 -0.4153  0.3298  0.3657
13456TIP3    H161783   0.315   4.744   3.368  2.1012  2.8110 -0.1908
13456TIP3    H261784   0.318   4.631   3.269 -1.1928  3.9122 -1.6258
13457TIP3   OH261785   2.213   0.342   2.010 -0.4428 -0.2730  0.2262
13457TIP3    H161786   2.164   0.358   1.929  0.0676 -1.2253 -0.2829
13457TIP3    H261787   2.145   0.330   2.076 -0.8786 -0.2347 -0.2073
13458TIP3   OH261788   2.435   4.111   6.018  0.1532 -0.3757  0.1380
13458TIP3    H161789   2.348   4.080   5.991  0.3610 -0.7538 -0.0944
13458TIP3    H261790   2.425   4.206   6.024 -0.2201 -0.3972 -0.1032
13459TIP3   OH261791   2.974   6.502   5.757 -0.6015 -0.0747  0.0320
13459TIP3    H161792   2.985   6.589   5.720  1.8445  0.5416  2.0658
13459TIP3    H261793   2.897   6.509   5.814  0.3532  1.1470  1.2069
13460TIP3   OH261794   3.699   0.274  14.207  0.0862  0.1003 -0.0653
13460TIP3    H161795   3.680   0.230  14.290  0.0798 -0.3821 -0.3208
13460TIP3    H261796   3.773   0.331  14.227  0.8591 -0.8992 -0.0118
13461TIP3   OH261797   4.602   5.865  11.350 -0.4174 -0.2172  0.1652
13461TIP3    H161798   4.511   5.891  11.369  0.0146  0.5381  1.2279
13461TIP3    H261799   4.610   5.777  11.385 -0.4517  0.0941  0.9503
13462TIP3   OH261800   5.468   6.233  12.147  0.5768  0.2327 -0.1560
13462TIP3    H161801   5.418   6.272  12.219 -0.4055 -1.2798  0.0085
13462TIP3    H261802   5.459   6.296  12.076 -0.6758  0.5144  0.2272
13463TIP3   OH261803   3.233   0.222  11.677 -0.5400  0.6113 -0.4474
13463TIP3    H161804   3.270   0.309  11.663 -0.3752  0.8772  1.4831
13463TIP3    H261805   3.241   0.178  11.592 -0.0983  2.2738 -1.2783
13464TIP3   OH261806   6.782   2.704  13.309 -0.5078 -0.4936 -0.1236
13464TIP3    H161807   6.693   2.708  13.343 -0.5607  1.7964 -0.4674
13464TIP3    H261808   6.771   2.681  13.217 -0.8055  0.7796 -0.4090
13465TIP3   OH261809   6.782   0.377  13.062  0.1804  0.0953 -0.5590
13465TIP3    H161810   6.764   0.284  13.077 -0.5011  0.4287  0.8502
13465TIP3    H261811   6.728   0.400  12.986  1.6733 -1.0466 -1.9971
13466TIP3   OH261812   6.650   3.612   4.119 -0.3246 -0.1834  0.7316
13466TIP3    H161813   6.623   3.628   4.029 -3.3583  0.1396  1.6484
13466TIP3    H261814   6.745   3.604   4.114 -0.6209 -3.4615 -3.0197
13467TIP3   OH261815   4.373   1.268   5.200 -0.1310 -0.1962 -0.3682
13467TIP3    H161816   4.361   1.318   5.281  1.5772 -0.6926  0.2186
13467TIP3    H261817   4.311   1.306   5.138  1.1689  2.6757  0.0233
13468TIP3   OH261818   6.756   6.075  16.463 -0.2871 -0.0851 -0.0187
13468TIP3    H161819   6.763   5.980  16.474 -1.4024 -0.3512 -1.4406
13468TIP3    H261820   6.835   6.099  16.415 -1.2263 -0.6881 -1.9000
13469TIP3   OH261821   5.630   0.880  12.428  0.2713  0.2226 -0.1660
13469TIP3    H161822   5.662   0.833  12.505 -0.0036  0.7878  0.2970
13469TIP3    H261823   5.657   0.971  12.442 -1.3279  0.6617  0.1249
13470TIP3   OH261824   2.748   3.993  12.175 -0.3428 -0.0246 -0.0481
13470TIP3    H161825   2.776   3.902  12.187 -1.2503 -0.1825  0.9706
13470TIP3    H261826   2.678   4.005  12.239 -1.2140  0.9715 -1.1839
13471TIP3   OH261827   6.067   1.512   6.116  0.6575 -0.3254  0.2981
13471TIP3    H161828   6.132   1.484   6.180  1.0179  1.2127  0.6275
13471TIP3    H261829   6.116   1.565   6.053  0.0281 -0.5316 -0.3637
13472TIP3   OH261830   6.384   3.680   0.413 -0.0741 -0.4315  0.0313
13472TIP3    H161831   6.447   3.694   0.484  0.1674 -0.4980 -0.1699
13472TIP3    H261832   6.299   3.676   0.457 -0.0138  0.4021  0.2296
13473TIP3   OH261833   5.619   4.950  14.423 -0.4685 -0.3220 -0.2389
13473TIP3    H161834   5.530   4.977  14.444 -0.2148  0.6421 -0.3988
13473TIP3    H261835   5.640   4.995  14.342  1.2420  1.8807  1.3699
13474TIP3   OH261836   2.496   0.797   6.220  0.6013 -0.5152 -0.1530
13474TIP3    H161837   2.563   0.759   6.277  1.4490 -1.6412 -1.8579
13474TIP3    H261838   2.415   0.752   6.245  0.9863 -1.0728  0.1069
13475TIP3   OH261839   2.100   6.299   0.148 -0.7376  0.4725  0.2008
13475TIP3    H161840   2.188   6.321   0.179 -0.6152 -0.0203  0.2198
13475TIP3    H261841   2.044   6.368   0.182 -0.4805  0.3611  0.8675
13476TIP3   OH261842   6.595   3.055  13.679 -0.1902  0.3576 -0.7102
13476TIP3    H161843   6.689   3.070  13.685 -0.7616  3.5967  1.3976
13476TIP3    H261844   6.563   3.124  13.620 -1.4555  0.3930 -0.0059
13477TIP3   OH261845   0.189   1.753   6.008  0.4671  0.1685  0.2610
13477TIP3    H161846   0.237   1.797   6.077 -1.2198  0.7940  1.0509
13477TIP3    H261847   0.212   1.660   6.018  1.2761  0.4227  0.7851
13478TIP3   OH261848   3.092   0.824   0.292 -0.6367  0.0931  0.1261
13478TIP3    H161849   3.158   0.769   0.250 -0.7561  0.7166 -0.8949
13478TIP3    H261850   3.142   0.881   0.350 -0.1660  1.2381 -1.3838
13479TIP3   OH261851   4.017   1.013   1.476 -0.1849  0.0408  0.2942
13479TIP3    H161852   4.105   1.050   1.467  0.5988 -0.9942  3.0306
13479TIP3    H261853   3.976   1.066   1.544 -0.6293 -1.2988  1.0783
13480TIP3   OH261854   1.895   2.840   4.102  0.1533 -0.5531 -0.1800
13480TIP3    H161855   1.923   2.852   4.011 -0.3237  1.2866 -0.0999
13480TIP3    H261856   1.823   2.777   4.096 -1.8638  1.7694 -1.4616
13481TIP3   OH261857   4.892   1.777   4.815  0.0215  0.1685 -0.0144
13481TIP3    H161858   4.947   1.709   4.777 -1.9122 -1.4716  0.0174
13481TIP3    H261859   4.904   1.853   4.758  0.8910 -0.7392 -1.0548
13482TIP3   OH261860   3.790   1.930   4.339  0.8321 -0.2345  0.2738
13482TIP3    H161861   3.833   1.930   4.424 -0.3203  1.9887  0.9108
13482TIP3    H261862   3.700   1.902   4.358 -0.2007  2.9070  0.2807
13483TIP3   OH261863   2.524   6.773  14.157 -0.1772 -0.3378 -0.5115
13483TIP3    H161864   2.524   6.709  14.228  2.7432 -0.7133 -0.7580
13483TIP3    H261865   2.602   6.752  14.106  1.3359  3.8395 -0.1621
13484TIP3   OH261866   2.547   4.494  14.398  0.4134  0.4809  0.2663
13484TIP3    H161867   2.520   4.551  14.326 -0.1097  0.3963  0.3976
13484TIP3    H261868   2.537   4.405  14.363 -1.2461  0.3853  0.9268
13485TIP3   OH261869   1.790   3.685  10.888 -0.0017  0.5266  0.0723
13485TIP3    H161870   1.712   3.655  10.840  0.3110 -0.0752 -0.0711
13485TIP3    H261871   1.861   3.678  10.824  0.8071 -2.2980  1.1914
13486TIP3   OH261872   3.903   0.273  12.572 -0.2399 -0.3487  0.1307
13486TIP3    H161873   3.826   0.223  12.546  0.2147 -0.9464 -0.0448
13486TIP3    H261874   3.958   0.211  12.619 -0.0154  0.1646  0.5593
13487TIP3   OH261875   2.575   5.222   1.068  0.0795  0.3921 -0.1203
13487TIP3    H161876   2.569   5.190   1.158  1.3766 -0.1038 -0.2101
13487TIP3    H261877   2.484   5.221   1.037  0.0184 -2.9297 -0.0351
13488TIP3   OH261878   3.626   1.638  15.506  0.3645 -0.2918  0.7938
13488TIP3    H161879   3.638   1.543  15.511  0.5424 -0.2904  0.3698
13488TIP3    H261880   3.685   1.666  15.437 -1.0314 -0.1163 -0.3537
13489TIP3   OH261881   3.003   4.180   3.361  0.4483 -0.1541 -0.1687
13489TIP3    H161882   3.077   4.241   3.361  0.9943 -0.8102  0.0463
13489TIP3    H261883   3.025   4.116   3.429 -0.2913 -0.3883 -0.1446
13490TIP3   OH261884   2.262   4.048  11.495 -0.6151 -0.1155  0.1452
13490TIP3    H161885   2.294   3.975  11.443 -0.0078  1.0392 -1.1326
13490TIP3    H261886   2.330   4.063  11.560 -0.6404 -0.5339  0.2724
13491TIP3   OH261887   0.942   0.623  14.683  0.0865 -0.4337 -0.4851
13491TIP3    H161888   0.981   0.694  14.632 -0.0481  0.5066  0.7043
13491TIP3    H261889   1.017   0.575  14.719  0.1936  0.9706  1.2463
13492TIP3   OH261890   2.456   5.333  17.088 -0.2017 -0.6345  0.0267
13492TIP3    H161891   2.482   5.294  17.171 -0.4510  1.0186  0.9031
13492TIP3    H261892   2.469   5.264  17.024 -1.0668 -2.3022  1.6066
13493TIP3   OH261893   1.312   2.763  11.514 -0.5454 -0.3213 -0.8008
13493TIP3    H161894   1.255   2.822  11.465  0.1838  1.5720  0.5823
13493TIP3    H261895   1.398   2.805  11.512 -0.3934 -0.4418  1.6668
13494TIP3   OH261896   2.315   1.382   1.107  0.2213  0.1824 -0.1362
13494TIP3    H161897   2.395   1.371   1.055 -1.2656 -0.2568 -2.3958
13494TIP3    H261898   2.244   1.372   1.044 -1.6834 -1.4441  2.2058
13495TIP3   OH261899   3.205   2.976  16.374  0.1351 -1.1350  0.2986
13495TIP3    H161900   3.119   2.937  16.362  0.4302 -1.3350 -1.2933
13495TIP3    H261901   3.234   2.945  16.460 -1.2102 -1.3637  0.6800
13496TIP3   OH261902   0.436   5.613   0.261 -0.5978 -0.1709 -0.3282
13496TIP3    H161903   0.399   5.698   0.237  0.0591 -0.1552 -1.3151
13496TIP3    H261904   0.483   5.629   0.343  0.7646  0.7546 -1.2746
13497TIP3   OH261905   1.711   1.081  11.064  0.5980  0.1695 -0.4712
13497TIP3    H161906   1.803   1.065  11.045  0.9710  1.1041  0.4951
13497TIP3    H261907   1.692   1.164  11.021 -0.3721 -1.0199 -2.4372
13498TIP3   OH261908   2.478   3.291  13.492 -0.1897 -0.6294  0.4937
13498TIP3    H161909   2.427   3.333  13.423 -3.2530 -2.6430  1.4223
13498TIP3    H261910   2.524   3.220  13.447 -0.0575 -0.2793  0.0682
13499TIP3   OH261911   3.987   0.747  15.945  0.2351  0.0287 -0.0532
13499TIP3    H161912   4.075   0.734  15.981  0.4176 -1.5432 -1.0159
13499TIP3    H261913   3.957   0.659  15.923 -1.5241  0.5709  0.1208
13500TIP3   OH261914   1.446   2.237  16.016 -0.3802 -0.1136 -0.7634
13500TIP3    H161915   1.500   2.198  16.085 -0.2942  1.8892  0.3451
13500TIP3    H261916   1.506   2.252  15.944  0.0773  0.1326 -0.3281
13501TIP3   OH261917   6.120   0.310  15.599 -0.2050  0.1277 -0.3828
13501TIP3    H161918   6.210   0.277  15.595  0.3399  1.4451  0.9081
13501TIP3    H261919   6.113   0.352  15.684 -1.9010  0.4879 -0.6817
13502TIP3   OH261920   5.673   4.211  11.084  0.6203  0.4466  0.4281
13502TIP3    H161921   5.644   4.236  11.172  0.4391  2.6696 -0.2422
13502TIP3    H261922   5.769   4.210  11.090  0.6490  1.8622  0.3285
13503TIP3   OH261923   1.583   4.920  14.817 -0.3705 -0.1126  0.5845
13503TIP3    H161924   1.665   4.929  14.768  0.4284 -1.8161  1.5661
13503TIP3    H261925   1.548   5.009  14.822 -0.3217  0.1680 -2.7892
13504TIP3   OH261926   5.067   0.298  12.772  0.4096  0.3738 -0.3591
13504TIP3    H161927   5.010   0.221  12.770 -0.3983  0.9985 -2.1965
13504TIP3    H261928   5.126   0.285  12.697  1.1412  0.8860  0.1295
13505TIP3   OH261929   3.367   1.373   4.742  0.3054 -0.2742  0.3200
13505TIP3    H161930   3.281   1.374   4.784  0.6445  0.5225  1.0024
13505TIP3    H261931   3.429   1.358   4.813  0.9679  2.1123  0.2772
13506TIP3   OH261932   1.366   1.966   1.976  0.4954 -0.1866  0.0341
13506TIP3    H161933   1.432   1.898   1.966  0.4829 -0.2620  0.4605
13506TIP3    H261934   1.340   1.961   2.068  1.7230  1.4974  0.5125
13507TIP3   OH261935   3.219   2.679   0.334 -0.2069  0.2553  0.4238
13507TIP3    H161936   3.218   2.690   0.239  1.3888  2.3642  0.6039
13507TIP3    H261937   3.158   2.745   0.366 -1.6192 -1.2186  0.8289
13508TIP3   OH261938   6.207   3.286   3.811 -0.2896  0.0756 -0.6314
13508TIP3    H161939   6.279   3.343   3.784 -0.3666 -0.2881 -1.6155
13508TIP3    H261940   6.243   3.198   3.806  0.0674  0.0585  1.6321
13509TIP3   OH261941   3.747   0.865  13.688 -0.2633 -0.0912  0.3186
13509TIP3    H161942   3.752   0.847  13.782  0.6371 -0.1403  0.2683
13509TIP3    H261943   3.654   0.880  13.671 -0.2573  1.4471  1.5169
13510TIP3   OH261944   0.192   0.249   0.301  0.5973 -0.4748 -0.4972
13510TIP3    H161945   0.142   0.327   0.327 -1.5484 -1.6495 -0.9705
13510TIP3    H261946   0.241   0.276   0.224 -0.4481  0.3054 -0.8955
13511TIP3   OH261947   0.761   6.470   1.079  0.1020 -0.9001  0.4905
13511TIP3    H161948   0.745   6.553   1.124  1.4857 -1.5595  2.2091
13511TIP3    H261949   0.837   6.432   1.123  0.0391 -2.6651 -0.8680
13512TIP3   OH261950   3.662   5.958  11.442 -0.1249 -0.6927 -0.3427
13512TIP3    H161951   3.743   5.947  11.392  1.9322  2.6168  2.1290
13512TIP3    H261952   3.598   5.989  11.377  1.6382  0.4285 -1.5778
13513TIP3   OH261953   5.192   2.850  16.355 -0.0839 -0.1848 -0.5773
13513TIP3    H161954   5.198   2.790  16.281 -0.6015 -1.1640  0.1675
13513TIP3    H261955   5.165   2.796  16.429 -0.4002  0.9275  0.1466
13514TIP3   OH261956   3.089   2.085   1.826  0.2211  0.1265  0.3945
13514TIP3    H161957   3.115   2.112   1.914  0.7200 -1.1304  0.6461
13514TIP3    H261958   3.043   2.002   1.838  1.8379 -0.9518 -0.6948
13515TIP3   OH261959   2.418   5.805   2.133 -0.2211 -0.3941  0.0151
13515TIP3    H161960   2.360   5.806   2.057  0.7455  0.1907 -0.7105
13515TIP3    H261961   2.428   5.897   2.157  2.2930 -0.2946 -1.3069
13516TIP3   OH261962   0.843   1.253   1.572  0.3574 -0.3048  0.1248
13516TIP3    H161963   0.915   1.291   1.622 -0.2417  0.1234  0.6804
13516TIP3    H261964   0.801   1.192   1.633 -0.8917  0.8471  0.4230
13517TIP3   OH261965   0.829   1.348   1.296  0.3521  0.1141  0.3617
13517TIP3    H161966   0.786   1.273   1.255  0.7540  0.1145 -0.0587
13517TIP3    H261967   0.812   1.337   1.390 -1.0322  0.3947  0.1555
13518TIP3   OH261968   1.215   2.580   2.337  0.6203 -0.2414 -1.1258
13518TIP3    H161969   1.229   2.635   2.260 -0.6672  0.8069 -0.6265
13518TIP3    H261970   1.268   2.620   2.405 -1.1575  1.0496 -0.4681
13519TIP3   OH261971   6.071   1.471   3.960 -0.2300 -0.5551  0.3986
13519TIP3    H161972   6.017   1.446   3.886 -0.8274 -3.4383  1.7363
13519TIP3    H261973   6.022   1.542   4.003 -0.0867  0.8187 -1.6597
13520TIP3   OH261974   0.785   1.349   5.344 -0.3299  0.5289  0.0274
13520TIP3    H161975   0.857   1.296   5.309 -1.5374 -0.8898 -0.3806
13520TIP3    H261976   0.724   1.358   5.270 -0.9456  1.0155  0.5920
13521TIP3   OH261977   2.167   2.071   3.234 -0.0995  0.7275 -0.5700
13521TIP3    H161978   2.145   2.135   3.301  2.5029  1.2055 -0.0890
13521TIP3    H261979   2.096   2.007   3.236  0.0823  0.5763  2.8575
13522TIP3   OH261980   4.046   2.913   3.650 -0.3060  0.2611 -0.2222
13522TIP3    H161981   4.070   2.842   3.591 -1.2809  0.4434 -0.8353
13522TIP3    H261982   3.951   2.921   3.642 -0.0757  2.5225 -1.1825
13523TIP3   OH261983   3.520   5.087  13.932  0.8408 -0.3964 -0.4103
13523TIP3    H161984   3.590   5.043  13.884  1.9650  0.4331  0.4617
13523TIP3    H261985   3.480   5.146  13.867  1.5255 -0.2173 -0.6743
13524TIP3   OH261986   6.244   6.023  15.045  0.5212  0.4731 -0.0482
13524TIP3    H161987   6.274   5.947  15.095  1.3251 -1.1181 -2.8225
13524TIP3    H261988   6.310   6.033  14.975 -1.6865  1.2468 -2.0942
13525TIP3   OH261989   1.899   5.237  13.074 -0.2709  0.7035 -0.0741
13525TIP3    H161990   1.917   5.164  13.134  0.7442  0.1239 -1.0640
13525TIP3    H261991   1.836   5.292  13.121 -1.6767 -1.2354  0.3547
13526TIP3   OH261992   1.412   1.470  11.751  0.4042  0.1503 -0.3499
13526TIP3    H161993   1.352   1.396  11.753  1.2823 -0.5669 -0.1269
13526TIP3    H261994   1.355   1.547  11.753 -0.4626 -0.5071  1.7422
13527TIP3   OH261995   2.510   0.167  11.659 -0.1645 -0.4576  0.2620
13527TIP3    H161996   2.433   0.214  11.625 -0.5116 -0.3506  1.1880
13527TIP3    H261997   2.479   0.125  11.740  0.7967 -0.2801  0.7255
13528TIP3   OH261998   0.216   1.132  11.824 -0.4737 -0.1822  0.3401
13528TIP3    H161999   0.250   1.047  11.797 -1.1898 -0.4883  0.3866
13528TIP3    H262000   0.158   1.112  11.898 -1.0686  0.2820 -0.0010
13529TIP3   OH262001   0.722   4.393  14.347 -0.0866  0.0498  0.3931
13529TIP3    H162002   0.675   4.388  14.264  0.2801  2.6118 -0.0273
13529TIP3    H262003   0.662   4.356  14.411 -0.4651 -1.7461 -0.9781
13530TIP3   OH262004   6.409   2.361   3.540 -0.7007  0.4308  0.0076
13530TIP3    H162005   6.464   2.438   3.525 -0.6621  0.6278  1.1671
13530TIP3    H262006   6.319   2.396   3.538 -0.6973  0.4510  0.2397
13531TIP3   OH262007   3.189   3.138   2.525 -0.2854 -0.4230  0.1065
13531TIP3    H162008   3.133   3.212   2.501  0.4200 -0.1303 -0.6542
13531TIP3    H262009   3.218   3.102   2.441 -0.3716 -1.3658  0.4843
13532TIP3   OH262010   6.494   2.601  15.350  0.5841  0.3641 -0.7811
13532TIP3    H162011   6.532   2.629  15.433 -0.9363 -0.3399  0.1654
13532TIP3    H262012   6.433   2.671  15.326 -0.7391 -0.5302 -0.0905
13533TIP3   OH262013   6.182   5.486  14.273  0.2437  0.3703 -0.0394
13533TIP3    H162014   6.239   5.516  14.344 -0.7041 -0.7755  1.2465
13533TIP3    H262015   6.157   5.566  14.226  0.0881  1.2610  1.5284
13534TIP3   OH262016   1.629   5.309  14.701 -0.2892  0.0166 -0.3876
13534TIP3    H162017   1.693   5.238  14.710  3.0831  2.7758 -1.6945
13534TIP3    H262018   1.605   5.330  14.791  0.6197 -1.1028  0.1368
13535TIP3   OH262019   2.472   3.224  11.113 -0.5232  0.1816  0.0961
13535TIP3    H162020   2.421   3.142  11.105 -0.6015  0.2099  0.3061
13535TIP3    H262021   2.466   3.246  11.206  0.1657  0.0003  0.1843
13536TIP3   OH262022   6.769   0.185  16.440  0.3720 -0.3076  0.0281
13536TIP3    H162023   6.824   0.245  16.490  0.1852 -0.1089 -0.0015
13536TIP3    H262024   6.820   0.165  16.361  0.5231 -0.3544  0.1381
13537TIP3   OH262025   1.974   0.182  11.512 -0.1899  0.0479 -0.1273
13537TIP3    H162026   2.007   0.118  11.575 -0.7015  1.5817  1.7382
13537TIP3    H262027   1.976   0.136  11.428  2.5681 -1.3385  0.6272
13538TIP3   OH262028   1.236   0.769   1.576  0.4949 -0.8026 -0.1178
13538TIP3    H162029   1.277   0.777   1.662  1.0404  2.9671 -0.6507
13538TIP3    H262030   1.306   0.788   1.514 -0.7936  0.3169 -1.2544
13539TIP3   OH262031   2.589   0.437   2.568 -0.0844 -0.0232 -0.4494
13539TIP3    H162032   2.528   0.506   2.542 -0.7132 -0.1282  0.7556
13539TIP3    H262033   2.642   0.422   2.489  0.3655  2.1453 -0.5855
13540TIP3   OH262034   1.091   1.930  14.365  0.3625 -0.4425  0.0310
13540TIP3    H162035   1.121   1.856  14.419  2.2252  0.6709  0.5933
13540TIP3    H262036   1.168   1.955  14.315 -1.3571 -1.4582 -3.2442
13541TIP3   OH262037   6.270   4.630  10.739  0.3761 -0.4715 -0.8578
13541TIP3    H162038   6.193   4.573  10.741 -0.0254  0.0768 -0.6099
13541TIP3    H262039   6.320   4.600  10.663 -0.7136 -0.0090 -1.7806
13542TIP3   OH262040   0.810   3.121  14.080 -0.0310  0.3386 -0.1349
13542TIP3    H162041   0.894   3.163  14.062  1.0115 -2.3443 -1.7894
13542TIP3    H262042   0.745   3.185  14.049  1.3914  2.0577  0.3380
13543TIP3   OH262043   2.653   1.970   3.010 -0.2871 -0.3406  0.5643
13543TIP3    H162044   2.576   1.999   3.058 -0.4097  1.2506 -0.5664
13543TIP3    H262045   2.717   1.948   3.078 -0.5244  1.6610  1.4671
13544TIP3   OH262046   2.074   1.267  13.094  0.6224  0.0423 -0.3116
13544TIP3    H162047   1.996   1.230  13.135  2.2392 -1.7698  1.2426
13544TIP3    H262048   2.106   1.331  13.157  0.0794  1.2435 -1.2284
13545TIP3   OH262049   0.047   2.049  13.923  0.0469 -0.7817  0.4780
13545TIP3    H162050   0.137   2.061  13.893 -0.1718 -2.4178 -0.8950
13545TIP3    H262051   0.036   2.116  13.991  1.4152  1.2096 -1.1880
13546TIP3   OH262052   2.546   4.410  12.309  0.2580 -0.0844  0.4408
13546TIP3    H162053   2.600   4.486  12.327 -0.7253  1.1273 -1.5139
13546TIP3    H262054   2.456   4.442  12.318 -0.1642 -1.0426 -0.2867
13547TIP3   OH262055   0.058   0.341   3.669 -0.2134 -0.5782 -0.6814
13547TIP3    H162056   0.011   0.341   3.586 -0.1500 -0.9397 -0.7170
13547TIP3    H262057   0.045   0.429   3.704 -2.1403 -1.1020  0.0067
13548TIP3   OH262058   2.206   2.903  15.803 -0.0275 -0.0438  0.1167
13548TIP3    H162059   2.275   2.969  15.816 -0.8957  1.0068 -0.5614
13548TIP3    H262060   2.173   2.921  15.715 -2.6084  0.8206  1.2264
13549TIP3   OH262061   3.132   5.373  11.431 -0.3947  0.2784  0.1061
13549TIP3    H162062   3.156   5.464  11.446 -1.0101  0.4250  0.2193
13549TIP3    H262063   3.083   5.347  11.509  0.5099 -0.4126  0.4517
13550TIP3   OH262064   2.648   2.930   4.649  0.7373  0.2027  0.0174
13550TIP3    H162065   2.681   2.982   4.722  2.2292 -0.7558  0.0271
13550TIP3    H262066   2.633   2.995   4.579  1.0727  0.8588  0.5468
13551TIP3   OH262067   0.891   4.675   4.876  0.2885  0.2555 -0.3593
13551TIP3    H162068   0.920   4.648   4.964 -1.1676  1.3045  0.4655
13551TIP3    H262069   0.960   4.735   4.846  1.3501 -0.9612 -0.4077
13552TIP3   OH262070   2.839   4.334   3.537  0.1651 -0.1622 -0.0122
13552TIP3    H162071   2.860   4.294   3.453  0.7249  1.2397 -0.5624
13552TIP3    H262072   2.750   4.369   3.525 -0.4045 -1.3824  0.5344
13553TIP3   OH262073   4.865   4.530   3.065 -0.0784  0.6321 -0.0290
13553TIP3    H162074   4.881   4.460   3.128  1.3205  1.9791  1.1480
13553TIP3    H262075   4.796   4.496   3.009 -1.3815 -0.6105  2.2376
13554TIP3   OH262076   4.649   3.263   4.624 -0.0825 -1.0707  0.2004
13554TIP3    H162077   4.695   3.257   4.707  1.4572 -1.2835 -0.6408
13554TIP3    H262078   4.558   3.278   4.647 -0.0708 -3.4893  1.9726
13555TIP3   OH262079   3.862   2.320   4.500 -0.3161 -0.2267 -0.2275
13555TIP3    H162080   3.844   2.320   4.595 -1.5056 -0.4030 -0.4403
13555TIP3    H262081   3.784   2.280   4.461  1.1283 -2.2429 -1.1254
13556TIP3   OH262082   3.253   0.390   4.164  0.0656 -0.0371  0.0095
13556TIP3    H162083   3.179   0.331   4.183  0.3905 -0.2759  0.5361
13556TIP3    H262084   3.315   0.335   4.115  0.8206 -0.4299  1.3729
13557TIP3   OH262085   4.364   0.972   1.316  0.6166  0.1500 -0.4877
13557TIP3    H162086   4.356   0.879   1.293  0.9291  0.0288 -0.1205
13557TIP3    H262087   4.361   0.973   1.412  0.0707  0.5751 -0.5030
13558TIP3   OH262088   5.176   5.574   3.755 -0.0283  0.4775 -0.0081
13558TIP3    H162089   5.108   5.627   3.714 -0.8162  0.4288  1.2100
13558TIP3    H262090   5.231   5.636   3.801 -1.8242  0.1776  2.6888
13559TIP3   OH262091   5.278   3.393  16.311  0.0494 -0.5583 -0.4139
13559TIP3    H162092   5.246   3.303  16.307 -0.4445 -0.3639 -0.8260
13559TIP3    H262093   5.281   3.413  16.405  0.7537 -1.2083 -0.2894
13560TIP3   OH262094   5.153   2.064  16.380  0.4895 -0.1745 -0.3477
13560TIP3    H162095   5.069   2.030  16.410  0.2362 -1.0699 -2.0239
13560TIP3    H262096   5.217   1.999  16.409  0.5021  0.0498  0.1326
13561TIP3   OH262097   2.741   4.659   0.862 -0.3241  0.5509  0.5485
13561TIP3    H162098   2.829   4.622   0.864 -0.8548 -1.0029 -2.3964
13561TIP3    H262099   2.698   4.624   0.940  1.2342  0.2480  1.2914
13562TIP3   OH262100   0.840   0.380  12.792 -0.0161 -0.1880 -0.0207
13562TIP3    H162101   0.813   0.407  12.705  0.9559 -0.2871 -0.3541
13562TIP3    H262102   0.844   0.284  12.788 -1.2046 -0.2643  0.4983
13563TIP3   OH262103   4.952   5.753   1.723 -0.6421 -0.0644  0.6095
13563TIP3    H162104   4.966   5.835   1.769  1.0579 -0.3327  0.5931
13563TIP3    H262105   4.927   5.691   1.791 -1.4196  0.3265  0.6899
13564TIP3   OH262106   3.862   2.722   2.624  0.0580 -0.1303 -0.1820
13564TIP3    H162107   3.840   2.815   2.624  0.9810  0.0872 -1.2077
13564TIP3    H262108   3.919   2.710   2.549 -1.1316 -1.7910 -0.8531
13565TIP3   OH262109   6.771   2.865  15.934 -0.1810 -0.2669 -0.0771
13565TIP3    H162110   6.860   2.867  15.898 -0.3459 -1.1053 -0.5506
13565TIP3    H262111   6.738   2.954  15.921  0.3828 -0.1043 -0.4337
13566TIP3   OH262112   6.412   3.495  12.045 -0.4022 -0.3113 -0.5540
13566TIP3    H162113   6.357   3.485  12.122 -0.8591 -0.7950 -0.9437
13566TIP3    H262114   6.435   3.405  12.020 -0.3343 -0.1587 -1.0394
13567TIP3   OH262115   1.311   5.742   6.159 -0.7267  0.2771 -0.8750
13567TIP3    H162116   1.261   5.679   6.108 -0.0238 -1.8240  0.9653
13567TIP3    H262117   1.295   5.718   6.250  1.9877  0.8107 -0.2033
13568TIP3   OH262118   0.977   3.420  16.632 -0.5351 -0.0012 -0.2008
13568TIP3    H162119   0.953   3.427  16.539 -0.3531  0.5694 -0.2041
13568TIP3    H262120   0.962   3.507  16.667  0.0387 -0.0486  0.1597
13569TIP3   OH262121   4.057   3.452   2.411 -1.0051 -0.0948 -0.1319
13569TIP3    H162122   4.094   3.434   2.325 -1.8261  0.8132 -0.6972
13569TIP3    H262123   3.998   3.527   2.396 -2.3068 -0.8835  0.9144
13570TIP3   OH262124   4.413   0.593   0.815 -0.5366 -0.1427 -1.0736
13570TIP3    H162125   4.491   0.539   0.796 -1.1602 -1.4360 -0.0519
13570TIP3    H262126   4.433   0.635   0.898 -0.5103  0.3484 -1.3260
13571TIP3   OH262127   3.387   4.205   5.799 -0.0121 -0.0819  0.2535
13571TIP3    H162128   3.400   4.148   5.723  1.8798  1.1915 -0.4278
13571TIP3    H262129   3.364   4.145   5.870  0.6268 -1.5694 -0.7558
13572TIP3   OH262130   3.404   2.479  15.999 -0.6770  0.0455 -0.1180
13572TIP3    H162131   3.415   2.512  15.909 -0.2289  1.9336  0.6093
13572TIP3    H262132   3.344   2.405  15.989  0.0083 -0.2884 -2.0819
13573TIP3   OH262133   1.137   1.383   2.097  0.1419  0.0863  0.3829
13573TIP3    H162134   1.156   1.326   2.171 -1.2371  0.2075  0.8569
13573TIP3    H262135   1.048   1.416   2.114  0.9586  2.4826  0.1829
13574TIP3   OH262136   1.983   5.478  16.690  0.0797  0.4012 -0.0595
13574TIP3    H162137   1.952   5.506  16.603  0.0040 -0.5591 -0.3558
13574TIP3    H262138   1.970   5.554  16.746 -2.2694  0.2346 -0.3213
13575TIP3   OH262139   5.097   2.049   0.585 -0.0422 -0.7984 -0.8313
13575TIP3    H162140   5.080   2.136   0.621  0.8427 -0.5335 -1.0525
13575TIP3    H262141   5.028   1.994   0.622  1.0614 -0.6218  1.5527
13576TIP3   OH262142   2.601   0.343  13.955 -0.1370  0.6253  0.0020
13576TIP3    H162143   2.535   0.410  13.934 -2.3603 -1.5709 -0.2390
13576TIP3    H262144   2.585   0.323  14.047 -0.9372 -1.1131 -0.5036
13577TIP3   OH262145   0.358   0.953  14.928 -0.0508  0.3778  0.1293
13577TIP3    H162146   0.452   0.934  14.933  0.1305  0.9876 -0.8319
13577TIP3    H262147   0.354   1.049  14.923 -0.6456  0.2924 -1.3046
13578TIP3   OH262148   6.361   4.457   4.397 -0.3153  0.8138 -0.4595
13578TIP3    H162149   6.282   4.465   4.343 -1.3811  0.3457  0.9856
13578TIP3    H262150   6.362   4.365   4.425  1.0459  0.6820 -0.9166
13579TIP3   OH262151   3.302   5.969  11.012  0.8580 -0.9258 -0.1834
13579TIP3    H162152   3.377   6.020  10.982  1.2816 -1.2129  0.3631
13579TIP3    H262153   3.225   6.015  10.977  1.1147  1.3427  2.1012
13580TIP3   OH262154   2.012   6.021  12.650  0.4504  0.1486  0.1091
13580TIP3    H162155   2.016   5.934  12.691 -1.2919  0.0860  0.1708
13580TIP3    H262156   1.951   6.011  12.578  1.2332  1.0219 -0.6888
13581TIP3   OH262157   0.810   6.192  15.827 -0.0270  0.7678  0.1638
13581TIP3    H162158   0.807   6.205  15.921 -0.0791 -2.1695  0.6241
13581TIP3    H262159   0.900   6.214  15.802  0.8604 -1.2433  1.4102
13582TIP3   OH262160   5.555   6.672   4.206  0.1996 -0.4252 -0.4116
13582TIP3    H162161   5.487   6.667   4.273 -0.9921 -0.5008 -1.6141
13582TIP3    H262162   5.631   6.707   4.252 -0.9025  0.4663  0.7650
13583TIP3   OH262163   2.091   1.770  14.902  0.4572  0.0174 -0.2171
13583TIP3    H162164   2.038   1.823  14.842 -0.1470 -0.5553 -0.1893
13583TIP3    H262165   2.123   1.698  14.848  1.9995  0.8585 -0.4760
13584TIP3   OH262166   3.944   5.607   5.525 -0.0052  0.4383 -0.0520
13584TIP3    H162167   3.921   5.660   5.601 -0.4792 -2.1819  1.7275
13584TIP3    H262168   4.023   5.560   5.551 -1.4000 -2.1457 -0.2786
13585TIP3   OH262169   3.868   4.564  15.759 -0.1149 -0.7736 -0.3673
13585TIP3    H162170   3.812   4.607  15.695 -0.7266 -0.4644  0.3620
13585TIP3    H262171   3.817   4.490  15.791 -0.5126  0.0853  1.0203
13586TIP3   OH262172   0.158   3.086   5.110 -0.5291  0.0353  0.5432
13586TIP3    H162173   0.101   3.146   5.158 -0.3791 -0.0906  0.8780
13586TIP3    H262174   0.100   3.016   5.080 -0.1958 -1.2036  2.6876
13587TIP3   OH262175   3.438   1.517  13.118 -0.2320 -0.3978  0.7595
13587TIP3    H162176   3.441   1.543  13.026 -0.0095  0.5286  1.0289
13587TIP3    H262177   3.429   1.421  13.115  0.2143 -0.4207 -0.2220
13588TIP3   OH262178   2.154   3.270   4.051 -0.2798  0.4712 -0.0473
13588TIP3    H162179   2.089   3.215   4.008  0.8297 -0.4766 -0.5546
13588TIP3    H262180   2.188   3.216   4.122  0.0229  0.9197  0.1522
13589TIP3   OH262181   2.327   1.385  15.713 -0.5745  0.4264  0.4825
13589TIP3    H162182   2.349   1.303  15.670 -1.2714 -0.1862  1.2838
13589TIP3    H262183   2.235   1.375  15.738 -1.1351  2.0543 -0.8065
13590TIP3   OH262184   2.676   6.102   1.931 -0.1536 -0.2597  0.1186
13590TIP3    H162185   2.722   6.046   1.869 -0.2113 -1.2207  0.9209
13590TIP3    H262186   2.618   6.156   1.878 -0.6550 -1.5105 -0.6045
13591TIP3   OH262187   5.662   0.678   5.355  0.2146 -0.4976 -0.2976
13591TIP3    H162188   5.633   0.769   5.370  0.7198 -0.2776 -0.6715
13591TIP3    H262189   5.757   0.682   5.362  0.1756 -1.2143  0.8490
13592TIP3   OH262190   5.457   1.833   3.380  0.0650 -0.5957  0.4746
13592TIP3    H162191   5.485   1.904   3.438  0.5291 -0.4346  0.0503
13592TIP3    H262192   5.362   1.841   3.376  0.0445 -0.5105  1.0890
13593TIP3   OH262193   0.629   1.034   0.962 -0.0958 -0.4173  0.4001
13593TIP3    H162194   0.557   0.987   0.919 -0.4143  0.4217  0.0082
13593TIP3    H262195   0.680   0.966   1.004 -0.3742 -1.1468 -0.4365
13594TIP3   OH262196   2.901   2.153   2.330 -0.3327 -0.0010 -0.8871
13594TIP3    H162197   2.885   2.195   2.414  0.3572  0.6021 -1.0459
13594TIP3    H262198   2.925   2.225   2.271  2.8466 -0.8007 -0.6661
13595TIP3   OH262199   5.546   4.110  13.543 -0.2577 -0.2222 -0.4513
13595TIP3    H162200   5.493   4.119  13.622  0.4207 -1.3224  0.1365
13595TIP3    H262201   5.570   4.199  13.519 -1.2568  0.1848  0.0441
13596TIP3   OH262202   6.293   6.454  15.612  0.0171 -0.1894 -0.4705
13596TIP3    H162203   6.206   6.419  15.629 -0.1182  0.5750  0.4294
13596TIP3    H262204   6.293   6.473  15.518 -1.5829  1.9589 -0.0483
13597TIP3   OH262205   5.971   1.985  11.596  0.2634 -0.3132  0.5371
13597TIP3    H162206   5.930   1.973  11.511 -0.8709  0.6432  0.9212
13597TIP3    H262207   5.972   2.080  11.608  1.0302 -0.4123  1.2894
13598TIP3   OH262208   5.877   1.213   4.940 -0.3218  0.8566 -0.5404
13598TIP3    H162209   5.911   1.286   4.991  0.7867  0.5054 -0.7630
13598TIP3    H262210   5.866   1.142   5.003  0.4054  0.6349 -0.6514
13599TIP3   OH262211   5.355   5.864   2.807 -0.1765  0.0917  0.0746
13599TIP3    H162212   5.393   5.776   2.804 -0.7392 -0.2126  1.4318
13599TIP3    H262213   5.260   5.848   2.803 -0.2639  0.6726 -0.2054
13600TIP3   OH262214   6.162   4.544   1.382  0.0854 -0.4412  0.3670
13600TIP3    H162215   6.113   4.621   1.357 -1.9877 -1.5080  1.0444
13600TIP3    H262216   6.204   4.514   1.301 -0.0285  0.7297 -0.1232
13601TIP3   OH262217   3.861   2.831  16.053 -0.4835 -0.0225  0.0303
13601TIP3    H162218   3.920   2.875  15.992 -0.2467 -1.5415 -0.8584
13601TIP3    H262219   3.918   2.798  16.122 -0.6165  0.6732  0.4891
13602TIP3   OH262220   5.069   1.321   5.266  0.4990 -0.6288  0.0290
13602TIP3    H162221   5.015   1.302   5.189 -0.0643 -0.1087  0.2894
13602TIP3    H262222   5.088   1.415   5.259 -0.7689 -0.2662  1.2757
13603TIP3   OH262223   0.565   1.667  13.220  0.0106 -0.2896  0.1777
13603TIP3    H162224   0.612   1.715  13.288 -0.9026  0.4972  0.2674
13603TIP3    H262225   0.518   1.598  13.266 -3.1676  2.1834  0.8129
13604TIP3   OH262226   5.243   6.487   2.520 -0.2838 -0.6678  0.0765
13604TIP3    H162227   5.272   6.407   2.566  0.4223  0.3383  1.4201
13604TIP3    H262228   5.305   6.496   2.448  1.0267 -0.1218  1.2372
13605TIP3   OH262229   3.270   2.434  13.923  0.0132 -0.0399 -0.6890
13605TIP3    H162230   3.299   2.436  13.832 -2.1641  0.7034 -1.3968
13605TIP3    H262231   3.286   2.344  13.951 -0.5023 -0.6340 -2.2276
13606TIP3   OH262232   0.763   6.283  16.098 -0.5474  0.5104 -0.1776
13606TIP3    H162233   0.720   6.360  16.134  0.2993  0.7865  0.2655
13606TIP3    H262234   0.761   6.219  16.170  0.3904  0.7657  0.0769
13607TIP3   OH262235   5.337   2.360  14.826  0.4407 -0.2718 -0.2113
13607TIP3    H162236   5.259   2.414  14.818  0.1719 -0.7900 -1.0661
13607TIP3    H262237   5.353   2.327  14.738  3.0017  1.7497 -0.5713
13608TIP3   OH262238   1.692   5.006   1.845  0.6041  0.6536  0.2270
13608TIP3    H162239   1.776   4.987   1.887 -0.3960 -1.8432  1.1949
13608TIP3    H262240   1.680   5.100   1.856  2.9958  0.9435  0.5857
13609TIP3   OH262241   3.962   3.927   3.843  0.3899  0.0675  0.1728
13609TIP3    H162242   4.003   4.002   3.798  2.7906 -0.9421  0.5806
13609TIP3    H262243   3.901   3.891   3.778  0.0503  1.6793 -0.4330
13610TIP3   OH262244   0.416   1.122   5.258  0.2688  0.2484 -0.1102
13610TIP3    H162245   0.324   1.135   5.235 -0.4436 -1.4770  1.6262
13610TIP3    H262246   0.438   1.196   5.314 -0.0677  0.6700 -0.5342
13611TIP3   OH262247   2.784   4.575  13.478 -0.2391  0.4847 -0.7077
13611TIP3    H162248   2.784   4.501  13.539  1.2735 -0.0055 -1.2971
13611TIP3    H262249   2.850   4.553  13.413  0.8809  2.7492 -0.3911
13612TIP3   OH262250   3.203   4.121   5.085 -0.2008  0.1482  0.0790
13612TIP3    H162251   3.243   4.201   5.052 -0.3755 -0.3711 -1.4087
13612TIP3    H262252   3.271   4.080   5.137 -0.3731  1.6601  1.5485
13613TIP3   OH262253   1.852   6.541   5.300  0.1685  0.4424 -0.6214
13613TIP3    H162254   1.905   6.491   5.362 -0.8849 -0.9364 -0.8105
13613TIP3    H262255   1.863   6.495   5.217  1.5399  2.2561 -1.4712
13614TIP3   OH262256   0.014   1.595   4.290 -0.0610 -0.4373 -0.5523
13614TIP3    H162257   0.074   1.608   4.217 -0.6353  1.5402 -0.6932
13614TIP3    H262258  -0.068   1.568   4.248  0.3728 -2.0272 -0.4299
13615TIP3   OH262259   3.466   1.146   6.144  0.5629  0.2984 -0.0727
13615TIP3    H162260   3.472   1.070   6.201  0.7902 -0.4683 -1.1151
13615TIP3    H262261   3.488   1.220   6.200 -1.6000 -0.1622  1.4616
13616TIP3   OH262262   0.405   2.246  15.827 -0.7761  0.6007 -0.2608
13616TIP3    H162263   0.316   2.277  15.844 -1.2852 -1.0056  0.0328
13616TIP3    H262264   0.460   2.324  15.838 -2.2304  1.7937 -1.2766
13617TIP3   OH262265   0.355   6.260  13.206  0.0070  0.2192  0.2509
13617TIP3    H162266   0.418   6.210  13.154 -0.2121  1.2219 -0.9961
13617TIP3    H262267   0.403   6.338  13.235 -0.0485 -0.0422  1.0763
13618TIP3   OH262268   4.646   3.423  16.707  0.3150 -0.2060  0.5524
13618TIP3    H162269   4.559   3.400  16.741  0.8855  0.2099  2.3538
13618TIP3    H262270   4.633   3.505  16.660 -0.5539 -0.9459 -0.5168
13619TIP3   OH262271   1.169   5.734   2.255  0.2522 -0.3366 -0.4424
13619TIP3    H162272   1.203   5.647   2.277  0.3180 -0.3341 -0.5368
13619TIP3    H262273   1.163   5.779   2.339 -2.4572 -1.3782 -0.0409
13620TIP3   OH262274   6.408   2.925  13.498  0.1662  0.2828 -0.2890
13620TIP3    H162275   6.343   2.930  13.568  1.0287 -0.4707  0.5912
13620TIP3    H262276   6.485   2.969  13.534  0.1457  1.2024 -1.3368
13621TIP3   OH262277   6.129   6.261  14.334  0.4684  0.5229 -0.0921
13621TIP3    H162278   6.046   6.290  14.371 -1.1895  0.2417 -3.3625
13621TIP3    H262279   6.146   6.177  14.377  0.2033  1.5843  2.1634
13622TIP3   OH262280   6.152   1.831   4.562  0.0853 -0.6972  0.3064
13622TIP3    H162281   6.247   1.827   4.560  0.0988 -0.0239 -1.7848
13622TIP3    H262282   6.130   1.905   4.505 -1.6253  0.3743  2.3030
13623TIP3   OH262283   1.836   3.605  11.197  0.1119 -0.2557  0.2206
13623TIP3    H162284   1.889   3.527  11.214 -0.7319 -1.2166 -1.4217
13623TIP3    H262285   1.849   3.622  11.104 -1.1356  0.4944  0.1807
13624TIP3   OH262286   3.344   5.301   5.402 -0.3226 -0.4072  0.1114
13624TIP3    H162287   3.363   5.326   5.492 -1.6746  4.0715 -0.7187
13624TIP3    H262288   3.423   5.325   5.353 -0.9238  0.4953 -0.4275
13625TIP3   OH262289   3.485   3.897   3.280  0.5120 -0.4369  0.0555
13625TIP3    H162290   3.402   3.897   3.232  0.2761 -1.5048  0.4619
13625TIP3    H262291   3.481   3.976   3.334 -0.3844 -0.6756  0.3415
13626TIP3   OH262292   3.850   2.061  14.808  0.0898 -0.2623  0.3363
13626TIP3    H162293   3.812   1.994  14.865 -0.1188  0.3884  0.9705
13626TIP3    H262294   3.776   2.116  14.782  0.3621  0.1371  0.3950
13627TIP3   OH262295   4.464   5.796   3.639 -0.4045  0.3349  0.2997
13627TIP3    H162296   4.556   5.815   3.622 -0.3004  0.1336  0.6159
13627TIP3    H262297   4.434   5.867   3.696 -0.0879 -0.2891  1.2648
13628TIP3   OH262298   6.232   4.088   0.164 -0.4812  0.0972  0.1034
13628TIP3    H162299   6.318   4.052   0.141  0.1730  0.6137  1.6950
13628TIP3    H262300   6.239   4.182   0.148 -0.9240  0.0727 -0.2597
13629TIP3   OH262301   2.037   0.513   2.789 -0.0992 -0.4012  0.1316
13629TIP3    H162302   1.959   0.471   2.752  0.8407 -1.4093 -0.7259
13629TIP3    H262303   2.046   0.473   2.876 -2.4822  2.1936  1.6784
13630TIP3   OH262304   0.559   5.913  17.035 -0.1802  0.1813 -0.4706
13630TIP3    H162305   0.525   5.996  17.069 -1.8379 -0.6782  0.0555
13630TIP3    H262306   0.645   5.905  17.075 -0.1146  1.5215 -0.3108
13631TIP3   OH262307   2.166   2.080  15.063 -0.2233 -0.0067  0.0629
13631TIP3    H162308   2.153   2.070  14.969  4.8364 -0.0148 -0.7522
13631TIP3    H262309   2.214   2.002  15.090  1.8257  1.7728  1.8178
13632TIP3   OH262310   1.717   4.462   1.404 -0.0209  0.3429 -0.3067
13632TIP3    H162311   1.738   4.536   1.348  0.4979  0.9014  0.6178
13632TIP3    H262312   1.666   4.499   1.476 -1.4808 -0.5192 -0.8862
13633TIP3   OH262313   0.210   3.693  14.989 -0.1314 -0.0905  0.1837
13633TIP3    H162314   0.253   3.752  15.050 -2.7425 -0.0800  2.1102
13633TIP3    H262315   0.149   3.749  14.940 -0.0342 -0.5798 -0.5152
13634TIP3   OH262316   6.544   1.964  16.768  0.4172  0.0907  0.0325
13634TIP3    H162317   6.569   1.883  16.723  2.1318  0.3382  0.5228
13634TIP3    H262318   6.482   2.006  16.708  0.7530 -0.7971 -0.9599
13635TIP3   OH262319   1.151   5.989   1.682  0.1125 -0.3372  0.2186
13635TIP3    H162320   1.186   6.073   1.653 -0.1479  0.1022  1.1451
13635TIP3    H262321   1.057   5.997   1.668 -0.2124  0.4831  2.5960
13636TIP3   OH262322   6.398   6.215   1.194  0.1363 -0.5315 -0.2360
13636TIP3    H162323   6.428   6.265   1.119  1.6996 -0.9606  0.0938
13636TIP3    H262324   6.333   6.272   1.236 -0.5376 -0.1767 -1.7275
13637TIP3   OH262325   4.895   6.639   3.696  0.0279  0.7424  0.3224
13637TIP3    H162326   4.825   6.577   3.676 -0.1552  0.8115  0.7467
13637TIP3    H262327   4.975   6.591   3.677 -0.0750 -0.0549  1.8495
13638TIP3   OH262328   0.667   1.606  14.213  0.0840  0.1884 -0.4156
13638TIP3    H162329   0.627   1.609  14.299 -0.0744 -1.8958 -0.3842
13638TIP3    H262330   0.740   1.667  14.218 -1.9376  2.6758  0.0985
13639TIP3   OH262331   3.249   2.765   1.124 -0.3922 -0.3076 -0.2931
13639TIP3    H162332   3.239   2.674   1.096  0.1382 -0.3856 -0.2353
13639TIP3    H262333   3.168   2.808   1.095 -0.8969 -0.9194  0.1993
13640TIP3   OH262334   2.509   6.540   4.442 -0.4258  0.3061  0.2381
13640TIP3    H162335   2.485   6.468   4.500  0.4513  0.5607  0.9297
13640TIP3    H262336   2.588   6.510   4.398 -0.1218  0.7953  0.4455
13641TIP3   OH262337   2.808   1.284   2.032 -0.3200 -0.1075  0.2956
13641TIP3    H162338   2.745   1.273   1.960  0.5277 -0.3150 -0.4249
13641TIP3    H262339   2.754   1.306   2.108 -1.1745  0.7667 -0.5520
13642TIP3   OH262340   3.626   4.160  13.249 -0.1884 -0.2975 -0.3588
13642TIP3    H162341   3.620   4.244  13.294  2.2116  0.2841 -1.0346
13642TIP3    H262342   3.669   4.181  13.166 -1.0358 -1.9491 -1.2424
13643TIP3   OH262343   1.571   1.527   5.406  0.1192 -0.3569 -0.4495
13643TIP3    H162344   1.604   1.447   5.447 -2.8554 -0.8906  1.0695
13643TIP3    H262345   1.572   1.592   5.477  0.8998  0.4773 -1.2232
13644TIP3   OH262346   6.170   4.798   0.304 -0.1773 -0.0119 -0.0020
13644TIP3    H162347   6.146   4.876   0.353 -1.2543 -0.3412  0.0071
13644TIP3    H262348   6.265   4.796   0.308 -0.0805  1.8009 -0.7753
13645TIP3   OH262349   3.127   6.104   2.574  0.5699 -0.0008  0.4400
13645TIP3    H162350   3.159   6.192   2.553  1.4895 -0.1756  1.0569
13645TIP3    H262351   3.200   6.046   2.552 -0.5629 -0.7770 -1.3646
13646TIP3   OH262352   3.346   5.292   1.459  0.2709 -0.1111  0.0299
13646TIP3    H162353   3.414   5.303   1.526  1.1833 -1.6919 -0.6088
13646TIP3    H262354   3.310   5.205   1.475  1.5277 -1.1278 -2.4470
13647TIP3   OH262355   5.831   6.065  14.715 -0.5117 -0.0455  0.8191
13647TIP3    H162356   5.750   6.063  14.664 -0.5899  0.4444  0.9270
13647TIP3    H262357   5.812   6.011  14.791 -1.5725  2.0643  2.0971
13648TIP3   OH262358   3.480   0.753  15.131  0.5161 -0.2075  0.0267
13648TIP3    H162359   3.510   0.736  15.221  0.1264 -0.2186  0.1575
13648TIP3    H262360   3.496   0.671  15.084  1.1926 -0.0340 -0.0416
13649TIP3   OH262361   0.094   6.561  17.065 -0.2095 -0.6285 -0.6260
13649TIP3    H162362   0.140   6.506  17.128 -0.8748 -1.2008 -0.6301
13649TIP3    H262363   0.010   6.517  17.052 -0.3856 -0.0964 -1.3217
13650TIP3   OH262364   6.485   5.090  15.480 -0.5209  0.1358  0.5382
13650TIP3    H162365   6.565   5.047  15.511  0.1756  1.4032  0.5229
13650TIP3    H262366   6.418   5.064  15.543 -0.3855 -1.9008 -0.1124
13651TIP3   OH262367   4.020   2.375  10.627 -0.3335  0.3656 -0.0066
13651TIP3    H162368   4.045   2.286  10.653  0.8637  0.3843 -1.0203
13651TIP3    H262369   4.072   2.432  10.683  0.7357  0.4063 -1.0122
13652TIP3   OH262370   2.608   1.780  15.009  0.2594 -1.1441  0.3833
13652TIP3    H162371   2.608   1.686  14.992 -0.5944 -1.1719  0.5328
13652TIP3    H262372   2.543   1.815  14.948  1.4567 -0.4881 -0.5379
13653TIP3   OH262373   4.959   5.054   6.487  0.2905 -0.3923 -0.1829
13653TIP3    H162374   4.988   5.022   6.572  1.2492  2.3573  0.5452
13653TIP3    H262375   4.889   5.116   6.506  0.1287 -0.1659 -1.4416
13654TIP3   OH262376   4.325   1.059   1.604  0.1282  0.6128 -0.0890
13654TIP3    H162377   4.336   1.142   1.650  0.6573  0.1177  0.6957
13654TIP3    H262378   4.322   0.994   1.674  1.6003 -0.2264 -0.7852
13655TIP3   OH262379   5.139   5.608  16.315 -0.2830 -1.1355  0.3106
13655TIP3    H162380   5.104   5.573  16.233  2.8565 -0.5127 -1.3952
13655TIP3    H262381   5.144   5.702  16.300 -0.9983 -0.8639  1.7574
13656TIP3   OH262382   4.996   3.665   5.442 -0.0969  0.3115  0.2238
13656TIP3    H162383   4.921   3.670   5.383  1.3405  0.3597 -1.6407
13656TIP3    H262384   4.960   3.628   5.523 -2.2009  0.7044 -0.4928
13657TIP3   OH262385   0.531   4.857  12.089  0.0692  0.1882 -0.3270
13657TIP3    H162386   0.443   4.819  12.093 -0.0200  0.4700  0.5006
13657TIP3    H262387   0.544   4.879  11.997 -0.2753 -0.9193 -0.6494
13658TIP3   OH262388   1.965   2.981   3.514 -0.2030 -1.2652  0.3279
13658TIP3    H162389   1.989   2.956   3.425 -2.4761 -0.1674 -0.6277
13658TIP3    H262390   1.929   2.900   3.552 -0.6342 -1.3545 -0.2619
13659TIP3   OH262391   4.756   3.130   1.171 -0.7827  0.5051 -0.1361
13659TIP3    H162392   4.722   3.168   1.251 -0.9372  0.3905 -0.1486
13659TIP3    H262393   4.797   3.204   1.125  2.1220  0.0140  1.5083
13660TIP3   OH262394   2.571   4.840  11.740  0.4655 -0.4083  0.1753
13660TIP3    H162395   2.537   4.875  11.658  2.4674  2.5704  0.5189
13660TIP3    H262396   2.594   4.749  11.720 -2.0475 -0.6761 -1.6313
13661TIP3   OH262397   2.516   0.787   6.937  0.1701  0.2658  1.1705
13661TIP3    H162398   2.600   0.829   6.919 -0.2596  1.7097  2.3842
13661TIP3    H262399   2.538   0.705   6.981  0.9367  0.8116  1.8026
13662TIP3   OH262400   1.907   1.291   1.215 -0.1479  0.2475 -0.3124
13662TIP3    H162401   1.894   1.379   1.178 -0.3817  0.2928 -0.1274
13662TIP3    H262402   1.827   1.274   1.264 -0.7825 -0.7351 -1.6629
13663TIP3   OH262403   4.008   0.101  14.388  0.1512  0.5177  0.1711
13663TIP3    H162404   4.099   0.120  14.411 -0.7762  0.9295  3.8473
13663TIP3    H262405   4.001   0.006  14.396 -0.1535  0.6521  1.7691
13664TIP3   OH262406   5.462   1.616   2.827  0.3655 -0.3610 -0.0715
13664TIP3    H162407   5.554   1.631   2.803  0.4804  0.5653  0.9316
13664TIP3    H262408   5.440   1.688   2.886 -0.8574 -0.8612  0.0975
13665TIP3   OH262409   4.050   6.475  16.571 -0.4692  0.0157 -0.2014
13665TIP3    H162410   3.966   6.468  16.527 -1.0717  0.4554  0.8646
13665TIP3    H262411   4.070   6.386  16.600  0.6285 -0.5731 -2.5730
13666TIP3   OH262412   6.092   0.656   6.555  0.8572 -0.3742  0.1653
13666TIP3    H162413   6.018   0.713   6.533  0.3272 -0.9639  0.3942
13666TIP3    H262414   6.165   0.716   6.572  0.6976  0.1763 -1.0439
13667TIP3   OH262415   2.784   2.896  14.606  0.1199 -0.3210 -0.6953
13667TIP3    H162416   2.856   2.955  14.587  0.3577 -0.5495 -0.5136
13667TIP3    H262417   2.775   2.842  14.528 -1.3767  1.2546 -1.6263
13668TIP3   OH262418   5.322   6.423  13.679  0.1220  0.1000  0.6857
13668TIP3    H162419   5.364   6.383  13.755  0.9127 -0.4237 -0.0256
13668TIP3    H262420   5.317   6.353  13.614 -1.9950  0.1090  0.8034
13669TIP3   OH262421   0.732   6.206   2.193  0.9846  0.1960  0.3741
13669TIP3    H162422   0.779   6.170   2.118  1.1686 -3.0864  1.9572
13669TIP3    H262423   0.741   6.301   2.184 -0.5278 -0.0120 -4.6494
13670TIP3   OH262424   0.219   2.568  12.840  0.2457 -0.1017 -0.6354
13670TIP3    H162425   0.273   2.497  12.805  0.3408 -0.3588  0.0103
13670TIP3    H262426   0.168   2.526  12.909  0.1579  0.4178 -0.3845
13671TIP3   OH262427   2.629   1.320   4.256  0.0109  0.2734 -0.7774
13671TIP3    H162428   2.696   1.344   4.321  0.2980 -2.4795  0.0109
13671TIP3    H262429   2.584   1.403   4.236  2.1257  1.7571  0.4084
13672TIP3   OH262430   0.985   3.587   4.617 -0.0004  0.5401 -0.3269
13672TIP3    H162431   0.899   3.625   4.635  0.9280  1.9294  1.2822
13672TIP3    H262432   1.010   3.545   4.699  2.1713  2.7662  0.2112
13673TIP3   OH262433   1.682   1.083  16.903  0.0167 -0.3483 -0.2089
13673TIP3    H162434   1.677   0.988  16.901  0.6778 -0.3763 -1.3183
13673TIP3    H262435   1.748   1.102  16.970 -0.2921 -0.6533  0.1878
13674TIP3   OH262436   2.219   2.961  16.205  0.3880 -0.3065  0.3818
13674TIP3    H162437   2.275   2.893  16.168  1.0747 -0.3757  1.5510
13674TIP3    H262438   2.224   2.948  16.300 -2.7236 -1.2469  0.4705
13675TIP3   OH262439   3.447   6.773   4.481 -0.2256  0.0221  0.0159
13675TIP3    H162440   3.395   6.844   4.442  1.3224  0.1610 -1.9030
13675TIP3    H262441   3.382   6.714   4.519 -1.8944 -0.1691 -2.9167
13676TIP3   OH262442   6.212   5.987  13.899 -0.0320 -0.1859  0.1418
13676TIP3    H162443   6.177   6.012  13.813  1.5249  0.7755 -0.2323
13676TIP3    H262444   6.220   5.892  13.894 -5.0569 -0.8049  1.2087
13677TIP3   OH262445   1.666   2.656  13.457  0.3996 -0.2364 -0.2199
13677TIP3    H162446   1.594   2.714  13.479  0.0743 -0.1701 -1.4264
13677TIP3    H262447   1.719   2.652  13.537 -2.2531 -2.3046  1.5391
13678TIP3   OH262448   0.715   4.494   2.650 -0.3711  0.0142 -0.0399
13678TIP3    H162449   0.686   4.556   2.583 -2.2275  1.0042  1.6013
13678TIP3    H262450   0.780   4.542   2.701  0.9116 -0.6769 -1.0170
13679TIP3   OH262451   3.778   3.949  10.564  0.1421  0.0950  0.3671
13679TIP3    H162452   3.837   3.874  10.553  0.2917  0.2103  0.3742
13679TIP3    H262453   3.835   4.026  10.555 -0.1056  0.2158 -0.2277
13680TIP3   OH262454   1.975   1.325  14.860  0.4326 -0.2586 -0.0584
13680TIP3    H162455   2.013   1.333  14.773  1.3969 -1.9125  0.1985
13680TIP3    H262456   1.977   1.231  14.879 -0.4268  0.0071  1.4555
13681TIP3   OH262457   6.568   0.683  13.039 -0.3477 -0.5736 -0.2285
13681TIP3    H162458   6.532   0.674  13.127 -1.9882 -2.1515 -1.0335
13681TIP3    H262459   6.534   0.767  13.008  0.0575 -0.1171  0.5681
13682TIP3   OH262460   1.036   1.236   3.382  0.4296  0.4838 -0.1226
13682TIP3    H162461   1.097   1.260   3.453 -1.6092  1.2242  1.4220
13682TIP3    H262462   0.989   1.159   3.416 -0.1513  0.4812 -0.9284
13683TIP3   OH262463   1.788   2.253  13.624  0.0400  0.0305 -0.2502
13683TIP3    H162464   1.779   2.295  13.538 -1.8356 -0.8510 -0.5061
13683TIP3    H262465   1.718   2.290  13.677  0.3593 -0.4175  0.5003
13684TIP3   OH262466   0.769   5.383  16.127 -0.2573 -0.7324 -0.5798
13684TIP3    H162467   0.839   5.446  16.145 -2.8291  2.7110 -2.1821
13684TIP3    H262468   0.792   5.343  16.044 -0.0478  0.2084 -0.9730
13685TIP3   OH262469   6.682   4.384  16.046 -0.0868 -0.4370 -0.2810
13685TIP3    H162470   6.636   4.341  15.974 -0.4969 -0.7397  0.1570
13685TIP3    H262471   6.635   4.466  16.060 -1.1072 -1.1993  0.8189
13686TIP3   OH262472   2.787   5.467  13.054  0.4361 -0.1053  0.2110
13686TIP3    H162473   2.809   5.549  13.009 -0.5832 -0.3334 -0.7245
13686TIP3    H262474   2.700   5.444  13.021  0.8326 -1.7219  0.2533
13687TIP3   OH262475   2.635   6.385  16.362  0.0823  0.2818  0.3982
13687TIP3    H162476   2.551   6.381  16.408 -0.3417 -1.1607 -0.4752
13687TIP3    H262477   2.680   6.304  16.389  0.8603  0.6596  0.2368
13688TIP3   OH262478   0.508   2.658  12.580  0.2564  0.7412  0.0428
13688TIP3    H162479   0.418   2.678  12.553  0.8825  1.4958 -1.5924
13688TIP3    H262480   0.562   2.722  12.533  1.6675  0.1293  0.7892
13689TIP3   OH262481   1.006   3.744   5.741 -0.2230  0.6538 -0.1834
13689TIP3    H162482   0.993   3.828   5.785 -0.3096  0.7096 -0.3159
13689TIP3    H262483   1.082   3.758   5.685  0.7376  0.1751  0.9812
13690TIP3   OH262484   3.400   4.923   2.487 -0.0346 -0.2041 -0.0284
13690TIP3    H162485   3.414   4.947   2.396  1.2236  1.3087  0.5361
13690TIP3    H262486   3.479   4.876   2.512 -0.5331 -0.9409  0.1926
13691TIP3   OH262487   4.815   5.973   0.378 -0.1122  0.4361 -0.4927
13691TIP3    H162488   4.758   5.947   0.305  0.0057 -1.0395 -0.0607
13691TIP3    H262489   4.855   5.891   0.408  0.8543  1.2190  0.3817
13692TIP3   OH262490   5.005   3.648   2.357 -0.2487  0.0571 -0.0159
13692TIP3    H162491   4.924   3.679   2.315  0.0190  1.4449  0.4752
13692TIP3    H262492   4.981   3.563   2.394 -0.8184 -0.6679 -1.9625
13693TIP3   OH262493   1.505   3.160   2.377 -0.4560 -0.1874 -0.6099
13693TIP3    H162494   1.592   3.196   2.360 -0.5969  0.4539 -0.0394
13693TIP3    H262495   1.521   3.088   2.438 -0.4946  1.1992  1.0861
13694TIP3   OH262496   2.846   2.423  11.568  0.1443 -0.7350  0.3865
13694TIP3    H162497   2.929   2.389  11.535  0.1669 -1.7851  1.5025
13694TIP3    H262498   2.781   2.359  11.537 -0.2051 -0.1206 -0.1608
13695TIP3   OH262499   5.228   5.867  16.286  0.0676 -0.5077  0.6209
13695TIP3    H162500   5.199   5.935  16.347 -1.7564  1.5382 -2.4101
13695TIP3    H262501   5.323   5.875  16.285  0.1418 -0.5249  3.0661
13696TIP3   OH262502   1.095   3.482   0.553  0.3783  0.0361  0.2877
13696TIP3    H162503   1.105   3.501   0.646  1.0192  2.5243 -0.2524
13696TIP3    H262504   1.029   3.413   0.550  1.1789 -0.8853  2.6433
13697TIP3   OH262505   2.786   6.590   2.959  0.2742  0.0405 -0.5587
13697TIP3    H162506   2.845   6.519   2.983  1.3480  0.7863 -0.9139
13697TIP3    H262507   2.809   6.610   2.868 -1.2249 -0.3264 -1.0269
13698TIP3   OH262508   0.287   0.253   5.056  0.0659 -0.0812 -0.1681
13698TIP3    H162509   0.360   0.228   5.000  0.4462 -0.0989  0.3367
13698TIP3    H262510   0.232   0.175   5.061 -0.3755  0.1505 -1.1405
13699TIP3   OH262511   0.040   3.997  13.841 -0.2998  0.6410 -0.3957
13699TIP3    H162512   0.065   3.980  13.932 -1.6635 -1.6732 -0.4096
13699TIP3    H262513   0.095   4.070  13.814  2.1237 -0.4557  1.4241
13700TIP3   OH262514   1.541   6.162   5.911  0.5607 -0.0326 -0.8281
13700TIP3    H162515   1.504   6.079   5.940 -0.4932 -0.0865 -2.2554
13700TIP3    H262516   1.508   6.227   5.973 -0.7103 -0.3104 -1.2096
13701TIP3   OH262517   5.548   1.679   4.322  0.2901  0.2094 -0.2372
13701TIP3    H162518   5.532   1.610   4.387  0.0732  0.4240 -0.0623
13701TIP3    H262519   5.472   1.736   4.329 -0.1931 -0.2799 -1.3448
13702TIP3   OH262520   3.028   5.212  16.919  0.6630 -0.2562 -0.4960
13702TIP3    H162521   2.977   5.132  16.932 -1.4428  1.3385  1.4183
13702TIP3    H262522   3.105   5.201  16.975  0.3342 -0.9189 -0.1745
13703TIP3   OH262523   6.501   4.009   5.172  0.4563 -0.4169 -0.3697
13703TIP3    H162524   6.595   4.027   5.179  0.3377 -0.1688  0.6756
13703TIP3    H262525   6.477   3.977   5.259 -0.5577  0.1105 -0.4597
13704TIP3   OH262526   3.402   3.454   2.991  0.3234  0.3890  0.1123
13704TIP3    H162527   3.356   3.476   3.072  0.4555  0.3665  0.1942
13704TIP3    H262528   3.333   3.433   2.929  0.2138  0.5660  0.1723
13705TIP3   OH262529   1.247   0.495  15.279 -0.0574 -0.5049 -0.4875
13705TIP3    H162530   1.243   0.591  15.280 -0.3905 -0.5231 -0.1005
13705TIP3    H262531   1.158   0.467  15.301  0.0818 -0.9048 -0.4366
13706TIP3   OH262532   0.037   1.861  16.656  0.0800 -0.2885  0.5257
13706TIP3    H162533   0.032   1.776  16.612  1.1139 -0.4717  0.7550
13706TIP3    H262534  -0.041   1.908  16.626 -0.6746 -1.4345  0.6450
13707TIP3   OH262535   6.063   1.997  12.761 -0.1161 -0.5685 -0.1964
13707TIP3    H162536   6.085   2.082  12.797  0.8611 -0.1017 -1.8517
13707TIP3    H262537   6.053   2.012  12.667  0.2686 -2.3182 -0.5421
13708TIP3   OH262538   3.682   4.196  16.148  0.0827  0.2202 -0.4606
13708TIP3    H162539   3.675   4.197  16.052  2.0008 -0.0340 -0.6133
13708TIP3    H262540   3.652   4.284  16.174 -1.9506 -0.2317 -1.1505
13709TIP3   OH262541   3.571   1.038   2.884 -0.0809  0.3602 -0.2167
13709TIP3    H162542   3.536   1.103   2.945 -0.6198  0.0979 -0.2465
13709TIP3    H262543   3.622   0.979   2.939 -0.8511 -0.0785  0.0370
13710TIP3   OH262544   2.971   4.288  14.458  0.2119  0.2116  0.1918
13710TIP3    H162545   2.930   4.365  14.417  0.8684  0.2938 -0.3218
13710TIP3    H262546   3.063   4.294  14.433  0.6405  0.2797  1.7397
13711TIP3   OH262547   1.144   1.548  14.874  0.3274 -0.3450 -0.3180
13711TIP3    H162548   1.233   1.513  14.867  1.1853  1.4640  1.0000
13711TIP3    H262549   1.130   1.559  14.968 -1.1653 -0.2823 -0.5364
13712TIP3   OH262550   4.021   3.412  11.464 -0.1448  0.8331 -0.6814
13712TIP3    H162551   4.054   3.413  11.554 -0.5514 -0.7810 -0.4882
13712TIP3    H262552   4.092   3.449  11.412  1.5568 -1.4542 -0.1149
13713TIP3   OH262553   0.679   1.720   4.573 -0.2059  0.7374  0.2773
13713TIP3    H162554   0.705   1.659   4.504  1.3656 -0.0792  1.5439
13713TIP3    H262555   0.662   1.802   4.528  1.7175  0.4762 -0.9966
13714TIP3   OH262556   6.332   2.962  17.061  0.2602  0.0057  0.7140
13714TIP3    H162557   6.251   2.912  17.056  0.1648  0.1798  0.5131
13714TIP3    H262558   6.327   3.024  16.988  2.0323 -2.1248 -1.2789
13715TIP3   OH262559   5.466   5.507  13.396 -0.3137 -0.4098 -0.0509
13715TIP3    H162560   5.478   5.419  13.361  0.2963  0.3207 -1.7534
13715TIP3    H262561   5.373   5.525  13.385 -0.3028 -0.5582 -0.4020
13716TIP3   OH262562   1.675   5.205  15.735 -0.3157 -0.5124 -0.1241
13716TIP3    H162563   1.747   5.239  15.682  0.3797  0.0353  1.1403
13716TIP3    H262564   1.597   5.242  15.695  0.2323  0.2980 -0.4722
13717TIP3   OH262565   3.223   6.254  16.224 -0.4864  0.2599  0.4953
13717TIP3    H162566   3.259   6.210  16.301 -0.2546 -0.3666  0.0337
13717TIP3    H262567   3.251   6.200  16.150  0.4087  1.5662 -0.1437
13718TIP3   OH262568   5.135   4.122   0.203  0.2715  0.0403  0.4390
13718TIP3    H162569   5.072   4.164   0.262  0.8145  0.2487  0.8758
13718TIP3    H262570   5.212   4.106   0.258  0.8435  0.3749 -0.2538
13719TIP3   OH262571   2.415   5.312   0.632 -0.3901 -0.0319 -0.1731
13719TIP3    H162572   2.403   5.276   0.720  0.8791  0.6269  0.2823
13719TIP3    H262573   2.492   5.266   0.598  0.0529  0.8128 -0.3395
13720TIP3   OH262574   3.224   0.551  15.936  0.2253  0.5170 -0.6643
13720TIP3    H162575   3.210   0.468  15.982 -0.3334  0.8058 -0.3077
13720TIP3    H262576   3.202   0.532  15.845 -0.5242  0.4314 -0.4735
13721TIP3   OH262577   1.792   4.127   1.538 -0.1014 -0.2382 -0.2895
13721TIP3    H162578   1.716   4.175   1.570  0.2660  1.0517 -1.3286
13721TIP3    H262579   1.757   4.043   1.508 -1.1164  0.3526 -0.7681
13722TIP3   OH262580   4.008   6.161  13.698 -0.4742  0.1837  0.5646
13722TIP3    H162581   3.977   6.161  13.789  1.3913 -0.2456  1.2174
13722TIP3    H262582   4.097   6.195  13.703 -0.7854  1.3431 -1.2846
13723TIP3   OH262583   5.608   5.497   4.422  0.1660  0.3741  0.1782
13723TIP3    H162584   5.514   5.513   4.417  0.0440 -0.4039 -0.1326
13723TIP3    H262585   5.647   5.563   4.364 -0.3692 -0.8065 -1.5583
13724TIP3   OH262586   6.683   3.643   3.296  0.1646  0.2572  0.1414
13724TIP3    H162587   6.684   3.611   3.206 -0.7665 -1.0807  0.5873
13724TIP3    H262588   6.617   3.712   3.296  0.2631  0.3501 -0.2308
13725TIP3   OH262589   0.444   1.939   2.476 -0.0046  0.1372 -0.0382
13725TIP3    H162590   0.467   1.905   2.563  0.1992  2.2550  0.7581
13725TIP3    H262591   0.348   1.937   2.475 -0.0019 -0.2489  0.0771
13726TIP3   OH262592   5.299   2.683   1.007  0.4662 -0.4230 -0.0635
13726TIP3    H162593   5.228   2.735   0.971  0.0372  1.3235  3.1023
13726TIP3    H262594   5.256   2.605   1.042  0.0119  0.7995  2.1702
13727TIP3   OH262595   4.722   0.345   3.599 -0.0299  0.5702 -0.1443
13727TIP3    H162596   4.750   0.407   3.531  2.2757 -0.7016 -0.3897
13727TIP3    H262597   4.768   0.373   3.677  1.7142 -1.3427 -0.4656
13728TIP3   OH262598   0.528   5.678  11.071 -0.3476 -0.4066 -0.0997
13728TIP3    H162599   0.581   5.629  11.008 -0.2396 -0.1232 -0.2305
13728TIP3    H262600   0.569   5.660  11.156 -0.4370 -0.7134 -0.1209
13729TIP3   OH262601   5.868   2.110   4.095 -0.2884 -0.4535 -0.3077
13729TIP3    H162602   5.829   2.029   4.063  0.3749 -0.8192 -0.1929
13729TIP3    H262603   5.961   2.091   4.104 -0.4738 -0.4049  1.9498
13730TIP3   OH262604   1.240   4.012  16.756 -0.5981 -0.2202  0.2287
13730TIP3    H162605   1.223   3.975  16.670 -0.7184  0.4027 -0.0239
13730TIP3    H262606   1.298   3.949  16.799  0.9023  0.3207 -0.9661
13731TIP3   OH262607   1.493   2.442  16.861 -0.4904 -0.3442  0.0505
13731TIP3    H162608   1.409   2.486  16.866 -0.6067 -0.6724  1.0702
13731TIP3    H262609   1.501   2.415  16.769 -0.8414  0.9423 -0.3642
13732TIP3   OH262610   4.080   0.424  16.189 -0.0715  0.5987 -0.0640
13732TIP3    H162611   4.041   0.349  16.234  0.6767  0.9519  1.2303
13732TIP3    H262612   4.008   0.484  16.174 -0.6269 -0.2523 -0.8584
13733TIP3   OH262613   4.106   4.121   0.190 -0.7175  0.5184  0.3572
13733TIP3    H162614   4.110   4.174   0.270  1.3296 -1.8338  1.8600
13733TIP3    H262615   4.191   4.136   0.147 -1.0624  0.2850 -0.4186
13734TIP3   OH262616   5.012   4.074   3.143 -0.0958  0.0653 -0.1265
13734TIP3    H162617   5.097   4.098   3.180  2.2717 -2.8831 -3.2659
13734TIP3    H262618   4.990   3.990   3.185  0.2002 -0.8147 -1.6746
13735TIP3   OH262619   4.537   6.191   4.938  0.2755  0.1410  0.0697
13735TIP3    H162620   4.624   6.194   4.977 -0.0713  0.1790  0.8510
13735TIP3    H262621   4.515   6.098   4.936  0.1742  0.1612  0.2312
13736TIP3   OH262622   2.500   3.662   2.476  0.7649 -0.6306 -0.5909
13736TIP3    H162623   2.444   3.702   2.542  0.4972 -2.6248  0.4067
13736TIP3    H262624   2.443   3.601   2.429  1.3360 -0.3719 -1.6429
13737TIP3   OH262625   3.733   3.407  13.400 -0.0430 -0.0454 -0.4604
13737TIP3    H162626   3.788   3.376  13.473 -1.1630 -1.2265 -0.0933
13737TIP3    H262627   3.736   3.502  13.407  1.8871 -0.0715 -0.4041
13738TIP3   OH262628   0.419   2.243  12.915 -0.3349 -0.2538 -0.1148
13738TIP3    H162629   0.440   2.331  12.948  1.0774 -0.6179 -0.0078
13738TIP3    H262630   0.484   2.186  12.957 -0.9461 -1.2756 -0.5534
13739TIP3   OH262631   1.583   1.724   3.605 -0.4455  0.1333  0.1048
13739TIP3    H162632   1.498   1.757   3.576 -0.2591 -0.7044 -1.4363
13739TIP3    H262633   1.566   1.687   3.691 -0.8603  3.3333  1.4635
13740TIP3   OH262634   3.731   0.427  15.225 -0.2745  0.7030  0.4386
13740TIP3    H162635   3.745   0.522  15.223  1.2132  0.5069  1.4257
13740TIP3    H262636   3.767   0.399  15.309  2.0523 -1.1442 -1.1183
13741TIP3   OH262637   2.094   0.933   3.449 -0.1007 -0.3831 -0.4465
13741TIP3    H162638   2.091   0.910   3.356  1.3846 -0.4241 -0.4916
13741TIP3    H262639   2.139   1.018   3.451 -1.0357  0.1148  0.1569
13742TIP3   OH262640   1.076   1.271   1.431  0.2273  0.3768 -0.3527
13742TIP3    H162641   1.153   1.294   1.379  0.1844  1.6026  0.1238
13742TIP3    H262642   1.002   1.302   1.379  0.1290  0.5964 -0.0816
13743TIP3   OH262643   5.837   3.315   3.355  0.7434  0.5739 -0.5264
13743TIP3    H162644   5.760   3.366   3.382  1.1052  1.4725 -1.1571
13743TIP3    H262645   5.910   3.356   3.400  0.3543 -3.3018  4.0249
13744TIP3   OH262646   6.710   3.734   2.018 -0.1386 -0.0624  0.7289
13744TIP3    H162647   6.735   3.747   2.110 -1.9003  1.3980  1.0200
13744TIP3    H262648   6.618   3.710   2.021 -0.5701  1.3284 -0.7322
13745TIP3   OH262649   4.692   5.641  12.348 -0.0131  0.2092  0.5296
13745TIP3    H162650   4.717   5.621  12.439  1.1997 -0.4698  0.0569
13745TIP3    H262651   4.717   5.733  12.336 -1.4058  0.7057  1.2876
13746TIP3   OH262652   2.578   4.759   0.094 -0.2490  0.0907 -0.0223
13746TIP3    H162653   2.533   4.684   0.133 -0.1113  0.1961  0.3386
13746TIP3    H262654   2.651   4.776   0.153  0.8671 -0.7244 -1.1591
13747TIP3   OH262655   2.924   6.145   2.055 -0.2796  0.3248  0.4304
13747TIP3    H162656   2.842   6.167   2.011  0.3917  2.7950  0.3342
13747TIP3    H262657   2.992   6.173   1.994  0.6380  0.5177  1.5401
13748TIP3   OH262658   2.869   4.547   5.953  0.0507  0.1843 -0.0450
13748TIP3    H162659   2.890   4.456   5.932  0.0618  0.6522 -2.1261
13748TIP3    H262660   2.884   4.554   6.048  0.6107 -1.8165  0.0249
13749TIP3   OH262661   6.162   5.763   2.207 -0.4216  0.0153  0.1141
13749TIP3    H162662   6.102   5.823   2.251  1.0881 -0.2679  2.6174
13749TIP3    H262663   6.203   5.817   2.139  1.1773  1.9877  2.5493
13750TIP3   OH262664   5.853   2.385  12.809  0.4739 -0.2375 -0.4138
13750TIP3    H162665   5.934   2.334  12.813  0.7054  0.1322 -0.4171
13750TIP3    H262666   5.861   2.438  12.730 -0.1488 -0.8272 -0.8816
13751TIP3   OH262667   0.343   4.111  16.693 -0.7560 -0.3092 -0.0017
13751TIP3    H162668   0.296   4.168  16.754  0.5277 -1.1633  1.8134
13751TIP3    H262669   0.365   4.168  16.620  0.9426  1.7050  2.0120
13752TIP3   OH262670   5.403   6.474   0.709  0.0909 -0.0512  0.3847
13752TIP3    H162671   5.406   6.397   0.652 -0.6864 -0.4831  0.9137
13752TIP3    H262672   5.327   6.459   0.765 -1.1332  1.9773 -0.7030
13753TIP3   OH262673   4.849   0.543   3.439  0.3148 -0.4041 -0.2078
13753TIP3    H162674   4.930   0.578   3.477  0.9309 -2.0662  0.0300
13753TIP3    H262675   4.877   0.497   3.360 -0.5278 -0.1420 -0.6648
13754TIP3   OH262676   6.543   1.054  12.711 -0.1504  0.3189 -0.2482
13754TIP3    H162677   6.601   1.103  12.768 -1.0685  0.0684  0.9234
13754TIP3    H262678   6.502   1.120  12.656 -0.4726  0.7442  0.4916
13755TIP3   OH262679   2.673   1.073   5.880  0.2642  0.3277  0.0843
13755TIP3    H162680   2.588   1.053   5.842  0.3407  0.0177  0.0718
13755TIP3    H262681   2.736   1.039   5.816  0.3902 -1.0195  0.9080
13756TIP3   OH262682   4.534   1.707  13.935  0.1565  0.5697 -0.1500
13756TIP3    H162683   4.467   1.752  13.986 -0.9044 -0.4813 -0.5943
13756TIP3    H262684   4.605   1.771  13.927  0.1529  0.8976  2.2249
13757TIP3   OH262685   4.518   3.466   1.034 -0.5116 -0.5073 -0.0903
13757TIP3    H162686   4.454   3.479   1.104 -1.1996 -0.0172 -0.8136
13757TIP3    H262687   4.511   3.544   0.980  1.6615  0.1768  0.5818
13758TIP3   OH262688   2.375   6.085   0.020  0.6546 -0.2304 -0.3427
13758TIP3    H162689   2.358   6.088   0.115  2.1990  0.1496 -0.0643
13758TIP3    H262690   2.374   5.991  -0.001 -1.2306 -0.2576 -0.2623
13759TIP3   OH262691   4.178   3.228  15.347  0.7725  0.1298  0.6143
13759TIP3    H162692   4.186   3.275  15.430  2.3306 -2.5113  2.0239
13759TIP3    H262693   4.266   3.194  15.330 -0.7196 -4.0252  0.7438
13760TIP3   OH262694   2.268   0.449  11.253  0.0548 -0.3349  0.1316
13760TIP3    H162695   2.181   0.477  11.224  1.0458  2.2108 -0.5404
13760TIP3    H262696   2.309   0.413  11.175 -0.3306 -1.3540  0.4012
13761TIP3   OH262697   3.466   4.082  11.691 -0.5168  0.7708  0.4543
13761TIP3    H162698   3.407   4.073  11.616  1.6922  0.6934 -1.3365
13761TIP3    H262699   3.452   4.172  11.722  0.1342  1.5857 -1.4949
13762TIP3   OH262700   2.485   5.316  12.079  0.2149  0.6631 -0.2002
13762TIP3    H162701   2.456   5.279  12.162 -3.3890  1.4546 -1.0089
13762TIP3    H262702   2.476   5.245  12.016  1.8393  0.4020 -0.1674
13763TIP3   OH262703   2.762   3.788  13.064 -0.0676  0.9389  0.0597
13763TIP3    H162704   2.831   3.845  13.029  1.4870 -1.4516 -0.8311
13763TIP3    H262705   2.800   3.750  13.143 -1.1835  1.2458  0.7565
13764TIP3   OH262706   6.327   1.036  13.231  0.0453 -0.1325  0.5811
13764TIP3    H162707   6.314   1.094  13.307 -0.7428 -0.5216  0.7458
13764TIP3    H262708   6.326   0.948  13.268  0.2810 -0.2978  0.1964
13765TIP3   OH262709   3.122   0.349  13.843 -0.3363  0.1418  0.8988
13765TIP3    H162710   3.217   0.357  13.851 -0.1343  3.4090 -3.0189
13765TIP3    H262711   3.109   0.259  13.812  1.6156  0.1126  0.0765
13766TIP3   OH262712   4.696   2.190  12.486 -0.0641  0.1237 -0.5104
13766TIP3    H162713   4.694   2.228  12.399  0.9411 -0.6318 -0.8775
13766TIP3    H262714   4.765   2.237  12.532 -0.7914  0.7221 -0.0239
13767TIP3   OH262715   3.687   0.989  14.607 -0.5140 -0.0999 -0.3875
13767TIP3    H162716   3.644   0.964  14.525 -0.1632  0.3427 -0.7092
13767TIP3    H262717   3.616   0.995  14.670 -0.5939 -2.1136 -0.2408
13768TIP3   OH262718   0.569   4.148   4.697 -0.1538  0.1789  0.1611
13768TIP3    H162719   0.530   4.182   4.616 -0.6728  1.8929  1.1185
13768TIP3    H262720   0.654   4.190   4.701 -0.3523  0.5155  0.7904
13769TIP3   OH262721   1.270   1.376   4.801  0.3541  0.3747  0.0450
13769TIP3    H162722   1.220   1.372   4.720  0.2044  0.3014  0.1413
13769TIP3    H262723   1.301   1.287   4.815 -0.2654  0.2284  0.4750
13770TIP3   OH262724   0.666   1.274   4.630  0.8943 -0.6564 -0.5546
13770TIP3    H162725   0.624   1.316   4.555  0.3659 -1.7113 -0.8505
13770TIP3    H262726   0.668   1.342   4.698  0.1179 -0.1306 -1.0587
13771TIP3   OH262727   2.537   2.650   0.255 -0.4367  0.1848  0.1626
13771TIP3    H162728   2.454   2.621   0.293 -2.7321  2.4945 -2.8260
13771TIP3    H262729   2.544   2.602   0.173  1.6013 -0.5644  0.7564
13772TIP3   OH262730   0.558   5.744   0.965  0.0381 -0.1732 -0.5947
13772TIP3    H162731   0.497   5.810   0.997 -0.6085 -1.5227  1.0342
13772TIP3    H262732   0.536   5.734   0.872  0.7824  2.5528 -1.1205
13773TIP3   OH262733   3.944   1.271  15.067  0.3308  0.2455  0.3002
13773TIP3    H162734   3.853   1.301  15.059  0.1512 -0.4089 -0.2440
13773TIP3    H262735   3.942   1.182  15.030  1.3427  0.5044 -0.3883
13774TIP3   OH262736   5.782   3.609   0.746 -0.5943  0.0611 -0.2161
13774TIP3    H162737   5.845   3.597   0.674 -0.2057 -0.9111  0.2748
13774TIP3    H262738   5.825   3.670   0.806  0.6734 -1.9971  1.0115
13775TIP3   OH262739   1.514   0.536  15.825  0.2441  0.1353  0.2405
13775TIP3    H162740   1.434   0.487  15.807  0.1547 -0.4683  2.1610
13775TIP3    H262741   1.483   0.624  15.848  0.1691  0.0361  0.5174
13776TIP3   OH262742   3.389   0.455  12.021 -0.2490  0.0359 -0.0872
13776TIP3    H162743   3.420   0.370  11.990  0.0701 -0.4577  1.5533
13776TIP3    H262744   3.293   0.449  12.016 -0.2291 -0.4358  0.0675
13777TIP3   OH262745   3.753   0.583   5.515 -0.0427  0.0798 -0.0794
13777TIP3    H162746   3.806   0.633   5.453 -0.7425  0.9819  0.0265
13777TIP3    H262747   3.665   0.582   5.475 -0.8464  1.9256  1.5615
13778TIP3   OH262748   5.938   2.507  15.334 -0.2431 -0.1491  0.2324
13778TIP3    H162749   5.885   2.428  15.323 -0.4714  0.0987 -0.4453
13778TIP3    H262750   5.889   2.561  15.396 -1.4745  0.6840 -1.4279
13779TIP3   OH262751   4.235   3.750  14.311 -0.2219  0.5655  0.3229
13779TIP3    H162752   4.247   3.672  14.257  0.0623 -0.0101  1.2156
13779TIP3    H262753   4.274   3.727  14.395 -0.8287  1.4019  0.8325
13780TIP3   OH262754   5.548   1.862  16.909 -0.6690  0.1751 -0.3535
13780TIP3    H162755   5.610   1.901  16.971  0.3215 -0.4964 -0.9072
13780TIP3    H262756   5.519   1.781  16.951 -0.4355  0.0089 -0.5094
13781TIP3   OH262757   1.826   4.979   4.027  0.2358  0.6041 -0.0711
13781TIP3    H162758   1.762   4.910   4.043  2.0836 -0.8680  1.1436
13781TIP3    H262759   1.854   5.008   4.114  1.2129  1.2340 -0.5729
13782TIP3   OH262760   1.218   2.832  11.184 -0.5003  0.3857  0.5492
13782TIP3    H162761   1.302   2.853  11.143 -0.1764 -0.4146  0.7906
13782TIP3    H262762   1.156   2.895  11.147  0.0621  0.5122 -0.1720
13783TIP3   OH262763   5.319   1.690  15.015 -0.3146 -0.6856 -0.1361
13783TIP3    H162764   5.277   1.633  15.079  0.7045 -1.0591  0.2044
13783TIP3    H262765   5.368   1.631  14.957 -1.0653 -0.3366 -1.1488
13784TIP3   OH262766   3.812   6.579   2.729  0.1187 -0.1896  0.2254
13784TIP3    H162767   3.748   6.551   2.664  1.0856  0.2701 -0.9308
13784TIP3    H262768   3.834   6.498   2.776  0.4255 -0.7729 -0.9117
13785TIP3   OH262769   0.285   3.303  15.973  0.5864  0.4145 -0.6039
13785TIP3    H162770   0.372   3.282  15.940  1.2396  0.7433  0.8830
13785TIP3    H262771   0.277   3.254  16.055 -1.5899 -1.5746 -1.9173
13786TIP3   OH262772   5.626   6.250   6.365  0.1826 -0.0517 -0.5888
13786TIP3    H162773   5.543   6.217   6.330 -0.4947  0.7629  0.1955
13786TIP3    H262774   5.604   6.280   6.454  1.1566  0.8454 -0.6381
13787TIP3   OH262775   2.467   5.304  16.085  0.4027 -0.1266 -0.0709
13787TIP3    H162776   2.395   5.315  16.024  0.5428 -1.3346 -0.4739
13787TIP3    H262777   2.487   5.393  16.115 -0.4816  0.3403 -0.8304
13788TIP3   OH262778   0.530   3.884  14.367  0.0471 -0.0549 -0.2644
13788TIP3    H162779   0.444   3.861  14.400 -0.0451 -0.6038 -0.8746
13788TIP3    H262780   0.515   3.960  14.310 -0.1230 -0.5202 -0.8440
13789TIP3   OH262781   5.580   1.937  15.628 -0.2388  0.2159  0.4369
13789TIP3    H162782   5.617   1.880  15.695  0.1398  0.1820  0.2027
13789TIP3    H262783   5.617   2.023  15.646 -0.4252  0.2850  0.4946
13790TIP3   OH262784   6.337   3.055   3.783  0.0126  0.4131 -0.3523
13790TIP3    H162785   6.345   3.074   3.689 -0.0744 -1.3424 -0.7166
13790TIP3    H262786   6.291   2.972   3.787  1.2831 -0.2358  1.2388
13791TIP3   OH262787   5.376   4.641  16.538 -0.2680  0.0379  0.4018
13791TIP3    H162788   5.310   4.659  16.471 -0.6004 -0.8152  0.4991
13791TIP3    H262789   5.344   4.688  16.616  0.3431  1.3891 -0.1505
13792TIP3   OH262790   0.563   2.406  12.049 -0.1319  0.2964 -0.2712
13792TIP3    H162791   0.470   2.385  12.054  0.1352 -0.7902  0.4278
13792TIP3    H262792   0.606   2.333  12.094  1.1186  0.2943 -1.4547
13793TIP3   OH262793   3.867   3.166  11.717  0.2471  0.0875 -0.1402
13793TIP3    H162794   3.898   3.153  11.627 -0.7904 -1.6362 -0.2839
13793TIP3    H262795   3.902   3.090  11.765 -3.4674 -1.8324 -0.2645
13794TIP3   OH262796   4.188   0.073   2.979  0.3795  0.1987 -0.1846
13794TIP3    H162797   4.161  -0.018   2.964  0.8766 -0.0477  0.3619
13794TIP3    H262798   4.192   0.081   3.075 -0.1821  0.9555 -0.2244
13795TIP3   OH262799   1.527   5.297  14.979  0.0077  0.1674 -0.4669
13795TIP3    H162800   1.463   5.237  14.942 -2.7761  2.7329  0.0654
13795TIP3    H262801   1.550   5.259  15.064 -2.7961  0.5455  0.4969
13796TIP3   OH262802   3.608   2.447   6.291 -0.3524 -0.3490 -0.1353
13796TIP3    H162803   3.653   2.377   6.244 -0.6372  0.0749 -1.0580
13796TIP3    H262804   3.677   2.494   6.337 -0.2375 -1.6535  1.0652
13797TIP3   OH262805   6.492   5.365   4.272  1.0608 -1.5902  0.2481
13797TIP3    H162806   6.465   5.317   4.351 -0.2098 -0.7404  0.3414
13797TIP3    H262807   6.559   5.426   4.303  0.9590 -1.6357  0.5707
13798TIP3   OH262808   6.742   0.128  12.948 -0.2498  0.1412 -0.2784
13798TIP3    H162809   6.690   0.145  12.870 -2.5681 -1.3158  0.8921
13798TIP3    H262810   6.795   0.052  12.925 -1.6153 -0.8736 -0.1622
13799TIP3   OH262811   4.426   1.659  15.871  0.5731 -0.2428  0.0090
13799TIP3    H162812   4.390   1.732  15.822  0.2642  0.3726  1.1386
13799TIP3    H262813   4.519   1.681  15.882  0.8997 -0.9240 -1.2612
13800TIP3   OH262814   2.823   3.973   4.562 -0.1620 -0.3056 -0.1591
13800TIP3    H162815   2.803   4.031   4.635 -0.2263  0.0819 -0.4805
13800TIP3    H262816   2.863   4.030   4.496 -0.1209 -0.6467 -0.4325
13801TIP3   OH262817   3.824   2.788   4.189 -1.0147 -0.5993  0.6115
13801TIP3    H162818   3.759   2.733   4.146 -1.4571 -0.1441  0.6945
13801TIP3    H262819   3.777   2.868   4.211 -0.5245 -0.4207  1.0185
13802TIP3   OH262820   2.972   5.886  13.554 -0.2358  0.2619 -0.4193
13802TIP3    H162821   3.012   5.968  13.524 -0.4787  0.5578  0.0747
13802TIP3    H262822   2.926   5.853  13.477 -0.6910  0.9266 -0.4437
13803TIP3   OH262823   0.594   6.230   1.829  0.0864 -0.5443  0.3807
13803TIP3    H162824   0.509   6.187   1.834 -1.2454  1.5228 -2.9022
13803TIP3    H262825   0.578   6.318   1.861  1.3482 -0.6025  1.1880
13804TIP3   OH262826   0.801   6.103   0.302 -0.5242  0.0054  0.0411
13804TIP3    H162827   0.885   6.128   0.264 -0.8874  1.4250  0.1345
13804TIP3    H262828   0.742   6.176   0.280 -1.2899 -0.1581  1.4697
13805TIP3   OH262829   5.779   4.800   1.793 -0.1356 -0.0440 -0.0436
13805TIP3    H162830   5.702   4.816   1.848  0.6073 -0.7265  1.2128
13805TIP3    H262831   5.835   4.743   1.845  1.8192  1.4504 -0.4061
13806TIP3   OH262832   5.048   6.536   0.848  0.2940  0.3201 -0.8395
13806TIP3    H162833   5.132   6.578   0.865 -0.4015  0.9857  1.1193
13806TIP3    H262834   5.067   6.442   0.849  0.6801  0.4028  1.6076
13807TIP3   OH262835   1.775   1.148  10.681 -0.1274  0.4813  0.0141
13807TIP3    H162836   1.703   1.153  10.743  0.0491 -0.8224  0.3373
13807TIP3    H262837   1.848   1.193  10.725  1.0752 -3.4498  2.3398
13808TIP3   OH262838   4.262   1.928   4.840  0.4986  0.0033  0.1945
13808TIP3    H162839   4.219   1.946   4.757 -1.8673  0.6614  1.4978
13808TIP3    H262840   4.284   1.835   4.836 -1.5769 -0.5031 -0.3348
13809TIP3   OH262841   1.758   2.934   1.070  0.5355 -0.1959  0.0662
13809TIP3    H162842   1.722   2.856   1.112  0.3980  0.5031  1.2871
13809TIP3    H262843   1.840   2.904   1.030  0.6300 -0.9018  0.7713
13810TIP3   OH262844   2.079   4.605   5.639  0.6612  0.4262 -0.0773
13810TIP3    H162845   2.040   4.518   5.633 -2.8744  2.0253 -1.4530
13810TIP3    H262846   2.132   4.613   5.560  0.1507 -0.0572 -0.4703
13811TIP3   OH262847   4.116   6.110  11.342 -0.0243  0.1853  0.3295
13811TIP3    H162848   4.156   6.140  11.260 -1.5574 -0.0781 -0.5362
13811TIP3    H262849   4.189   6.074  11.392  1.1700  1.6436 -0.3135
13812TIP3   OH262850   2.091   0.857  14.598  0.7911 -0.0450  0.0062
13812TIP3    H162851   2.138   0.851  14.682  0.0836 -0.6254  0.3665
13812TIP3    H262852   2.058   0.769  14.583  0.5995  0.1506 -0.7073
13813TIP3   OH262853   4.167   0.206  10.732 -0.3462  0.3529  1.0814
13813TIP3    H162854   4.263   0.205  10.734 -0.3014 -1.1180 -0.5239
13813TIP3    H262855   4.143   0.288  10.775  1.7168  2.6559 -1.9271
13814TIP3   OH262856   1.979   6.266  10.388  0.5929  1.0437 -0.0644
13814TIP3    H162857   2.042   6.277  10.316  0.4195 -0.7933 -0.5277
13814TIP3    H262858   1.997   6.178  10.421 -0.5059  1.2253  1.0101
13815TIP3   OH262859   5.306   3.019   3.080 -0.2838 -0.3271 -0.1313
13815TIP3    H162860   5.335   3.018   2.989 -0.7303  1.2739 -0.2957
13815TIP3    H262861   5.276   2.929   3.096  2.5947 -1.4492 -0.6442
13816TIP3   OH262862   0.600   5.681   4.000 -0.3351  0.0639 -0.1875
13816TIP3    H162863   0.583   5.590   4.024 -0.7561  0.1036 -0.3393
13816TIP3    H262864   0.599   5.729   4.083  0.3962 -0.1473 -0.0498
13817TIP3   OH262865   5.477   6.366  13.026 -0.2054 -0.3151 -0.0732
13817TIP3    H162866   5.426   6.288  13.002 -0.2087 -0.4844  0.4890
13817TIP3    H262867   5.521   6.391  12.944  1.5410 -2.2189  0.2337
13818TIP3   OH262868   4.876   4.562   5.556  0.2769 -0.3734  0.2126
13818TIP3    H162869   4.837   4.647   5.577 -1.9387 -0.5215 -2.9227
13818TIP3    H262870   4.840   4.503   5.622 -0.4022  0.6067  0.7381
13819TIP3   OH262871   1.206   3.244  16.073 -0.1829 -0.0156 -0.4048
13819TIP3    H162872   1.205   3.255  16.168  0.3140  0.0213 -0.3998
13819TIP3    H262873   1.131   3.295  16.042 -0.3101  0.0232 -0.0405
13820TIP3   OH262874   0.628   6.323   3.191  0.4247  0.2321 -0.1849
13820TIP3    H162875   0.596   6.340   3.279  0.8168  1.6176 -0.3128
13820TIP3    H262876   0.724   6.331   3.198  0.5845 -1.2983 -0.3806
13821TIP3   OH262877   3.549   6.130   0.871 -0.1966 -0.1311  0.0369
13821TIP3    H162878   3.460   6.095   0.873 -1.1910  2.2623  2.0030
13821TIP3    H262879   3.549   6.190   0.797 -1.1219  1.8556  1.5710
13822TIP3   OH262880   0.736   5.794  12.922 -0.1308  0.1495 -0.8890
13822TIP3    H162881   0.696   5.794  12.835 -0.6421 -0.2087 -0.6648
13822TIP3    H262882   0.780   5.709  12.928  0.9752  0.7003 -1.2739
13823TIP3   OH262883   2.950   5.165  14.180  0.4176 -0.7172  0.1169
13823TIP3    H162884   3.026   5.126  14.136 -0.0628  0.0357 -1.4325
13823TIP3    H262885   2.969   5.259  14.180 -0.4173 -0.5442 -0.1211
13824TIP3   OH262886   0.500   0.232   5.360  0.3391  0.5386  0.8936
13824TIP3    H162887   0.446   0.310   5.348 -1.2805 -0.7130 -0.2099
13824TIP3    H262888   0.459   0.186   5.433  0.4347  0.0286  0.6248
13825TIP3   OH262889   2.028   3.258  15.304  0.0430  0.4941 -0.8130
13825TIP3    H162890   1.982   3.196  15.360  0.1295 -0.3321 -1.6327
13825TIP3    H262891   1.964   3.326  15.286 -0.4302  0.0511 -0.8315
13826TIP3   OH262892   5.323   6.223  15.880  0.0230 -0.1810 -0.0937
13826TIP3    H162893   5.307   6.244  15.788  0.7687  1.4190  0.1259
13826TIP3    H262894   5.414   6.194  15.882  0.4186  1.0498  0.3281
13827TIP3   OH262895   1.742   1.128  12.721 -0.5672 -0.0586  0.1183
13827TIP3    H162896   1.810   1.062  12.705 -0.1932  0.0609  1.1949
13827TIP3    H262897   1.721   1.162  12.634  0.9112  0.0515 -0.2101
13828TIP3   OH262898   0.535   3.793   1.853 -0.2323 -0.6739  0.2699
13828TIP3    H162899   0.471   3.839   1.799 -0.5666  1.1371  2.1739
13828TIP3    H262900   0.614   3.789   1.798 -0.5837  1.0838 -0.4080
13829TIP3   OH262901   3.448   2.254  11.190 -0.1066  0.0229 -0.8319
13829TIP3    H162902   3.354   2.271  11.194 -0.1527 -0.5893  2.3857
13829TIP3    H262903   3.454   2.165  11.156 -0.7443 -0.1419 -0.5402
13830TIP3   OH262904   4.023   4.123  11.639 -0.5542  0.5328 -0.5238
13830TIP3    H162905   3.964   4.083  11.703 -2.3047  0.9386 -1.8541
13830TIP3    H262906   4.040   4.055  11.575 -0.8177  0.8910 -0.9754
13831TIP3   OH262907   0.005   0.318  11.368  0.0653  0.1179 -0.7232
13831TIP3    H162908  -0.085   0.313  11.399  0.1438 -0.4207 -0.5887
13831TIP3    H262909  -0.001   0.325  11.273 -0.0907 -0.6570 -0.7690
13832TIP3   OH262910   0.250   1.459   6.010 -0.2014 -0.6473 -0.1267
13832TIP3    H162911   0.333   1.480   5.968 -0.9243  0.9036 -0.8588
13832TIP3    H262912   0.235   1.367   5.991  0.5410 -0.5124 -1.4388
13833TIP3   OH262913   4.111   0.637   1.675  0.0865  0.3583 -0.0693
13833TIP3    H162914   4.056   0.701   1.721 -0.8503  0.1840 -0.9347
13833TIP3    H262915   4.144   0.580   1.745 -0.5137  0.7015  0.5044
13834TIP3   OH262916   0.206   5.850  11.304 -0.3271 -0.7247 -0.2169
13834TIP3    H162917   0.198   5.824  11.396  0.5149 -2.6121 -0.6681
13834TIP3    H262918   0.132   5.807  11.260 -0.7457  0.1962 -0.4410
13835TIP3   OH262919   1.843   2.000   3.926 -0.4254  0.9733  0.0899
13835TIP3    H162920   1.822   1.953   4.006  0.0423  0.8245  0.1253
13835TIP3    H262921   1.937   2.014   3.930 -0.4319  1.1536 -0.3298
13836TIP3   OH262922   0.939   5.196  13.440  0.0807  0.2833 -0.1180
13836TIP3    H162923   0.843   5.194  13.445 -0.1249  2.4439 -2.1066
13836TIP3    H262924   0.960   5.135  13.369  0.0153  1.1484 -0.9001
13837TIP3   OH262925   2.361   0.647   3.009  0.0998  0.1709  0.1879
13837TIP3    H162926   2.435   0.630   2.950 -0.6475 -0.2046 -0.6580
13837TIP3    H262927   2.321   0.561   3.022  0.9016  0.0700  2.1409
13838TIP3   OH262928   1.513   2.828   1.802  0.2824  0.3358  0.5059
13838TIP3    H162929   1.443   2.833   1.867  0.1483  1.8833  0.2672
13838TIP3    H262930   1.530   2.735   1.792 -0.8065  0.0106  1.5719
13839TIP3   OH262931   5.179   2.678  12.813  0.3791  0.4989  0.7618
13839TIP3    H162932   5.205   2.762  12.776 -0.3008  0.5203  0.3186
13839TIP3    H262933   5.256   2.622  12.801 -0.0460  0.3147 -1.3089
13840TIP3   OH262934   5.506   2.264  12.023 -0.1639  0.0400  0.2742
13840TIP3    H162935   5.532   2.340  12.076 -0.3343 -0.9254  1.7640
13840TIP3    H262936   5.589   2.219  12.004  0.0356  1.0784 -1.3744
13841TIP3   OH262937   5.728   5.873  10.748 -0.0359  0.1869  0.3858
13841TIP3    H162938   5.815   5.911  10.736  1.3212 -2.3877  1.5131
13841TIP3    H262939   5.734   5.787  10.706 -1.4733 -0.7004  1.9451
13842TIP3   OH262940   1.250   3.732   2.830  0.0751  0.5041  0.0727
13842TIP3    H162941   1.232   3.823   2.855 -0.3918 -0.0227  1.7181
13842TIP3    H262942   1.345   3.724   2.835  0.2329  1.3038 -1.5268
13843TIP3   OH262943   3.383   2.168   5.280  0.4577  0.4734 -0.1499
13843TIP3    H162944   3.413   2.244   5.330  0.6561  0.5318 -0.3545
13843TIP3    H262945   3.464   2.126   5.250  0.3381  1.0160 -1.2888
13844TIP3   OH262946   5.814   3.045  14.705  0.1201 -0.2105 -0.1512
13844TIP3    H162947   5.876   3.072  14.637 -1.0094  0.0092 -1.1170
13844TIP3    H262948   5.858   3.066  14.787  1.0357  0.5914 -0.8297
13845TIP3   OH262949   3.752   4.595  14.404  0.2058 -0.1804 -0.4367
13845TIP3    H162950   3.847   4.605  14.413  0.1785  0.2258 -0.5925
13845TIP3    H262951   3.737   4.502  14.418  0.9176 -0.7160 -2.8508
13846TIP3   OH262952   3.149   0.291  16.016 -0.5397 -0.2411 -0.4046
13846TIP3    H162953   3.215   0.245  15.965  0.7577  0.9880  0.1420
13846TIP3    H262954   3.130   0.232  16.089 -0.7564 -1.0162 -1.0836
13847TIP3   OH262955   6.049   6.504  12.240 -0.1219  0.2788 -0.4359
13847TIP3    H162956   6.086   6.416  12.226 -0.7195 -0.4188  2.0696
13847TIP3    H262957   5.971   6.506  12.184 -0.3496 -0.9754 -0.1970
13848TIP3   OH262958   6.767   4.925  10.903 -0.0776  0.0386  0.6842
13848TIP3    H162959   6.755   4.832  10.923 -0.5060  0.2397  1.3903
13848TIP3    H262960   6.778   4.928  10.808  0.3259 -0.7724  0.6986
13849TIP3   OH262961   3.808   2.455  12.189  0.3041  0.0003  0.0489
13849TIP3    H162962   3.840   2.401  12.117 -0.6470  0.4816 -0.7445
13849TIP3    H262963   3.735   2.504  12.152 -0.6771 -0.2852  1.5331
13850TIP3   OH262964   3.068   3.676  13.589 -0.1336 -0.2267 -0.6011
13850TIP3    H162965   3.137   3.723  13.636 -2.2129  1.1669  1.1461
13850TIP3    H262966   2.990   3.731  13.598 -1.5821 -1.9192 -2.2463
13851TIP3   OH262967   0.107   0.915  16.657 -0.2854 -0.6674  0.0416
13851TIP3    H162968   0.098   0.999  16.703  0.5117 -0.6849  0.2409
13851TIP3    H262969   0.074   0.932  16.569  1.6827  0.4041 -0.5195
13852TIP3   OH262970   5.600   1.479  17.092 -0.0374  0.2591 -0.4582
13852TIP3    H162971   5.551   1.496  17.173 -2.1320  1.9345 -2.0243
13852TIP3    H262972   5.669   1.546  17.091 -1.2436  1.5337 -0.9925
13853TIP3   OH262973   5.471   4.031   5.897 -0.2143  0.0668  0.1882
13853TIP3    H162974   5.462   4.054   5.805  0.8346 -1.6703 -0.3544
13853TIP3    H262975   5.383   4.045   5.933 -0.3261  1.9816 -0.7672
13854TIP3   OH262976   0.186   6.260  12.410  0.5975 -0.0806 -0.2019
13854TIP3    H162977   0.262   6.202  12.410  0.0662 -0.8125  2.5857
13854TIP3    H262978   0.114   6.206  12.443 -1.2254  0.5350 -2.9796
13855TIP3   OH262979   5.374   1.134  14.243  0.4667 -0.2338  0.0786
13855TIP3    H162980   5.447   1.101  14.190  0.2487  0.7286 -0.8384
13855TIP3    H262981   5.321   1.056  14.262  0.8089 -0.6711 -0.7212
13856TIP3   OH262982   3.091   4.589  13.917 -0.4030 -0.0647 -0.4796
13856TIP3    H162983   3.047   4.506  13.900 -1.9479  0.3556  1.3132
13856TIP3    H262984   3.040   4.629  13.988  0.7078  2.1076 -0.8714
13857TIP3   OH262985   2.999   3.394   3.238  0.5416  0.4435 -0.2199
13857TIP3    H162986   3.068   3.330   3.223 -0.5306 -0.6566 -0.5363
13857TIP3    H262987   2.935   3.348   3.292 -1.0906  0.6689 -1.9184
13858TIP3   OH262988   1.293   6.540   1.377  0.5032  0.1915  0.3135
13858TIP3    H162989   1.300   6.610   1.441 -1.0564 -1.7840  2.7473
13858TIP3    H262990   1.210   6.555   1.333 -0.2758 -0.6103  1.4810
13859TIP3   OH262991   0.855   2.084   2.639  0.0579  0.3373 -0.1210
13859TIP3    H162992   0.842   2.025   2.565 -0.8686  1.5492 -0.9497
13859TIP3    H262993   0.818   2.038   2.714 -0.0984 -0.3849 -0.6355
13860TIP3   OH262994   4.690   6.352  11.329  0.1633  0.2406  0.6787
13860TIP3    H162995   4.763   6.292  11.312  0.4790  0.8472 -0.1861
13860TIP3    H262996   4.614   6.310  11.289  0.3784  0.3836  0.1020
13861TIP3   OH262997   1.879   6.667  14.836  0.5035 -0.0321  0.5102
13861TIP3    H162998   1.806   6.713  14.794 -1.8243 -3.2644  0.8834
13861TIP3    H262999   1.939   6.646  14.764 -0.1917  0.3601 -0.1931
13862TIP3   OH263000   6.342   0.275   2.784 -0.1333 -0.0527 -0.4664
13862TIP3    H163001   6.265   0.275   2.728  0.3832  0.4891 -1.1978
13862TIP3    H263002   6.374   0.185   2.781  0.2395  0.1067 -1.5520
13863TIP3   OH263003   1.104   4.923  12.982  0.1440  1.2846  0.0531
13863TIP3    H163004   1.143   5.003  12.946  0.6416  0.3513 -1.5263
13863TIP3    H263005   1.062   4.881  12.907  1.6162 -0.9522  0.4452
13864TIP3   OH263006   4.094   0.547   5.729  0.3679  1.2648  0.0314
13864TIP3    H163007   4.133   0.634   5.732 -1.9094  2.3877 -0.8740
13864TIP3    H263008   4.047   0.539   5.812 -0.9496  1.7084 -0.6420
13865TIP3   OH263009   2.641   0.203   3.358 -0.0693  0.0866 -0.9956
13865TIP3    H163010   2.552   0.229   3.379  0.0706  0.8883 -1.3667
13865TIP3    H263011   2.632   0.152   3.277 -0.2995 -0.7042 -0.4787
13866TIP3   OH263012   4.173   5.480   0.635 -0.9831 -0.1883  0.0964
13866TIP3    H163013   4.120   5.437   0.568 -0.9710 -0.8729  0.5209
13866TIP3    H263014   4.247   5.517   0.587  0.0063 -2.2805 -0.0276
13867TIP3   OH263015   1.548   5.688  12.590  0.3344  0.1665 -0.1990
13867TIP3    H163016   1.473   5.734  12.554  0.4803  1.0294  0.5829
13867TIP3    H263017   1.510   5.615  12.639 -0.1406  1.7312  1.8537
13868TIP3   OH263018   4.746   1.927   5.053  0.4554 -0.8473 -0.6788
13868TIP3    H163019   4.663   1.972   5.065  0.4310 -0.9572 -0.4410
13868TIP3    H263020   4.747   1.904   4.960  0.8063  0.3012 -0.9623
13869TIP3   OH263021   0.211   3.640   2.014  0.0041  0.0720 -0.2688
13869TIP3    H163022   0.138   3.581   1.993 -0.6829  0.7797  0.1071
13869TIP3    H263023   0.217   3.698   1.938 -0.0686  0.2602 -0.1295
13870TIP3   OH263024   3.646   5.031   3.726  0.5654  0.3561  0.0617
13870TIP3    H163025   3.673   5.009   3.637  0.8413 -0.2751  0.3031
13870TIP3    H263026   3.555   5.059   3.717  0.8408  1.0864 -0.5408
13871TIP3   OH263027   4.646   1.931   2.111 -0.3728  0.5089  0.3712
13871TIP3    H163028   4.678   2.013   2.074 -0.1939  0.9995  1.5945
13871TIP3    H263029   4.555   1.949   2.134 -0.3709  0.3181  0.5217
13872TIP3   OH263030   5.936   5.474   2.064  0.7197 -0.1133 -0.0200
13872TIP3    H163031   5.892   5.389   2.063  1.3748 -0.4433 -1.6253
13872TIP3    H263032   6.000   5.469   1.993  0.1606  2.0414 -0.7176
13873TIP3   OH263033   3.897   5.651  15.408  0.4026  0.4168  0.4245
13873TIP3    H163034   3.917   5.670  15.317 -0.9161  0.2427  0.0958
13873TIP3    H263035   3.827   5.713  15.431 -0.6428 -0.8621  0.7356
13874TIP3   OH263036   3.647   3.900   5.226 -0.1463 -0.0335 -0.7872
13874TIP3    H163037   3.631   3.831   5.290  1.2944 -0.1208 -0.5065
13874TIP3    H263038   3.681   3.854   5.149  2.2909  0.4878 -0.0597
13875TIP3   OH263039   3.269   2.009  17.145 -0.3352  0.4558 -0.5359
13875TIP3    H163040   3.294   2.032  17.056  0.3353 -1.2485 -0.7993
13875TIP3    H263041   3.173   2.012  17.145 -0.3186  0.9754 -1.1714
13876TIP3   OH263042   6.513   1.917   1.894  0.2725  0.1146  0.1779
13876TIP3    H163043   6.524   1.946   1.984 -1.5124 -0.5255  0.6253
13876TIP3    H263044   6.447   1.975   1.857  1.2673  0.6118 -0.8402
13877TIP3   OH263045   0.090   4.043  14.675  0.6680  0.0604 -0.8849
13877TIP3    H163046   0.065   3.979  14.609  1.2489  0.9248 -1.9521
13877TIP3    H263047   0.179   4.018  14.700  0.9741  0.5732 -1.4556
13878TIP3   OH263048   1.926   6.691  11.226  0.2009 -0.3157 -0.1239
13878TIP3    H163049   1.849   6.690  11.283 -1.1982 -0.4125 -1.9611
13878TIP3    H263050   1.968   6.606  11.242  0.0136 -0.2107  0.9918
13879TIP3   OH263051   3.084   4.018   4.051  0.8867  0.2766  0.3522
13879TIP3    H163052   3.178   4.034   4.055  0.9515  0.4979 -1.4942
13879TIP3    H263053   3.055   4.065   3.973 -0.7207  0.0307  0.7762
13880TIP3   OH263054   2.829   4.852   1.930  0.4152  0.3296 -0.1331
13880TIP3    H163055   2.855   4.787   1.995  0.3684 -0.2696 -0.7152
13880TIP3    H263056   2.784   4.920   1.981  1.9969  0.7628  0.7102
13881TIP3   OH263057   2.631   2.576  16.142 -0.3299  0.0022 -0.0071
13881TIP3    H163058   2.683   2.627  16.205 -0.4704 -1.5692  1.4011
13881TIP3    H263059   2.696   2.523  16.095 -0.5818 -1.4240  1.2504
13882TIP3   OH263060   4.285   0.225  14.550 -0.3821  0.3395 -0.2068
13882TIP3    H163061   4.239   0.213  14.633 -2.6666 -1.1491 -1.6213
13882TIP3    H263062   4.256   0.310  14.518 -0.5459  0.3136 -0.1247
13883TIP3   OH263063   5.359   5.090   2.554  0.7442 -0.0778  0.1793
13883TIP3    H163064   5.431   5.027   2.557  0.1003 -0.8330 -0.1889
13883TIP3    H263065   5.286   5.046   2.597  1.0776  1.4759  2.4130
13884TIP3   OH263066   4.466   3.467  11.749 -0.8131 -0.3958 -0.2889
13884TIP3    H163067   4.538   3.517  11.713 -0.0665 -1.5514 -0.4377
13884TIP3    H263068   4.406   3.455  11.676  0.6596 -2.6702 -1.1795
13885TIP3   OH263069   6.383   0.648   0.066  0.5406 -0.3110  0.2100
13885TIP3    H163070   6.391   0.742   0.085  0.7323  0.0657 -1.7000
13885TIP3    H263071   6.370   0.608   0.152  1.0593  1.3973  1.1109
13886TIP3   OH263072   0.777   1.071   1.881  0.0374  0.1341  0.5155
13886TIP3    H163073   0.719   1.028   1.944  0.0270  1.4478  1.4140
13886TIP3    H263074   0.857   1.018   1.882  0.0708  0.2027  1.7183
13887TIP3   OH263075   0.634   4.288   1.635  0.5830  0.3142  0.5491
13887TIP3    H163076   0.637   4.216   1.571  0.5687  0.6917  0.1234
13887TIP3    H263077   0.557   4.269   1.688  0.2493  0.3308  0.0689
13888TIP3   OH263078   5.805   2.328  16.852  0.3292 -0.0464  0.3999
13888TIP3    H163079   5.734   2.296  16.908 -0.6681  1.1500 -0.1353
13888TIP3    H263080   5.762   2.348  16.768  1.9368 -2.5303 -1.0600
13889TIP3   OH263081   6.489   0.908   2.582 -0.0276  0.2261 -0.0841
13889TIP3    H163082   6.503   1.001   2.598 -0.6205  0.2708  0.1838
13889TIP3    H263083   6.459   0.904   2.491  1.1089  0.1876 -0.4596
13890TIP3   OH263084   2.943   1.390   5.376 -0.2126 -0.0044 -0.3026
13890TIP3    H163085   2.935   1.482   5.402 -0.2309 -0.0869 -0.0156
13890TIP3    H263086   2.887   1.343   5.438  0.6992 -0.3422  0.2833
13891TIP3   OH263087   4.912   4.085  17.076 -0.5946  0.5076 -1.0871
13891TIP3    H163088   4.896   4.074  17.170 -0.6813  0.1811 -1.1382
13891TIP3    H263089   4.827   4.068  17.035 -0.4808  0.3291 -1.2460
13892TIP3   OH263090   6.121   2.842   2.206 -0.1086  0.2848 -0.1255
13892TIP3    H163091   6.026   2.847   2.201 -0.0300  0.9916 -1.1360
13892TIP3    H263092   6.141   2.749   2.196 -0.7007  0.1091  0.3070
13893TIP3   OH263093   1.190   1.716   4.822  0.1374 -0.6160  0.8541
13893TIP3    H163094   1.240   1.729   4.741 -0.2229 -0.0224  0.7220
13893TIP3    H263095   1.112   1.668   4.795 -0.6694  0.7956  0.5990
13894TIP3   OH263096   4.585   4.351  12.817 -0.0056  0.6652 -0.2477
13894TIP3    H163097   4.640   4.420  12.854 -1.0209  1.0613  0.5258
13894TIP3    H263098   4.538   4.394  12.745  0.5319  0.3799 -0.7735
13895TIP3   OH263099   2.695   4.482   4.430  0.6011  0.1610  0.0581
13895TIP3    H163100   2.746   4.504   4.353 -0.2431  0.4904 -0.4213
13895TIP3    H263101   2.750   4.423   4.481  1.4836  0.5987 -0.3962
13896TIP3   OH263102   4.836   2.862  14.534  0.1890  0.1662 -0.1763
13896TIP3    H163103   4.897   2.872  14.607 -0.5805  1.7424  0.2530
13896TIP3    H263104   4.892   2.841  14.460  1.0504 -0.6694  0.6857
13897TIP3   OH263105   2.961   1.112  16.206 -0.4838 -0.0384 -0.3546
13897TIP3    H163106   2.996   1.181  16.261  1.2373 -2.0804  1.1993
13897TIP3    H263107   2.873   1.143  16.182  0.6091  3.0875 -0.5649
13898TIP3   OH263108   4.030   1.187   2.843 -0.0329  0.1808 -0.4451
13898TIP3    H163109   4.091   1.162   2.913 -0.5779 -1.2121 -0.4448
13898TIP3    H263110   3.944   1.180   2.883 -0.4563 -2.1047 -1.6450
13899TIP3   OH263111   1.343   6.391  15.742  0.0870  0.9280  0.4914
13899TIP3    H163112   1.402   6.315  15.737 -0.0481  0.8454  0.1283
13899TIP3    H263113   1.256   6.355  15.725 -0.2528  0.8399  2.3020
13900TIP3   OH263114   3.377   2.376   1.461  0.2270 -0.8657  0.4576
13900TIP3    H163115   3.328   2.294   1.459 -1.1850 -0.0089 -2.2544
13900TIP3    H263116   3.309   2.444   1.459  1.4310  0.3768  0.9457
13901TIP3   OH263117   4.775   3.292  14.402 -0.5401  0.9447  0.6028
13901TIP3    H163118   4.754   3.211  14.356  0.7075 -0.8227  2.9701
13901TIP3    H263119   4.695   3.343  14.400 -1.3497 -0.3468 -0.9627
13902TIP3   OH263120   0.994   6.059  11.306  0.0724  0.0814 -0.2383
13902TIP3    H163121   0.950   6.093  11.384 -1.2451  1.9026 -1.7313
13902TIP3    H263122   1.074   6.111  11.300  0.8308 -0.9553  0.6014
13903TIP3   OH263123   5.987   1.216  13.722 -0.1684  0.2890 -0.0944
13903TIP3    H163124   5.929   1.250  13.791 -1.1937 -2.4977  0.4587
13903TIP3    H263125   6.071   1.201  13.766 -0.1591  0.6523  0.0129
13904TIP3   OH263126   6.101   1.821  11.303 -0.4026  0.7320  0.2479
13904TIP3    H163127   6.137   1.733  11.311  1.3213  1.5246  1.5002
13904TIP3    H263128   6.160   1.865  11.242 -1.0902  1.1110 -0.1495
13905TIP3   OH263129   1.741   0.020  14.613  0.1417  0.1719 -0.0601
13905TIP3    H163130   1.666  -0.036  14.592 -0.1575 -0.3620  2.1955
13905TIP3    H263131   1.730   0.098  14.559 -0.3942 -1.1912 -1.9687
13906TIP3   OH263132   4.529   3.389   4.290 -0.0381 -0.5859  0.6259
13906TIP3    H163133   4.501   3.340   4.368  0.6455  0.8284  1.7989
13906TIP3    H263134   4.458   3.452   4.274 -0.0769 -0.7298  0.2427
13907TIP3   OH263135   4.782   3.959   2.004  0.0595  0.1700  0.2012
13907TIP3    H163136   4.863   3.911   2.025 -0.3712 -0.1914  1.0445
13907TIP3    H263137   4.712   3.905   2.041 -0.8086 -1.0091 -3.0262
13908TIP3   OH263138   5.210   4.321  16.739 -0.1142  0.0242  0.4450
13908TIP3    H163139   5.218   4.263  16.814  2.5018  0.2104  0.3575
13908TIP3    H263140   5.155   4.393  16.770 -0.7492 -0.9085  1.5165
13909TIP3   OH263141   5.001   4.177   0.486  0.1153 -0.6800 -0.0603
13909TIP3    H163142   5.045   4.099   0.519  0.4668 -1.3586 -2.1016
13909TIP3    H263143   5.042   4.249   0.534 -1.4179 -1.8165  3.1305
13910TIP3   OH263144   0.046   4.335   4.058  0.4007 -0.0367  0.3022
13910TIP3    H163145  -0.048   4.338   4.073  0.5287 -1.6260  1.4715
13910TIP3    H263146   0.069   4.426   4.036 -1.3393  0.4216  0.2815
13911TIP3   OH263147   4.734   2.791   0.153  0.1209  0.1780  0.2661
13911TIP3    H163148   4.684   2.710   0.141  3.6636 -1.9115 -0.9222
13911TIP3    H263149   4.693   2.833   0.229 -2.6737 -1.9864  0.0601
13912TIP3   OH263150   5.181   6.628   4.622 -0.0649 -0.5628 -0.1416
13912TIP3    H163151   5.277   6.618   4.625 -0.1418 -1.2099  0.1307
13912TIP3    H263152   5.147   6.546   4.656 -0.7024  0.9432  3.0640
13913TIP3   OH263153   1.009   3.561  14.184  0.2210 -0.3808 -0.3642
13913TIP3    H163154   1.055   3.645  14.188 -0.1782 -0.2294  1.6252
13913TIP3    H263155   1.062   3.502  14.238 -1.2082 -0.5184  0.9411
13914TIP3   OH263156   5.736   4.555  16.472  0.5300 -0.6129  0.3158
13914TIP3    H163157   5.689   4.625  16.427  0.4654 -0.8129  0.0695
13914TIP3    H263158   5.762   4.594  16.556  0.2280 -0.3911  0.3112
13915TIP3   OH263159   6.598   2.377   6.107  0.0907  0.3657  0.1159
13915TIP3    H163160   6.656   2.452   6.121 -0.1616  0.5913 -0.0332
13915TIP3    H263161   6.514   2.404   6.145  0.5829 -0.6618  1.9531
13916TIP3   OH263162   5.130   2.620  16.502  0.1562 -0.0356  0.4566
13916TIP3    H163163   5.154   2.603  16.593  0.1865 -1.9112  0.1138
13916TIP3    H263164   5.058   2.559  16.484 -0.5353  1.0325 -0.4731
13917TIP3   OH263165   2.446   3.701  13.338 -0.4612 -0.5744 -0.4718
13917TIP3    H163166   2.375   3.747  13.382  0.0495 -1.5241  1.3779
13917TIP3    H263167   2.495   3.771  13.293 -0.5724  0.5313  1.0683
13918TIP3   OH263168   4.061   5.411  11.954  0.2411 -0.3586  0.2127
13918TIP3    H163169   4.153   5.406  11.928  0.4736  1.9119  0.4833
13918TIP3    H263170   4.060   5.471  12.029 -1.6655  1.1871 -0.9760
13919TIP3   OH263171   1.853   3.979  15.977 -0.1381  0.5970 -0.0165
13919TIP3    H163172   1.829   4.033  15.902  1.3614 -0.4772 -1.3076
13919TIP3    H263173   1.884   3.897  15.938 -0.0572 -0.2594  1.8070
13920TIP3   OH263174   4.281   1.521  14.434 -0.4430  0.2723  0.1089
13920TIP3    H163175   4.363   1.514  14.482 -1.0724 -1.6325  0.9466
13920TIP3    H263176   4.215   1.541  14.500 -0.6499  1.8954 -0.5768
13921TIP3   OH263177   4.476   1.951   6.441 -0.1367  0.5522 -0.3263
13921TIP3    H163178   4.403   1.988   6.391 -0.0040 -0.4812 -1.2987
13921TIP3    H263179   4.530   2.026   6.464 -2.4990  1.5930  2.0777
13922TIP3   OH263180   5.960   5.053   1.405  0.3906 -0.1994 -0.5169
13922TIP3    H163181   5.872   5.027   1.379 -0.4770  1.6375  0.4782
13922TIP3    H263182   5.965   5.032   1.498 -0.0146  2.2624  0.0952
13923TIP3   OH263183   1.493   6.251   1.567  0.6357 -0.0285  0.4769
13923TIP3    H163184   1.580   6.290   1.565  0.4846  0.3731  1.3936
13923TIP3    H263185   1.505   6.171   1.619  0.3858  0.2265  0.9340
13924TIP3   OH263186   0.001   1.499   3.012  0.0275  0.0714 -0.4340
13924TIP3    H163187  -0.031   1.434   3.074 -1.5857  1.4086  0.1526
13924TIP3    H263188   0.086   1.526   3.047  0.7123 -1.6998 -0.6836
13925TIP3   OH263189   0.088   1.003  15.894  0.2673  0.0568  1.0864
13925TIP3    H163190   0.163   0.985  15.837 -1.8665  0.6854 -2.0211
13925TIP3    H263191   0.026   0.933  15.874 -0.8344  0.7253  2.1095
13926TIP3   OH263192   5.689   2.088   2.135 -0.2834  0.3183  0.0127
13926TIP3    H163193   5.687   2.133   2.051 -1.1642  0.7580  0.2561
13926TIP3    H263194   5.731   2.004   2.117 -0.0017  0.6205 -0.7586
13927TIP3   OH263195   4.053   2.738   0.257  0.0339 -0.3672  0.2996
13927TIP3    H163196   4.143   2.705   0.255  0.7883  1.6217 -0.3920
13927TIP3    H263197   4.036   2.756   0.349  0.3423 -0.8186  0.4449
13928TIP3   OH263198   0.190   2.712   4.096  0.2323  0.1607 -0.3214
13928TIP3    H163199   0.127   2.642   4.076  1.2768 -0.5929 -1.0618
13928TIP3    H263200   0.219   2.693   4.185  0.2649 -0.1768 -0.3999
13929TIP3   OH263201   1.788   0.258  16.501 -0.3627 -0.1148  0.4475
13929TIP3    H163202   1.717   0.308  16.541  0.4821 -0.4957  2.4831
13929TIP3    H263203   1.848   0.325  16.467  0.1126  0.2836  2.0003
13930TIP3   OH263204   4.197   4.577   0.292  0.3630 -0.0046 -0.3484
13930TIP3    H163205   4.130   4.511   0.309 -0.6116  0.8265 -0.8742
13930TIP3    H263206   4.158   4.633   0.225 -0.8572  4.0228  3.5300
13931TIP3   OH263207   3.968   3.704  15.517 -0.3592 -0.1316 -0.2483
13931TIP3    H163208   3.910   3.643  15.472 -1.7293 -1.0129  2.5671
13931TIP3    H263209   4.014   3.650  15.581  3.0506  0.6956 -1.8469
13932TIP3   OH263210   5.123   4.669  11.204  0.3510 -0.3701  0.4509
13932TIP3    H163211   5.088   4.660  11.115 -0.6084  2.9730  0.4553
13932TIP3    H263212   5.046   4.680  11.260  1.0636 -0.3120  1.4392
13933TIP3   OH263213   3.825   0.244  13.405 -0.1935  0.5296  0.1373
13933TIP3    H163214   3.826   0.190  13.326  1.3207 -0.2167  0.6420
13933TIP3    H263215   3.857   0.186  13.474  1.5646  2.0772  0.6743
13934TIP3   OH263216   2.929   2.277   2.577  0.2041  0.0481 -0.0699
13934TIP3    H163217   3.001   2.225   2.613  0.1536  0.5921  0.8274
13934TIP3    H263218   2.852   2.251   2.628 -0.3118 -0.7891 -1.2626
13935TIP3   OH263219   4.620   3.475   5.276 -0.1107  0.3271 -0.2333
13935TIP3    H163220   4.609   3.524   5.357  1.3100 -0.1594  0.2703
13935TIP3    H263221   4.696   3.516   5.233  0.0696 -0.3710 -0.5905
13936TIP3   OH263222   0.789   4.940  11.352  0.2838  0.1446  0.1486
13936TIP3    H163223   0.835   5.007  11.402 -0.6682  0.4530  0.6267
13936TIP3    H263224   0.716   4.987  11.310  1.6825  0.1108 -2.4073
13937TIP3   OH263225   4.838   6.334   1.552  0.9694 -0.0775 -0.1161
13937TIP3    H163226   4.782   6.394   1.502 -0.8356  0.7632  2.8229
13937TIP3    H263227   4.927   6.369   1.541 -0.0837  3.4808  1.8980
13938TIP3   OH263228   4.534   3.051  14.501 -0.2881 -0.6138 -0.1111
13938TIP3    H163229   4.576   3.037  14.587 -0.9106 -1.5153  0.0569
13938TIP3    H263230   4.479   3.128  14.513 -0.3937 -0.7540  0.3116
13939TIP3   OH263231   0.231   1.873   5.739 -0.4150 -0.4581  0.8076
13939TIP3    H163232   0.250   1.798   5.795 -0.6843 -0.9988  0.1813
13939TIP3    H263233   0.249   1.949   5.794 -0.2302 -0.9798  1.4763
13940TIP3   OH263234   6.233   5.928  12.173 -0.6120 -0.1762  0.2046
13940TIP3    H163235   6.149   5.906  12.213 -0.2888  0.6173  1.3543
13940TIP3    H263236   6.239   5.871  12.096 -2.0209 -0.5054  0.3314
13941TIP3   OH263237   6.544   0.760  15.517 -0.0491 -0.4134  0.1041
13941TIP3    H163238   6.456   0.790  15.542 -0.3003 -0.3467 -0.8450
13941TIP3    H263239   6.539   0.665  15.521 -1.3074 -0.5867 -3.6237
13942TIP3   OH263240   4.751   1.956  14.892  0.2441 -0.6951 -0.7849
13942TIP3    H163241   4.705   2.040  14.895 -0.8179 -1.2350 -1.4536
13942TIP3    H263242   4.834   1.976  14.847  0.2062  0.0846 -0.5156
13943TIP3   OH263243   0.180   5.431  10.993 -0.1214 -0.4189  0.2894
13943TIP3    H163244   0.125   5.505  11.020  0.0834 -0.7251  1.6068
13943TIP3    H263245   0.122   5.374  10.943 -0.4295  0.3375 -0.2259
13944TIP3   OH263246   1.637   5.211   3.401 -0.1098  0.2429  0.1823
13944TIP3    H163247   1.581   5.287   3.419  3.0373  3.9308 -4.2494
13944TIP3    H263248   1.594   5.166   3.329  0.7011  0.8849 -0.7042
13945TIP3   OH263249   5.648   4.941  16.978 -0.3167 -0.4805  0.1480
13945TIP3    H163250   5.615   5.004  17.042  2.2160  0.0761  0.9614
13945TIP3    H263251   5.693   4.874  17.030  0.7711 -0.6420 -0.9566
13946TIP3   OH263252   3.713   4.998   5.598 -0.2061 -0.4146 -0.8138
13946TIP3    H163253   3.643   5.042   5.645  0.1424  1.8383 -2.3450
13946TIP3    H263254   3.765   4.956   5.666  0.0314  2.4140  0.8242
13947TIP3   OH263255   6.160   1.526  12.780  0.5726  0.0393 -0.1804
13947TIP3    H163256   6.214   1.604  12.795  0.0940  0.0648  1.5437
13947TIP3    H263257   6.152   1.487  12.867 -3.0675  0.6064 -0.2197
13948TIP3   OH263258   2.624   4.980  11.487 -0.0240  0.0506  0.0732
13948TIP3    H163259   2.607   5.066  11.526  2.1669  0.7591 -0.4364
13948TIP3    H263260   2.587   4.986  11.399 -0.7524  0.1310  0.3842
13949TIP3   OH263261   2.608   3.287   3.224 -0.2348  0.4794  0.0578
13949TIP3    H163262   2.683   3.281   3.284  1.6005  1.1340 -2.1115
13949TIP3    H263263   2.568   3.371   3.244  1.4183  1.4891 -0.8039
13950TIP3   OH263264   0.656   1.618   2.055 -0.3288 -0.3578 -0.1246
13950TIP3    H163265   0.686   1.532   2.086 -0.7141 -0.0416  1.1551
13950TIP3    H263266   0.575   1.599   2.008 -0.1148 -0.7584 -0.3406
13951TIP3   OH263267   1.563   1.676   0.981 -0.4043 -0.7870  0.0105
13951TIP3    H163268   1.619   1.671   0.903 -0.0323  0.2602  0.2051
13951TIP3    H263269   1.484   1.721   0.950  0.0638  0.3290  0.4100
13952TIP3   OH263270   1.073   5.894  16.879 -0.2591  0.3922  0.2802
13952TIP3    H163271   1.097   5.892  16.787  0.2760 -0.0478  0.4272
13952TIP3    H263272   0.978   5.880  16.880 -0.2542  0.3311 -0.1957
13953TIP3   OH263273   2.186   1.565  12.300 -0.5532 -0.1617  0.5795
13953TIP3    H163274   2.232   1.486  12.270  0.6381 -0.1357  2.3141
13953TIP3    H263275   2.111   1.531  12.349 -1.2712 -0.2015 -0.5277
13954TIP3   OH263276   2.753   6.041   5.245  0.0050 -0.0566 -0.4113
13954TIP3    H163277   2.739   6.097   5.321 -0.4626 -0.8423  0.0832
13954TIP3    H263278   2.703   6.083   5.175 -0.4050  0.0962 -0.0283
13955TIP3   OH263279   6.741   2.163   1.460 -0.4449 -0.0256 -0.1049
13955TIP3    H163280   6.719   2.250   1.492  0.1315  0.4485 -0.9775
13955TIP3    H263281   6.766   2.114   1.538 -1.3862  0.3975  0.4692
13956TIP3   OH263282   0.859   0.214   3.196 -0.2131  0.0013  0.0105
13956TIP3    H163283   0.818   0.237   3.280 -0.1148  1.5562 -0.3649
13956TIP3    H263284   0.799   0.248   3.130  0.9851  1.0259 -0.5460
13957TIP3   OH263285   4.207   3.853   5.382  0.4560 -0.6622  0.3277
13957TIP3    H163286   4.210   3.764   5.418  1.0366 -0.3963  0.9503
13957TIP3    H263287   4.146   3.900   5.439 -0.5667 -0.8959 -0.5547
13958TIP3   OH263288   0.317   3.308  16.634 -0.2666 -0.1922 -0.0542
13958TIP3    H163289   0.245   3.304  16.571 -0.6389  0.8319  0.2979
13958TIP3    H263290   0.386   3.252  16.596 -0.4108  0.5694 -1.4586
13959TIP3   OH263291   4.213   3.906  13.077  0.8847  0.2701  0.1377
13959TIP3    H163292   4.210   3.914  12.982  1.0604  1.8921  0.2509
13959TIP3    H263293   4.306   3.902  13.098  0.8170 -3.2345  0.0399
13960TIP3   OH263294   6.114   3.817   4.712 -0.2341 -0.0481 -0.2210
13960TIP3    H163295   6.057   3.764   4.656 -0.5560  1.0078 -0.9025
13960TIP3    H263296   6.177   3.857   4.652  1.6909 -1.7377  0.5922
13961TIP3   OH263297   5.846   3.994  12.945 -0.3590  0.1860 -0.0333
13961TIP3    H163298   5.872   4.086  12.932  0.5086 -0.3756 -2.5340
13961TIP3    H263299   5.795   3.995  13.027 -0.3431  2.8785 -0.0022
13962TIP3   OH263300   3.901   6.116  13.944 -0.0980 -0.0419 -0.8706
13962TIP3    H163301   3.863   6.198  13.976  0.6664 -0.6073  1.5957
13962TIP3    H263302   3.832   6.051  13.957  0.2903 -0.3155 -0.1660
13963TIP3   OH263303   5.066   0.777   3.199  0.3858  0.1329 -0.1252
13963TIP3    H163304   5.037   0.867   3.216  0.0731  0.0657 -0.3051
13963TIP3    H263305   4.986   0.729   3.180  0.4909 -0.3223  0.5726
13964TIP3   OH263306   4.257   1.251   4.348 -0.1273  0.6527  0.3045
13964TIP3    H163307   4.193   1.230   4.281  0.6376  0.5761 -0.4073
13964TIP3    H263308   4.332   1.286   4.300  0.1129  1.3492  1.1806
13965TIP3   OH263309   5.134   2.084  11.578 -0.2738 -0.5126 -0.3778
13965TIP3    H163310   5.211   2.102  11.633 -1.0741 -1.8704  1.2552
13965TIP3    H263311   5.170   2.053  11.495  0.9538 -3.6481  1.2586
13966TIP3   OH263312   5.051   1.657   6.661  0.2224 -0.3043  0.7632
13966TIP3    H163313   5.140   1.657   6.626  0.4006 -2.1435  1.1562
13966TIP3    H263314   5.060   1.618   6.748 -0.6657  1.4570  1.6700
13967TIP3   OH263315   4.270   0.832  14.681  0.2372  0.3141 -0.0463
13967TIP3    H163316   4.323   0.905  14.649 -0.1742  0.9006  0.5885
13967TIP3    H263317   4.220   0.869  14.754 -0.3772 -0.4633 -0.0661
13968TIP3   OH263318   4.010   5.449   3.461  0.5024 -0.0416 -0.1627
13968TIP3    H163319   4.004   5.539   3.493  1.5932 -0.1977  0.4885
13968TIP3    H263320   3.925   5.411   3.482  0.8017  0.1954  1.5533
13969TIP3   OH263321   3.794   3.474  14.287  0.2394 -0.4522  0.2900
13969TIP3    H163322   3.716   3.509  14.330 -0.4152 -0.6966 -0.6720
13969TIP3    H263323   3.853   3.548  14.279 -0.8571  0.2891 -1.1136
13970TIP3   OH263324   2.390   3.627   1.919  0.3520 -0.3194  0.4868
13970TIP3    H163325   2.387   3.645   2.013 -2.9958 -1.0835  0.5748
13970TIP3    H263326   2.350   3.541   1.909  0.6514 -0.2470 -1.6415
13971TIP3   OH263327   4.281   3.075   5.023  0.3469 -0.1519 -0.1562
13971TIP3    H163328   4.188   3.094   5.035  0.2071 -1.5275  1.0313
13971TIP3    H263329   4.326   3.152   5.058 -0.3214  0.4596 -0.6048
13972TIP3   OH263330   3.425   2.143  12.955  0.1171 -0.1968 -0.2911
13972TIP3    H163331   3.388   2.225  12.922 -0.2857 -0.2960 -0.0939
13972TIP3    H263332   3.397   2.139  13.046 -1.6359 -1.5503 -0.8479
13973TIP3   OH263333   2.883   5.761  16.716 -0.4103 -0.1083  0.0071
13973TIP3    H163334   2.885   5.825  16.645 -1.9155  0.3367  0.3478
13973TIP3    H263335   2.952   5.699  16.694  0.4657  1.1202 -0.8061
13974TIP3   OH263336   5.246   0.151   2.306 -0.5100  0.1254  0.6803
13974TIP3    H163337   5.235   0.082   2.371 -0.4966  0.3258  0.8920
13974TIP3    H263338   5.182   0.130   2.237 -0.1494 -0.3930  0.4975
13975TIP3   OH263339   0.397   0.399  16.458  0.9962 -0.4717 -0.1112
13975TIP3    H163340   0.456   0.402  16.383  2.2490  0.3685  0.8675
13975TIP3    H263341   0.430   0.468  16.516  0.0174 -1.0630  1.1704
13976TIP3   OH263342   3.831   3.729   0.837 -0.0683  0.4717  0.6354
13976TIP3    H163343   3.735   3.721   0.840 -0.3504  1.6280 -3.0032
13976TIP3    H263344   3.862   3.664   0.900 -3.2115 -0.9555  0.8229
13977TIP3   OH263345   1.881   5.854  16.958 -0.0912  0.6643 -0.8357
13977TIP3    H163346   1.962   5.899  16.938 -0.8263  1.6556 -1.5974
13977TIP3    H263347   1.841   5.835  16.873 -0.5964  0.0593 -0.4751
13978TIP3   OH263348   0.083   1.058   0.687 -0.1691 -0.3433  0.1311
13978TIP3    H163349   0.003   1.084   0.733 -0.2490 -1.0798  0.4059
13978TIP3    H263350   0.151   1.062   0.754 -0.1245 -0.5438  0.0960
13979TIP3   OH263351   3.258   2.065  15.709 -0.1799  0.5117  0.1187
13979TIP3    H163352   3.174   2.020  15.710  0.2192 -0.2258  0.5823
13979TIP3    H263353   3.292   2.056  15.799  1.3432 -1.0128 -0.5728
13980TIP3   OH263354   1.453   4.391   5.082  0.1328  0.1598  0.0858
13980TIP3    H163355   1.478   4.451   5.152 -0.1227  0.1155  0.2144
13980TIP3    H263356   1.448   4.305   5.124 -0.8839  0.2688  0.2092
13981TIP3   OH263357   2.759   4.430   5.470 -0.1633  0.3434  0.4404
13981TIP3    H163358   2.786   4.465   5.554  2.0867  1.5137 -0.7388
13981TIP3    H263359   2.688   4.487   5.442 -0.0475  0.7413  0.9500
13982TIP3   OH263360   6.678   4.827   0.882 -0.3946  0.5680  0.0131
13982TIP3    H163361   6.663   4.866   0.968 -0.1832  3.3235 -1.1462
13982TIP3    H263362   6.772   4.840   0.866  0.2532 -2.7679  0.6518
13983TIP3   OH263363   0.940   5.028   5.384 -0.3555 -0.4548  0.1392
13983TIP3    H163364   0.864   5.022   5.441  1.1054 -3.0728  1.9040
13983TIP3    H263365   1.008   4.977   5.428  2.1503  1.0255 -1.8486
13984TIP3   OH263366   3.727   3.450   3.930  0.5966  0.4690 -0.4842
13984TIP3    H163367   3.688   3.536   3.945 -1.2301 -0.2632 -0.8794
13984TIP3    H263368   3.796   3.443   3.996  0.6935  2.1880 -0.3868
13985TIP3   OH263369   4.370   6.452  13.412 -0.5214 -0.1866 -0.4470
13985TIP3    H163370   4.370   6.528  13.353  3.8020  0.5098  0.2501
13985TIP3    H263371   4.424   6.387  13.367 -0.8383 -1.2956  0.7535
13986TIP3   OH263372   2.056   6.375   3.855  0.1682  0.5092  0.3429
13986TIP3    H163373   2.062   6.281   3.834 -0.8808  0.7324 -1.0430
13986TIP3    H263374   2.026   6.376   3.946 -0.6113 -0.5199  0.1193
13987TIP3   OH263375   5.835   6.301  15.884 -0.6279  0.0578  0.2950
13987TIP3    H163376   5.871   6.388  15.897  0.0462 -0.1552 -0.1213
13987TIP3    H263377   5.851   6.256  15.967  0.6048 -0.2224 -0.0847
13988TIP3   OH263378   4.614   1.062   0.018 -0.8554 -0.0269 -0.0140
13988TIP3    H163379   4.576   1.030   0.100 -1.0666  0.5755  0.1263
13988TIP3    H263380   4.661   0.987  -0.018 -0.8274 -0.3161  0.6247
13989TIP3   OH263381   2.304   3.666   6.566  0.1649  0.6435 -0.1650
13989TIP3    H163382   2.251   3.606   6.514  1.6279  0.4691 -1.4717
13989TIP3    H263383   2.371   3.610   6.607 -0.8631  0.7964  1.7891
13990TIP3   OH263384   3.157   4.045   0.672 -0.6230  0.5011 -0.0873
13990TIP3    H163385   3.230   3.983   0.674  0.2443  1.5146 -0.1990
13990TIP3    H263386   3.107   4.025   0.752  0.0550  0.1565  0.2551
13991TIP3   OH263387   5.171   1.976  16.702  0.2018  0.0042 -0.0228
13991TIP3    H163388   5.219   1.925  16.636 -0.1216 -0.6031  0.2133
13991TIP3    H263389   5.091   1.927  16.717 -0.0532  0.5175  0.3035
13992TIP3   OH263390   4.724   6.566   1.956  0.5748 -0.1236 -0.4634
13992TIP3    H163391   4.638   6.550   1.994  0.0156  0.5599 -1.4257
13992TIP3    H263392   4.746   6.485   1.910  2.5302 -2.0674  3.6214
13993TIP3   OH263393   0.968   4.034  16.834  0.3461  0.2859  0.7055
13993TIP3    H163394   1.063   4.043  16.830  0.4071  0.0430  1.5692
13993TIP3    H263395   0.941   4.095  16.903  0.0393 -0.8275  1.5771
13994TIP3   OH263396   6.655   3.507  16.700  0.0188 -0.1924 -0.1335
13994TIP3    H163397   6.681   3.416  16.689  0.7762  0.1467 -1.2547
13994TIP3    H263398   6.673   3.548  16.615  0.9614  1.2953  0.7519
13995TIP3   OH263399   1.036   3.793  12.847  0.6316 -0.0131  0.2991
13995TIP3    H163400   1.014   3.812  12.756 -1.7507 -1.0465  0.6367
13995TIP3    H263401   1.089   3.714  12.843  1.7103  0.7291 -0.2798
13996TIP3   OH263402   3.070   5.645  16.522  0.3669 -0.4037 -0.3543
13996TIP3    H163403   3.144   5.596  16.558 -1.3313 -0.4222  3.3330
13996TIP3    H263404   3.001   5.580  16.510 -0.8806  0.5200  1.6221
13997TIP3   OH263405   6.521   5.121  13.963  0.0389 -0.2340  0.1582
13997TIP3    H163406   6.494   5.205  14.000  0.1080 -0.9847  1.9437
13997TIP3    H263407   6.454   5.059  13.993  0.7006 -1.0588 -0.0601
13998TIP3   OH263408   4.237   2.886   1.822  0.7775  0.2580  0.2089
13998TIP3    H163409   4.223   2.927   1.907  0.2716  2.2652 -0.8098
13998TIP3    H263410   4.149   2.872   1.787  0.9117 -2.3596  0.8128
13999TIP3   OH263411   2.897   3.465   2.189 -0.0764  0.1874  0.3147
13999TIP3    H163412   2.868   3.543   2.236  0.1172  1.0475 -0.9849
13999TIP3    H263413   2.958   3.422   2.250 -1.6531  0.0059  1.8084
14000TIP3   OH263414   0.635   3.402   1.431 -0.2833  0.0196 -0.0025
14000TIP3    H163415   0.611   3.379   1.341  1.5542  1.3771 -0.8739
14000TIP3    H263416   0.663   3.319   1.470 -1.2273 -0.6028 -0.6195
14001TIP3   OH263417   3.043   3.889  14.976 -0.2726  0.2883  0.0002
14001TIP3    H163418   3.133   3.923  14.986  0.9372 -2.8642  0.2929
14001TIP3    H263419   2.987   3.965  14.995  2.2854  1.5443  3.0872
14002TIP3   OH263420   2.874   5.755   1.032 -0.8390  0.4203 -0.0969
14002TIP3    H163421   2.828   5.834   1.004 -0.5154  1.2778  1.7173
14002TIP3    H263422   2.967   5.778   1.026 -0.7169 -0.3500 -1.0732
14003TIP3   OH263423   1.849   0.491  11.534 -0.7009  0.8255  0.1967
14003TIP3    H163424   1.860   0.402  11.501  1.8095  1.1230  0.1892
14003TIP3    H263425   1.882   0.547  11.464 -0.2052  1.6786  1.1043
14004TIP3   OH263426   0.224   3.921   4.585 -0.1074 -0.8724 -0.2045
14004TIP3    H163427   0.192   3.845   4.537 -0.2687 -0.5288 -0.6385
14004TIP3    H263428   0.309   3.941   4.545 -1.3892  0.9904 -2.0806
14005TIP3   OH263429   0.476   6.491  12.217 -0.1489 -0.0693 -0.4028
14005TIP3    H163430   0.395   6.487  12.268 -0.3066  1.0028 -0.5632
14005TIP3    H263431   0.539   6.438  12.267 -0.3522  0.8463  0.8256
14006TIP3   OH263432   0.451   6.590  10.819 -0.1004  0.1375 -0.3809
14006TIP3    H163433   0.392   6.598  10.743  0.7830  1.0347 -0.9923
14006TIP3    H263434   0.398   6.619  10.893 -1.4937 -2.2934 -0.3765
14007TIP3   OH263435   2.188   0.256   0.374  0.2582  0.2815  0.3027
14007TIP3    H163436   2.216   0.262   0.465  0.6727 -0.1742  0.2073
14007TIP3    H263437   2.128   0.182   0.372 -0.5549  0.9264  0.4024
14008TIP3   OH263438   5.123   5.700   4.963  0.6852 -0.2933 -0.1659
14008TIP3    H163439   5.176   5.628   4.929  0.4383 -0.4863 -0.1390
14008TIP3    H263440   5.068   5.727   4.889  0.6170 -0.2786 -0.1093
14009TIP3   OH263441   2.081   6.296  13.024  0.1623  0.8130  0.0107
14009TIP3    H163442   2.035   6.284  12.941  0.9995 -0.3250 -0.3074
14009TIP3    H263443   2.166   6.333  12.999  1.9660 -3.0551 -0.0787
14010TIP3   OH263444   6.009   2.104  12.502  0.1755 -0.5427  0.0684
14010TIP3    H163445   5.996   2.155  12.422  1.1373  1.8264  1.3909
14010TIP3    H263446   5.921   2.100  12.541  0.1153  0.1534  0.0053
14011TIP3   OH263447   2.794   2.927  12.268  0.1850  0.3572  0.4869
14011TIP3    H163448   2.734   2.993  12.234 -1.2859 -2.2161 -2.1108
14011TIP3    H263449   2.755   2.900  12.351 -0.2003  1.3836  0.6527
14012TIP3   OH263450   4.435   3.777  10.925 -0.2580 -0.0819  0.3489
14012TIP3    H163451   4.408   3.824  11.003  1.0356  1.7376 -0.2674
14012TIP3    H263452   4.527   3.754  10.941  0.3492  1.2532 -1.0590
14013TIP3   OH263453   1.977   0.610  15.660  0.0959 -0.0591  0.0859
14013TIP3    H163454   1.886   0.633  15.642  0.8515  2.0830 -1.1297
14013TIP3    H263455   2.012   0.685  15.707  2.1323  0.5908 -2.3787
14014TIP3   OH263456   2.110   1.462  16.861  0.1726 -1.2794  0.5333
14014TIP3    H163457   2.051   1.496  16.793  1.1150 -0.6340  0.0167
14014TIP3    H263458   2.053   1.421  16.925 -0.7667 -1.5233 -0.4500
14015TIP3   OH263459   5.594   6.303  14.045 -0.1462 -0.5088 -0.5396
14015TIP3    H163460   5.666   6.259  14.090  0.0719 -0.5280 -0.9058
14015TIP3    H263461   5.612   6.397  14.058 -0.3939 -0.5201 -0.1001
14016TIP3   OH263462   6.504   5.200   2.155 -0.4343  0.5478 -0.2631
14016TIP3    H163463   6.501   5.115   2.199  1.7897  0.2038 -0.7152
14016TIP3    H263464   6.489   5.264   2.225  0.2529 -0.1176  0.5009
14017TIP3   OH263465   5.979   0.072   6.389  0.5009  0.1064 -0.5267
14017TIP3    H163466   5.905   0.132   6.380  0.2932  0.0218  0.5853
14017TIP3    H263467   6.053   0.129   6.412  0.7921  0.1936 -1.6557
14018TIP3   OH263468   4.624   0.394   2.784  0.1085  0.3211  0.0418
14018TIP3    H163469   4.658   0.315   2.827 -1.0471  0.8654  1.9973
14018TIP3    H263470   4.531   0.377   2.771 -0.2241  1.4976  0.8022
14019TIP3   OH263471   4.850   5.137  11.792 -0.4297 -0.1494  0.3121
14019TIP3    H163472   4.887   5.151  11.879 -0.2705  0.2158  0.1855
14019TIP3    H263473   4.797   5.215  11.776  0.0627  0.0851 -0.1863
14020TIP3   OH263474   0.692   4.032  14.523 -0.0880  0.3580  0.3773
14020TIP3    H163475   0.640   3.959  14.489  1.0893 -0.3660  0.1093
14020TIP3    H263476   0.744   4.062  14.448  1.2845 -0.1578  1.1059
14021TIP3   OH263477   4.711   4.243   6.487 -0.0113 -0.4007 -0.4457
14021TIP3    H163478   4.650   4.284   6.426  1.4726  1.1404 -0.9374
14021TIP3    H263479   4.736   4.161   6.445 -2.3526 -1.4402  0.1425
14022TIP3   OH263480   1.884   5.264   2.486 -0.2483 -0.3809  0.1423
14022TIP3    H163481   1.813   5.322   2.458 -0.3825 -0.7807 -0.3582
14022TIP3    H263482   1.885   5.271   2.581  0.0260  0.7797  0.0590
14023TIP3   OH263483   0.139   5.859  15.858  0.4935 -0.2681  0.1541
14023TIP3    H163484   0.118   5.949  15.885  1.4410 -0.0969  0.3319
14023TIP3    H263485   0.089   5.804  15.917  1.3898  0.1198  1.2838
14024TIP3   OH263486   0.259   2.361   5.050  0.2229  0.0349 -0.3596
14024TIP3    H163487   0.207   2.295   5.096 -0.3259  0.5794 -0.1847
14024TIP3    H263488   0.231   2.444   5.089  1.1156  0.3452 -0.3696
14025TIP3   OH263489   6.752   4.651  11.445  0.2966 -0.0692  0.1376
14025TIP3    H163490   6.722   4.733  11.484 -1.9758 -1.0172  0.4394
14025TIP3    H263491   6.847   4.651  11.461  0.3818  2.5701 -0.0477
14026TIP3   OH263492   5.792   4.953   2.154 -0.8010 -0.0712 -0.0492
14026TIP3    H163493   5.796   5.010   2.077 -0.5790  0.0861  0.0766
14026TIP3    H263494   5.698   4.942   2.171 -0.8735 -1.6718 -1.4780
14027TIP3   OH263495   1.304   0.228  13.734  0.2441  0.1284 -0.0111
14027TIP3    H163496   1.288   0.289  13.661 -2.0115 -1.3311 -0.7928
14027TIP3    H263497   1.397   0.207  13.728  0.9503  3.1009 -0.0207
14028TIP3   OH263498   3.876   3.965   1.651 -0.1482  0.0512 -0.3660
14028TIP3    H163499   3.798   3.991   1.602 -0.0116 -0.2397 -0.7409
14028TIP3    H263500   3.921   3.903   1.593 -0.0967 -0.4595  0.2228
14029TIP3   OH263501   5.472   4.837  10.256 -0.1314 -0.0847 -0.3363
14029TIP3    H163502   5.435   4.782  10.187 -1.1650 -0.2074  0.3071
14029TIP3    H263503   5.410   4.829  10.329 -0.2507  1.8565 -0.2050
14030TIP3   OH263504   1.241   5.864   3.439 -0.1952  0.0795  0.0053
14030TIP3    H163505   1.287   5.906   3.367 -0.4213 -0.7264 -0.6229
14030TIP3    H263506   1.305   5.805   3.478  0.1470  1.0502  0.9361
14031TIP3   OH263507   5.746   3.760   2.375  0.1075  0.3848  0.4761
14031TIP3    H163508   5.810   3.797   2.436  0.9924 -1.1352  0.4829
14031TIP3    H263509   5.686   3.710   2.431 -0.6594  1.1997  0.3887
14032TIP3   OH263510   1.040   3.908   4.425 -0.3809 -0.5690 -0.3733
14032TIP3    H163511   1.103   3.911   4.497 -0.4038  2.7714 -0.4508
14032TIP3    H263512   0.995   3.823   4.437  0.2797 -0.5210  2.9656
14033TIP3   OH263513   2.438   5.859  11.557 -0.5333  0.4535 -0.4898
14033TIP3    H163514   2.466   5.774  11.591 -0.0298  0.7133 -0.2475
14033TIP3    H263515   2.443   5.918  11.633 -1.8070  0.4963 -0.4246
14034TIP3   OH263516   2.935   0.692   2.147  0.1691 -0.1229  0.1514
14034TIP3    H163517   3.008   0.752   2.139 -0.5980  0.5745 -2.0831
14034TIP3    H263518   2.858   0.748   2.154 -0.3809 -0.8215 -0.1863
14035TIP3   OH263519   2.999   6.413  12.925  0.4356  0.1053 -0.7680
14035TIP3    H163520   2.906   6.435  12.932  0.6274  0.4364  1.2612
14035TIP3    H263521   3.006   6.325  12.962  1.1063  0.5942  0.2952
14036TIP3   OH263522   2.853   4.869  12.516 -0.1604  0.4014  0.3364
14036TIP3    H163523   2.914   4.814  12.466  0.7618  1.2362  0.5167
14036TIP3    H263524   2.855   4.954  12.471 -0.3627  0.7535  0.9804
14037TIP3   OH263525   4.949   1.857  15.330  1.1456 -0.2025 -0.6031
14037TIP3    H163526   4.971   1.918  15.401  1.8018 -1.5799  0.4050
14037TIP3    H263527   5.010   1.880  15.260  1.5391  0.1671 -0.1468
14038TIP3   OH263528   2.416   4.075  14.783 -0.0353  0.5741 -0.0310
14038TIP3    H163529   2.458   4.046  14.863 -0.1491 -0.2190 -0.2586
14038TIP3    H263530   2.359   4.147  14.811 -2.5738 -1.8070  1.1694
14039TIP3   OH263531   0.772   0.620   0.416  0.5188  0.3433  0.3852
14039TIP3    H163532   0.786   0.556   0.347 -0.4905  2.2026 -1.6163
14039TIP3    H263533   0.749   0.568   0.493 -0.8836 -1.6528 -1.3245
14040TIP3   OH263534   4.187   3.132  16.063  0.0089 -0.9499  0.2683
14040TIP3    H163535   4.188   3.068  16.134 -1.3762  0.0404  1.2019
14040TIP3    H263536   4.258   3.193  16.084 -0.6481 -0.4426  0.9952
14041TIP3   OH263537   0.206   0.764  12.177 -0.9525 -0.7980  0.2136
14041TIP3    H163538   0.258   0.830  12.132  0.3217 -0.9836  1.3870
14041TIP3    H263539   0.147   0.730  12.110 -0.2583  0.1260 -0.8840
14042TIP3   OH263540   4.611   3.756   3.923 -0.1362  0.7704 -0.2414
14042TIP3    H163541   4.675   3.686   3.928 -1.4169 -0.4545 -0.7295
14042TIP3    H263542   4.618   3.789   3.833 -1.0858 -0.2383 -0.6952
14043TIP3   OH263543   4.647   1.476  14.613 -0.0561 -0.1133  0.2671
14043TIP3    H163544   4.584   1.460  14.683 -0.0315  3.2327  1.1633
14043TIP3    H263545   4.728   1.498  14.660  0.0384  1.8536 -0.7951
14044TIP3   OH263546   4.038   4.735   5.226  0.1758 -0.0938 -0.2504
14044TIP3    H163547   3.957   4.781   5.252 -0.3214 -1.6003  0.9172
14044TIP3    H263548   4.108   4.786   5.266 -0.2893  0.4184 -0.0801
14045TIP3   OH263549   6.023   0.398  12.719  0.2215 -0.5088 -0.3228
14045TIP3    H163550   6.017   0.392  12.814  1.1628 -0.7580 -0.2705
14045TIP3    H263551   6.087   0.331  12.695  0.6617  0.1592 -1.0528
14046TIP3   OH263552   5.121   3.422   1.121  0.3523 -0.0976 -0.1227
14046TIP3    H163553   5.183   3.495   1.118 -0.0164  0.1348 -2.9010
14046TIP3    H263554   5.040   3.457   1.083 -0.1352 -1.6631 -0.5726
14047TIP3   OH263555   4.893   6.305  17.182 -0.3499  0.2628 -0.2449
14047TIP3    H163556   4.936   6.381  17.143 -0.0287  0.5327  0.6118
14047TIP3    H263557   4.962   6.262  17.232 -0.6478 -0.3287 -0.3468
14048TIP3   OH263558   6.128   3.836  14.373  0.3738 -0.4031  0.0275
14048TIP3    H163559   6.149   3.753  14.416 -1.6611 -1.4847 -0.9904
14048TIP3    H263560   6.119   3.899  14.445  4.5153 -0.3947  0.6510
14049TIP3   OH263561   5.673   1.381  12.107 -0.7973  0.7179  0.6077
14049TIP3    H163562   5.614   1.447  12.144 -0.5637  1.4920 -0.3824
14049TIP3    H263563   5.628   1.349  12.029 -0.2334  0.7791  0.2557
14050TIP3   OH263564   5.189   1.904   3.391  0.8355  0.2561  0.3814
14050TIP3    H163565   5.113   1.897   3.332 -0.1853  0.0732  1.7077
14050TIP3    H263566   5.151   1.920   3.477  2.3456  0.8700  0.9386
14051TIP3   OH263567   0.880   5.860   0.715  0.0801  0.0294 -0.3307
14051TIP3    H163568   0.846   5.779   0.752 -0.5546  0.7370  0.6895
14051TIP3    H263569   0.888   5.919   0.790  2.6872  0.1980 -0.7048
14052TIP3   OH263570   4.399   0.280  17.013  0.4938 -0.1293  0.1634
14052TIP3    H163571   4.324   0.264  17.070 -0.0388  1.6978  0.0165
14052TIP3    H263572   4.471   0.234  17.056 -0.3036 -0.3491  1.3137
14053TIP3   OH263573   0.445   5.242  15.591 -0.1041 -0.6782  0.5840
14053TIP3    H163574   0.471   5.334  15.587 -0.0681 -0.7506 -1.3452
14053TIP3    H263575   0.389   5.230  15.515 -0.6122 -2.1020  1.1751
14054TIP3   OH263576   3.667   6.739  14.034 -0.0679 -0.3981  0.3806
14054TIP3    H163577   3.660   6.829  14.003 -1.2731 -0.4318  0.5235
14054TIP3    H263578   3.754   6.710  14.005  1.3565  1.6038  2.4733
14055TIP3   OH263579   2.599   6.711   5.422 -0.1246  0.5176  0.1891
14055TIP3    H163580   2.589   6.664   5.505 -0.8201  2.0429  0.9928
14055TIP3    H263581   2.560   6.653   5.356 -3.3196  1.0397  1.5377
14056TIP3   OH263582   1.304   3.316   1.714  0.2749  0.4723 -0.2889
14056TIP3    H163583   1.348   3.323   1.798  3.4853  2.3712 -2.0116
14056TIP3    H263584   1.347   3.243   1.669 -0.4453  0.3616 -0.8157
14057TIP3   OH263585   0.271   5.281   4.010 -0.1670  0.0347  0.1691
14057TIP3    H163586   0.346   5.241   4.055  0.0650  0.5702  0.2547
14057TIP3    H263587   0.240   5.348   4.070 -0.7624 -0.2362  0.1654
14058TIP3   OH263588   1.842   6.632  11.599  0.2783 -0.5129 -0.2107
14058TIP3    H163589   1.795   6.704  11.557  1.0170  0.0744 -0.0355
14058TIP3    H263590   1.791   6.613  11.678  2.3893  2.7174  2.0543
14059TIP3   OH263591   0.347   4.701  12.453  0.1336  0.3441 -0.5563
14059TIP3    H163592   0.367   4.643  12.380 -2.6592 -1.0289 -0.3290
14059TIP3    H263593   0.344   4.643  12.529  0.5907  1.3528  0.2368
14060TIP3   OH263594   3.239   5.564   1.953  0.3377  0.3278 -0.0845
14060TIP3    H163595   3.303   5.606   1.895  0.5622  3.2138  2.1693
14060TIP3    H263596   3.285   5.486   1.986  0.9324 -0.2288 -2.1081
14061TIP3   OH263597   1.806   4.198  15.165 -0.0915  0.1296 -0.2310
14061TIP3    H163598   1.857   4.274  15.193 -1.1526  1.3276 -1.4589
14061TIP3    H263599   1.795   4.146  15.245  3.1058 -0.2253  0.0154
14062TIP3   OH263600   6.571   1.298  10.989 -0.1996 -0.2970 -0.3026
14062TIP3    H163601   6.549   1.366  10.925  0.7709  1.7116  1.4327
14062TIP3    H263602   6.516   1.223  10.965 -1.4494  1.1730 -2.1289
14063TIP3   OH263603   4.445   5.549  12.288  1.0911 -0.0843  0.4726
14063TIP3    H163604   4.533   5.575  12.314  1.6064  0.7841 -1.9517
14063TIP3    H263605   4.424   5.607  12.214  0.6762 -3.8558 -2.5033
14064TIP3   OH263606   5.667   2.749   3.987  0.0439 -0.2044 -0.5453
14064TIP3    H163607   5.698   2.840   3.986 -1.1325  0.2017 -0.5773
14064TIP3    H263608   5.740   2.699   3.950 -0.2286  1.0276 -2.9038
14065TIP3   OH263609   4.425   2.912  17.081 -0.3255  0.1332 -0.1985
14065TIP3    H163610   4.484   2.854  17.032  1.0134  0.7881  0.6029
14065TIP3    H263611   4.374   2.958  17.014 -0.0905 -0.6153 -0.8926
14066TIP3   OH263612   5.369   5.524  14.517 -0.2288 -0.1233 -0.2269
14066TIP3    H163613   5.413   5.526  14.602  1.0221 -1.5571 -0.8309
14066TIP3    H263614   5.342   5.615  14.503  0.1524  0.2612  1.3881
14067TIP3   OH263615   5.518   5.291   5.891  0.2104  0.0518 -0.3969
14067TIP3    H163616   5.594   5.327   5.936 -0.6249  1.0673  0.2457
14067TIP3    H263617   5.528   5.196   5.899  1.4537  0.1747 -0.4193
14068TIP3   OH263618   6.308   3.095  13.123 -0.1185  0.6260  0.4723
14068TIP3    H163619   6.244   3.123  13.057  0.6790  0.0668 -0.5332
14068TIP3    H263620   6.335   3.008  13.096  0.8565  0.7379  1.0698
14069TIP3   OH263621   2.937   5.666   3.542  0.0808  0.4770 -0.3748
14069TIP3    H163622   2.956   5.615   3.621 -0.9280  1.0237  0.2364
14069TIP3    H263623   3.023   5.688   3.506  0.5404 -1.0098 -0.2359
14070TIP3   OH263624   0.930   5.948  13.081 -0.3403  0.2937  0.5413
14070TIP3    H163625   0.893   5.874  13.032 -0.0340 -0.2161  1.0678
14070TIP3    H263626   0.854   6.001  13.106 -0.3502  1.6826 -2.2327
14071TIP3   OH263627   1.229   6.728  15.893  0.5065  0.6314  0.4026
14071TIP3    H163628   1.159   6.778  15.934 -1.0911 -2.0529  1.0434
14071TIP3    H263629   1.190   6.693  15.813  0.7580 -1.7916  1.3171
14072TIP3   OH263630   2.707   3.420   6.414 -0.3392 -0.2202 -0.3786
14072TIP3    H163631   2.648   3.418   6.339  0.3049  0.1885 -0.9127
14072TIP3    H263632   2.650   3.415   6.490 -1.0232 -0.3260 -0.8951
14073TIP3   OH263633   2.680   4.540  14.141  0.2007 -0.3568 -0.3317
14073TIP3    H163634   2.585   4.533  14.151  0.2585 -1.7196 -0.6883
14073TIP3    H263635   2.692   4.578  14.054 -0.0520  1.9680  0.6091
14074TIP3   OH263636   6.189   4.549  12.361  0.5529  0.6818 -0.1244
14074TIP3    H163637   6.161   4.616  12.423 -0.8086  1.2934 -1.3658
14074TIP3    H263638   6.211   4.597  12.281 -1.9599 -0.4663 -1.5538
14075TIP3   OH263639   3.100   6.222  12.483  0.1179 -0.4819  0.2677
14075TIP3    H163640   3.193   6.211  12.464 -0.0049 -0.2829 -0.4610
14075TIP3    H263641   3.093   6.212  12.578  0.5645 -2.7257  0.0747
14076TIP3   OH263642   1.899   4.505  14.564 -0.5414  0.0261  0.2230
14076TIP3    H163643   1.875   4.542  14.648  0.8173  2.0922 -0.2626
14076TIP3    H263644   1.992   4.485  14.572 -1.0633 -2.5779  0.1941
14077TIP3   OH263645   4.625   0.818   3.776 -0.1325  0.0576 -0.0810
14077TIP3    H163646   4.669   0.808   3.692 -0.8885  0.9065 -0.5820
14077TIP3    H263647   4.574   0.898   3.768 -1.4429 -0.6764  0.6411
14078TIP3   OH263648   5.256   2.598  11.367 -0.2804  0.3663  0.0985
14078TIP3    H163649   5.290   2.539  11.435 -1.3233 -1.2414 -0.7251
14078TIP3    H263650   5.161   2.587  11.372 -0.3953  0.6317 -1.2526
14079TIP3   OH263651   4.113   6.762  10.598  0.5305  0.2620 -0.2906
14079TIP3    H163652   4.125   6.837  10.656  0.3931 -1.3143  1.8116
14079TIP3    H263653   4.046   6.791  10.535 -0.5477  1.3962  1.3552
14080TIP3   OH263654   2.348   2.296   4.247 -0.6656  0.5825  0.3627
14080TIP3    H163655   2.323   2.213   4.288 -0.9335  1.3947  1.8593
14080TIP3    H263656   2.412   2.271   4.181 -1.5922 -0.9497  0.0139
14081TIP3   OH263657   4.748   4.982  13.958 -0.4043  0.3320 -0.1827
14081TIP3    H163658   4.726   4.897  13.997 -1.6507 -0.3980 -2.3794
14081TIP3    H263659   4.836   5.001  13.990 -0.2370 -1.6564  0.5879
14082TIP3   OH263660   1.184   5.721   4.032 -0.4879  0.1046  0.1983
14082TIP3    H163661   1.160   5.631   4.054 -0.6013 -0.5182 -2.3750
14082TIP3    H263662   1.102   5.770   4.039 -0.8479 -0.4006 -0.5049
14083TIP3   OH263663   3.524   6.075  15.707 -0.5944  0.0122  0.9042
14083TIP3    H163664   3.538   6.164  15.738 -0.9470 -0.1645  1.5723
14083TIP3    H263665   3.453   6.083  15.643  0.3524  0.4224 -0.1241
14084TIP3   OH263666   2.806   2.633   2.100 -0.3790 -0.3225  0.7609
14084TIP3    H163667   2.784   2.722   2.073 -2.0386 -0.3173  2.0454
14084TIP3    H263668   2.901   2.629   2.093 -0.1845  1.8844  1.6650
14085TIP3   OH263669   6.039   3.269   2.131 -0.2405  0.5483 -0.5945
14085TIP3    H163670   5.947   3.274   2.157  0.6179  0.4948  2.6862
14085TIP3    H263671   6.052   3.347   2.076 -2.4586  0.0210 -1.9496
14086TIP3   OH263672   4.758   5.315   5.167 -0.3085 -0.0953 -0.5400
14086TIP3    H163673   4.813   5.240   5.189  0.2038  0.9120  1.6925
14086TIP3    H263674   4.787   5.341   5.079 -0.0333 -2.0741 -1.0505
14087TIP3   OH263675   3.085   0.055  12.771  0.3638  0.0488 -0.0887
14087TIP3    H163676   3.066   0.129  12.714  0.9764  0.4077  0.1735
14087TIP3    H263677   3.005   0.001  12.767  0.1832  0.3653 -0.8146
14088TIP3   OH263678   3.839   1.746   2.955  0.2640 -0.5058 -0.4027
14088TIP3    H163679   3.871   1.833   2.977  0.8353 -0.8239  0.0309
14088TIP3    H263680   3.836   1.746   2.859  0.9439 -0.2500 -0.4290
14089TIP3   OH263681   6.343   3.043   5.816 -0.1628 -0.0707  0.5290
14089TIP3    H163682   6.370   3.122   5.864  0.2306 -0.2312  0.5742
14089TIP3    H263683   6.401   2.974   5.849  1.6548  0.2805 -1.7699
14090TIP3   OH263684   0.155   5.606  15.732  0.0703 -0.1196  0.1976
14090TIP3    H163685   0.128   5.537  15.792  0.8310 -1.3399 -0.8441
14090TIP3    H263686   0.125   5.687  15.774 -2.8162 -1.2155  0.3745
14091TIP3   OH263687   6.594   1.225  14.492 -0.0832 -0.0323  0.1731
14091TIP3    H163688   6.562   1.314  14.506  0.3885  0.3523 -1.1263
14091TIP3    H263689   6.536   1.189  14.425  0.1692 -0.4552  0.1794
14092TIP3   OH263690   0.065   3.131  12.403  0.3785 -0.4809  0.2201
14092TIP3    H163691   0.015   3.084  12.336  2.0312 -0.0072 -1.3788
14092TIP3    H263692   0.077   3.067  12.473 -1.8496 -0.8144  0.3391
14093TIP3   OH263693   1.203   3.469   2.886 -0.1136  0.2662 -0.8213
14093TIP3    H163694   1.202   3.559   2.854  1.7098  0.0004 -1.6616
14093TIP3    H263695   1.180   3.416   2.809 -1.1073 -0.0048 -0.3480
14094TIP3   OH263696   1.327   5.978  12.082 -0.5865  0.0780 -0.1769
14094TIP3    H163697   1.317   6.041  12.011  0.7919  1.1594  0.5726
14094TIP3    H263698   1.265   5.908  12.060 -1.0795  0.9813 -1.7775
14095TIP3   OH263699   0.913   2.342   0.269  0.4614 -0.0116 -0.4251
14095TIP3    H163700   0.914   2.429   0.309  0.2242  0.0082 -0.4623
14095TIP3    H263701   0.966   2.288   0.329 -0.0022 -0.0126 -0.0164
14096TIP3   OH263702   6.719   6.592  16.458  0.0697 -0.4413 -0.2771
14096TIP3    H163703   6.786   6.524  16.461  1.0922  0.4465 -2.0171
14096TIP3    H263704   6.723   6.625  16.368 -2.0386  0.2992 -0.1330
14097TIP3   OH263705   1.526   2.231   1.488  0.0996 -0.2750  0.0666
14097TIP3    H163706   1.552   2.268   1.573 -2.4155 -0.4575  0.9504
14097TIP3    H263707   1.506   2.139   1.508 -0.2205 -0.3929 -0.7952
14098TIP3   OH263708   0.353   0.896  11.542 -0.4078 -0.3529  0.3870
14098TIP3    H163709   0.436   0.943  11.551  0.1329 -1.4165  1.2241
14098TIP3    H263710   0.374   0.821  11.486 -1.5474  1.0319 -1.9572
14099TIP3   OH263711   6.781   2.696  13.029  0.1862 -0.2345  0.4270
14099TIP3    H163712   6.755   2.782  12.994 -0.0848 -0.3031  0.4580
14099TIP3    H263713   6.739   2.633  12.971  0.2461 -0.3479  0.5077
14100TIP3   OH263714   4.706   2.499   3.917 -0.0304  0.0922 -0.0587
14100TIP3    H163715   4.694   2.483   4.010 -0.0047  2.3156  0.3582
14100TIP3    H263716   4.659   2.428   3.874  0.3910 -1.2465  1.6436
14101TIP3   OH263717   0.550   0.661  15.888 -0.5412  0.2526  0.1380
14101TIP3    H163718   0.626   0.718  15.876 -1.5797  1.1890 -2.3708
14101TIP3    H263719   0.517   0.682  15.975 -0.0813  2.5256 -0.2069
14102TIP3   OH263720   3.176   4.155   2.752  0.3980 -0.2373 -0.1573
14102TIP3    H163721   3.098   4.121   2.796  1.4736 -0.8294  1.3539
14102TIP3    H263722   3.143   4.195   2.672 -1.3888 -0.9943  0.1724
14103TIP3   OH263723   1.834   1.639  13.796  0.1391 -0.1602  0.2868
14103TIP3    H163724   1.833   1.720  13.745  0.3853 -0.2199  0.1877
14103TIP3    H263725   1.825   1.570  13.730  0.4537 -0.2372  0.3281
14104TIP3   OH263726   2.006   0.537  14.301 -0.3251  0.4426  0.4912
14104TIP3    H163727   2.000   0.512  14.209 -1.1157  1.0131  0.3764
14104TIP3    H263728   1.921   0.511  14.338 -0.1308  0.5017  0.9845
14105TIP3   OH263729   3.216   3.904  12.882  0.4692  0.4031 -0.4162
14105TIP3    H163730   3.199   3.994  12.910  0.4451  0.5473 -0.8872
14105TIP3    H263731   3.294   3.878  12.930 -0.0160  0.3754  0.3735
14106TIP3   OH263732   0.055   6.077   4.865  0.3783  0.5466 -0.9694
14106TIP3    H163733   0.130   6.128   4.832  1.1838 -0.1458 -0.2422
14106TIP3    H263734   0.077   5.986   4.845 -0.2620  0.3334 -0.7224
14107TIP3   OH263735   4.932   1.912  16.101  0.1690 -0.5577  0.7747
14107TIP3    H163736   4.909   1.819  16.101  2.2155 -1.0862  0.8784
14107TIP3    H263737   5.017   1.916  16.057  0.2051  1.2330  0.9700
14108TIP3   OH263738   2.778   3.756   1.282 -0.3393 -0.1359  0.1851
14108TIP3    H163739   2.743   3.811   1.352  1.7540  0.9648  0.4112
14108TIP3    H263740   2.803   3.675   1.325  0.1057  0.1921  0.5415
14109TIP3   OH263741   0.499   4.340  13.538  0.1267 -0.0375  0.1688
14109TIP3    H163742   0.521   4.249  13.516  1.1154  0.4157 -0.7653
14109TIP3    H263743   0.419   4.358  13.490  1.9717  0.7656 -2.7385
14110TIP3   OH263744   4.494   1.018   5.983 -0.3276  0.3952 -0.1417
14110TIP3    H163745   4.510   0.934   6.025  0.5845  0.4170 -0.4465
14110TIP3    H263746   4.509   1.083   6.052  1.5777  0.4562 -0.5760
14111TIP3   OH263747   5.271   3.463  15.713 -0.0104 -0.9835 -0.3343
14111TIP3    H163748   5.302   3.462  15.803 -1.7373 -1.3847  0.2811
14111TIP3    H263749   5.291   3.551  15.681  0.0642 -0.6494  0.6263
14112TIP3   OH263750   3.069   0.495   0.152 -0.1392  0.6073  0.3373
14112TIP3    H163751   3.112   0.581   0.148  0.5261  0.3932  2.2780
14112TIP3    H263752   3.003   0.498   0.082 -0.0578  2.6507  0.3108
14113TIP3   OH263753   4.000   5.697  15.152 -0.3111 -0.5468  0.5638
14113TIP3    H163754   3.989   5.685  15.058 -1.4772  0.7575  0.5258
14113TIP3    H263755   4.090   5.728  15.162 -0.3615 -0.1645 -0.1678
14114TIP3   OH263756   1.617   0.319   3.269 -0.4251 -0.0274 -0.1068
14114TIP3    H163757   1.706   0.352   3.256 -0.0376 -0.7327  0.7282
14114TIP3    H263758   1.592   0.351   3.355 -0.9963  0.1797 -0.3444
14115TIP3   OH263759   1.679   5.995  11.917 -0.0092  0.0898 -0.3348
14115TIP3    H163760   1.704   5.978  12.008 -1.8133 -0.6149  0.0528
14115TIP3    H263761   1.638   6.082  11.920  2.8098  1.5084 -1.0689
14116TIP3   OH263762   1.302   0.388   1.791  0.4604 -0.2609  0.0757
14116TIP3    H163763   1.219   0.343   1.776 -0.6542  2.0042 -0.7043
14116TIP3    H263764   1.325   0.367   1.882 -1.1119 -0.6547  0.3849
14117TIP3   OH263765   4.654   2.523   0.177 -0.3543 -0.1543  0.8495
14117TIP3    H163766   4.742   2.491   0.159 -1.3368 -3.2648  1.3215
14117TIP3    H263767   4.597   2.468   0.125 -2.0725  1.7321  0.6630
14118TIP3   OH263768   3.312   0.189  11.385 -0.6397 -0.0316 -0.4593
14118TIP3    H163769   3.290   0.188  11.292 -0.6636 -1.0485 -0.4480
14118TIP3    H263770   3.310   0.096  11.411  0.2929  0.1642  0.3296
14119TIP3   OH263771   2.961   1.798   0.124  0.4396 -0.0097 -0.0372
14119TIP3    H163772   3.018   1.874   0.119  1.2979 -0.6479 -0.0562
14119TIP3    H263773   2.992   1.750   0.201  0.5356 -0.8377 -0.5870
14120TIP3   OH263774   0.976   3.976  13.056  0.1532 -0.5948 -0.0545
14120TIP3    H163775   0.999   3.915  12.986  1.7779  1.7226 -1.6157
14120TIP3    H263776   1.059   4.017  13.081 -0.7208  0.1303  1.7839
14121TIP3   OH263777   3.042   0.225   2.657  0.1669 -0.3968  0.6394
14121TIP3    H163778   3.070   0.296   2.715  0.0460  0.3598 -0.2206
14121TIP3    H263779   3.105   0.155   2.673  2.4314  1.1687 -1.0602
14122TIP3   OH263780   4.115   6.060   2.864  0.7896  0.2076 -0.4219
14122TIP3    H163781   4.091   6.083   2.954  0.3365 -3.1813  0.4015
14122TIP3    H263782   4.037   6.018   2.828  1.1526  1.0429 -2.2577
14123TIP3   OH263783   3.749   2.968  17.083 -0.0809 -0.0407  0.1893
14123TIP3    H163784   3.791   2.929  17.007 -2.2303  0.2381 -1.2017
14123TIP3    H263785   3.764   2.906  17.154  0.8732 -0.9156 -0.7638
14124TIP3   OH263786   1.640   1.364   1.959  0.7749 -0.1836  0.3141
14124TIP3    H163787   1.586   1.416   2.018 -0.2096 -0.1388 -0.6057
14124TIP3    H263788   1.689   1.428   1.908  0.4326 -0.1861 -0.0174
14125TIP3   OH263789   3.238   0.831   3.035 -0.6394 -0.3696 -0.7179
14125TIP3    H163790   3.183   0.797   3.105 -0.8568 -0.0138 -0.7156
14125TIP3    H263791   3.323   0.846   3.076 -0.5578 -0.8492 -0.7048
14126TIP3   OH263792   0.299   2.837  11.495  0.2835 -0.3443 -0.2189
14126TIP3    H163793   0.315   2.862  11.586 -0.6876  1.3032 -0.4593
14126TIP3    H263794   0.294   2.742  11.495  0.0705 -0.3345  1.4995
14127TIP3   OH263795   6.613   5.752  11.763  0.1653  0.3050  0.1193
14127TIP3    H163796   6.613   5.819  11.694 -1.0830  0.9360  0.7151
14127TIP3    H263797   6.522   5.725  11.771  0.6095 -1.2637  0.1039
14128TIP3   OH263798   4.788   2.881   4.518  0.3045 -0.5454 -0.0659
14128TIP3    H163799   4.778   2.790   4.492 -0.5799 -0.8922  1.4195
14128TIP3    H263800   4.879   2.903   4.497  0.5476 -1.7864 -0.3346
14129TIP3   OH263801   1.013   5.835  12.350 -0.3005  0.1469  1.0044
14129TIP3    H163802   0.948   5.765  12.358  0.5306 -0.8156 -0.3857
14129TIP3    H263803   1.096   5.789  12.333  0.4838  1.4109  1.3447
14130TIP3   OH263804   2.919   0.029   2.015  0.3114 -0.2568  0.1879
14130TIP3    H163805   2.904  -0.063   1.994 -0.8018 -0.3542  1.3435
14130TIP3    H263806   2.923   0.072   1.930 -0.2053 -1.2159 -0.3427
14131TIP3   OH263807   3.891   3.829   5.863 -0.1989  0.0653 -0.1495
14131TIP3    H163808   3.917   3.790   5.947 -1.7320  0.2319  0.4233
14131TIP3    H263809   3.970   3.870   5.830  0.1978  0.8548  1.7159
14132TIP3   OH263810   5.661   4.221   3.213 -0.6839 -0.3160 -0.6727
14132TIP3    H163811   5.616   4.301   3.239 -0.4848 -0.4086 -0.0185
14132TIP3    H263812   5.664   4.224   3.118  1.0354  1.3774 -0.5775
14133TIP3   OH263813   3.176   2.571   3.864 -0.3228  0.0839 -0.3534
14133TIP3    H163814   3.151   2.522   3.786 -2.0985  0.7929 -0.2477
14133TIP3    H263815   3.267   2.595   3.849 -0.2170 -1.0181 -1.5524
14134TIP3   OH263816   4.251   6.079   0.261  0.4213  0.6347 -0.1213
14134TIP3    H163817   4.328   6.135   0.255  0.7397  0.1696 -0.4474
14134TIP3    H263818   4.194   6.122   0.325  1.4449  0.3811  0.9743
14135TIP3   OH263819   3.500   2.176  16.757  0.4148 -0.2593  0.0130
14135TIP3    H163820   3.497   2.269  16.777  0.2381 -0.5282  1.2856
14135TIP3    H263821   3.521   2.172  16.663 -2.1383  1.0871 -0.6683
14136TIP3   OH263822   4.212   2.621   2.935 -0.3492 -0.0164  0.2830
14136TIP3    H163823   4.146   2.659   2.876 -0.9611 -0.4212  0.7047
14136TIP3    H263824   4.236   2.538   2.895  1.0353  0.8268 -0.6722
14137TIP3   OH263825   2.460   4.784  16.925  0.2843 -0.1929 -0.6996
14137TIP3    H163826   2.427   4.862  16.879  0.7514  1.0889  1.0803
14137TIP3    H263827   2.542   4.812  16.964 -1.3614 -0.4046  3.1346
14138TIP3   OH263828   3.157   0.235   0.139 -0.4156  0.0389  0.1027
14138TIP3    H163829   3.131   0.326   0.129 -0.3512  0.2243  1.5219
14138TIP3    H263830   3.243   0.229   0.096  0.0367  0.8777  0.8939
14139TIP3   OH263831   0.857   2.721   3.360  0.5699 -0.5626 -0.3529
14139TIP3    H163832   0.930   2.778   3.337 -0.0057  0.3101 -0.0588
14139TIP3    H263833   0.883   2.679   3.442 -0.0144  1.1571  0.7434
14140TIP3   OH263834   4.974   4.670   1.143 -0.9289  0.3893  0.4127
14140TIP3    H163835   4.993   4.763   1.135 -1.8821  0.5331 -0.3346
14140TIP3    H263836   4.975   4.652   1.237 -0.3076  1.0541  0.5308
14141TIP3   OH263837   5.707   4.899   1.377 -0.0489 -0.7855 -0.5204
14141TIP3    H163838   5.650   4.847   1.433  0.5628 -1.9385 -0.9568
14141TIP3    H263839   5.736   4.839   1.309  0.5564  0.1628 -1.1196
14142TIP3   OH263840   3.524   3.181  12.218 -0.2381 -0.0410 -0.4767
14142TIP3    H163841   3.450   3.178  12.278  0.4752  3.5330  0.7074
14142TIP3    H263842   3.595   3.136  12.266  0.0609  1.9670  1.0345
14143TIP3   OH263843   3.307   6.352   0.178  0.0382 -0.3573  0.2317
14143TIP3    H163844   3.316   6.265   0.217  0.2682 -0.1930  0.5383
14143TIP3    H263845   3.345   6.412   0.242 -1.4999  0.1344  0.6900
14144TIP3   OH263846   4.170   1.944  14.228 -0.4514  0.1640 -0.0532
14144TIP3    H163847   4.132   1.875  14.282  2.4972 -0.4999  1.2678
14144TIP3    H263848   4.119   2.022  14.250 -0.9293 -0.6484  1.8310
14145TIP3   OH263849   2.301   5.442   5.034  0.2099  0.2021  0.2076
14145TIP3    H163850   2.326   5.352   5.014 -1.9511 -0.1150 -1.1289
14145TIP3    H263851   2.281   5.441   5.127 -0.4109 -0.8298  0.0673
14146TIP3   OH263852   6.095   3.886   4.979 -0.0825 -0.1008 -0.3838
14146TIP3    H163853   6.169   3.942   5.002 -0.4039 -0.1288  0.7401
14146TIP3    H263854   6.115   3.856   4.890  1.0669  0.1936 -0.2393
14147TIP3   OH263855   0.207   3.656   3.705 -0.1307  0.2347 -0.0053
14147TIP3    H163856   0.226   3.742   3.666 -0.2802 -0.2400 -1.1595
14147TIP3    H263857   0.256   3.656   3.787  1.7622  0.5500 -1.0861
14148TIP3   OH263858   5.310   2.269   0.835  0.5561 -0.0763 -0.2803
14148TIP3    H163859   5.369   2.203   0.799 -2.2670 -2.8179 -0.1064
14148TIP3    H263860   5.271   2.227   0.912  0.8621  2.9119  1.5967
14149TIP3   OH263861   5.004   6.265  15.392 -0.3042  0.1593 -0.3792
14149TIP3    H163862   4.984   6.299  15.305 -1.7752  0.0711 -0.0932
14149TIP3    H263863   5.099   6.266  15.397 -0.1896 -0.2499 -2.1548
14150TIP3   OH263864   3.946   1.946   3.162 -0.2956 -0.2437 -0.1151
14150TIP3    H163865   3.959   1.995   3.244  0.6425 -0.4522 -0.1301
14150TIP3    H263866   4.032   1.908   3.144 -0.2833  0.4663 -1.6204
14151TIP3   OH263867   3.528   1.235   0.886  0.2240  0.0223 -0.2501
14151TIP3    H163868   3.499   1.143   0.882 -1.8948  0.7028 -1.4134
14151TIP3    H263869   3.545   1.251   0.979 -1.0705 -1.0521  0.1895
14152TIP3   OH263870   1.408   5.771   0.583  0.1477  0.0719  0.1644
14152TIP3    H163871   1.352   5.791   0.508  0.3254  1.6222  0.4352
14152TIP3    H263872   1.464   5.848   0.592  0.4823 -0.3263  1.5780
14153TIP3   OH263873   1.125   1.547  17.028  0.1671  0.4310 -0.1856
14153TIP3    H163874   1.066   1.516  16.958 -0.4413  1.9991 -0.3891
14153TIP3    H263875   1.160   1.630  16.994  1.1088  0.4011  0.7037
14154TIP3   OH263876   6.033   2.907   0.027 -0.6950  0.3430  0.7497
14154TIP3    H163877   6.040   2.993  -0.015 -1.1452  0.0950  0.1496
14154TIP3    H263878   6.036   2.926   0.120 -1.0476  1.0379  0.6232
14155TIP3   OH263879   4.454   0.395   3.818  0.0933 -0.3270 -0.4016
14155TIP3    H163880   4.438   0.301   3.823  0.4959 -0.4562 -1.3803
14155TIP3    H263881   4.509   0.406   3.740 -0.0127  0.7234 -0.3409
14156TIP3   OH263882   3.997   3.512   4.990 -0.7739  0.6638 -0.3873
14156TIP3    H163883   3.967   3.562   4.915 -1.1828  2.2186  0.7825
14156TIP3    H263884   4.078   3.555   5.018 -1.0827  0.6411  0.5782
14157TIP3   OH263885   1.825   1.213  13.542 -0.1832 -0.0578  0.4260
14157TIP3    H163886   1.857   1.190  13.629  1.6421 -1.1705 -0.5166
14157TIP3    H263887   1.781   1.134  13.510 -1.5534  0.6075  0.6593
14158TIP3   OH263888   1.756   1.626   4.448 -0.2843  0.1023 -0.5741
14158TIP3    H163889   1.717   1.694   4.504  1.0395  1.0991 -0.8533
14158TIP3    H263890   1.712   1.546   4.475 -0.2308  0.6926  1.3719
14159TIP3   OH263891   0.576   1.007   0.494  0.3438 -0.0753 -0.4144
14159TIP3    H163892   0.515   1.081   0.490  1.6449  0.9669 -1.6288
14159TIP3    H263893   0.659   1.046   0.521  0.7614 -1.2975  0.1017
14160TIP3   OH263894   0.316   5.209   2.667 -0.6568  0.2128  0.0110
14160TIP3    H163895   0.287   5.297   2.690 -1.9334 -0.3436  0.5861
14160TIP3    H263896   0.389   5.191   2.727  0.3116  1.2715 -0.8259
14161TIP3   OH263897   4.643   0.442  15.580 -0.1019  0.1468 -0.3090
14161TIP3    H163898   4.559   0.414  15.617  0.6755 -1.3834  0.3199
14161TIP3    H263899   4.672   0.513  15.637 -0.7963  0.4692 -0.3437
14162TIP3   OH263900   4.499   3.046  16.635  0.0461 -0.1923 -0.2043
14162TIP3    H163901   4.466   3.074  16.549  0.4938 -0.3577 -0.4338
14162TIP3    H263902   4.434   2.983  16.667 -0.6798  0.6825  0.0626
14163TIP3   OH263903   5.044   3.519  12.521 -0.0687 -0.2848 -0.1481
14163TIP3    H163904   5.076   3.436  12.557  1.2174  0.9438  1.6559
14163TIP3    H263905   5.048   3.508  12.426  1.2577 -1.8573  0.0724
14164TIP3   OH263906   1.216   3.491  12.798  0.5461  0.0209 -0.4609
14164TIP3    H163907   1.210   3.395  12.800  1.2755 -0.0202  1.7111
14164TIP3    H263908   1.213   3.517  12.890 -2.9693  2.3416 -1.1053
14165TIP3   OH263909   4.454   5.549   4.196 -0.1287  0.2310  0.2928
14165TIP3    H163910   4.549   5.545   4.201 -0.0975 -0.0516 -0.3970
14165TIP3    H263911   4.435   5.561   4.103 -0.7364  1.3783  0.5510
14166TIP3   OH263912   4.721   6.336  13.437  0.2419  0.4558 -0.4893
14166TIP3    H163913   4.705   6.248  13.402 -1.1201  0.2473  0.6113
14166TIP3    H263914   4.770   6.381  13.368 -0.0195 -0.8052 -1.5134
14167TIP3   OH263915   4.305   3.331  12.232 -0.0168  0.4546 -0.2552
14167TIP3    H163916   4.318   3.373  12.317 -0.3208 -1.7836  0.9400
14167TIP3    H263917   4.351   3.388  12.170  1.9678  1.0600  1.6911
14168TIP3   OH263918   0.133   4.406  12.891 -0.0238  0.2751 -0.1637
14168TIP3    H163919   0.172   4.359  12.818  0.3126 -0.4517  0.4711
14168TIP3    H263920   0.177   4.370  12.969 -0.2981  1.1108  0.3795
14169TIP3   OH263921   2.092   2.098   5.858 -0.1618  0.4095 -0.2492
14169TIP3    H163922   2.148   2.032   5.817 -1.6677 -1.3339  0.4493
14169TIP3    H263923   2.029   2.047   5.910 -2.1709  2.3258 -0.7372
14170TIP3   OH263924   1.894   1.112  12.356 -0.0415 -0.2512 -0.0196
14170TIP3    H163925   1.882   1.171  12.281  2.3237 -0.8831 -0.9449
14170TIP3    H263926   1.962   1.154  12.409  1.1069 -1.7286 -0.2830
14171TIP3   OH263927   5.748   1.217  12.927 -0.1439 -0.6423  0.5547
14171TIP3    H163928   5.785   1.302  12.903 -0.0785 -0.5493  0.9933
14171TIP3    H263929   5.776   1.203  13.017  0.8836 -1.6990  0.0834
14172TIP3   OH263930   4.041   3.157   2.174  0.6345 -0.1622 -0.5477
14172TIP3    H163931   3.951   3.180   2.153  1.0457  0.8277 -1.2666
14172TIP3    H263932   4.089   3.240   2.173  1.9776 -0.9088 -2.3409
14173TIP3   OH263933   4.179   3.602   5.450 -0.7021 -0.3582  0.4865
14173TIP3    H163934   4.093   3.628   5.416 -0.3246  1.6295  0.9940
14173TIP3    H263935   4.161   3.573   5.540 -1.0585 -1.4581  0.0695
14174TIP3   OH263936   1.353   2.324   2.133  0.7069  0.2038 -0.3912
14174TIP3    H163937   1.282   2.294   2.076  0.3143  1.0062 -0.3270
14174TIP3    H263938   1.338   2.277   2.216 -0.3602  1.1497 -0.0377
14175TIP3   OH263939   6.492   2.362  13.183 -0.2882  0.3778  0.2880
14175TIP3    H163940   6.577   2.361  13.229  0.4773 -0.6233 -1.0982
14175TIP3    H263941   6.463   2.271  13.185  0.3279  0.0845 -2.1929
14176TIP3   OH263942   4.610   4.135  12.065 -0.1846  0.8450 -0.4151
14176TIP3    H163943   4.570   4.222  12.069  0.5192  1.1999 -0.9033
14176TIP3    H263944   4.613   4.114  11.971 -0.3507  0.2937 -0.2982
14177TIP3   OH263945   5.314   6.750  16.405  0.0160 -0.1917  0.1864
14177TIP3    H163946   5.399   6.763  16.363 -0.1175  0.5320  0.1316
14177TIP3    H263947   5.305   6.825  16.465  0.2680 -1.2720  1.6141
14178TIP3   OH263948   1.221   4.419   6.537 -0.6034 -0.2127 -0.1500
14178TIP3    H163949   1.257   4.385   6.454 -2.4197 -3.5077  0.3503
14178TIP3    H263950   1.292   4.407   6.600 -0.0672  0.0509 -0.6906
14179TIP3   OH263951   1.789   1.391  15.932 -0.8936  0.6400 -0.1663
14179TIP3    H163952   1.836   1.466  15.894  2.6713 -1.4470 -0.1568
14179TIP3    H263953   1.790   1.408  16.026 -0.2802  0.6979 -0.1808
14180TIP3   OH263954   1.895   0.884   3.269 -0.4617 -0.0928  0.0543
14180TIP3    H163955   1.966   0.847   3.216  0.7150 -2.0363  2.8747
14180TIP3    H263956   1.891   0.828   3.346 -4.1912  0.8239  0.6099
14181TIP3   OH263957   2.425   6.175   1.222  0.2338 -0.6305  0.3686
14181TIP3    H163958   2.404   6.084   1.243  2.0991 -0.9555  0.8780
14181TIP3    H263959   2.486   6.169   1.148 -1.4549  0.3080 -1.1624
14182TIP3   OH263960   1.516   4.736   3.369  0.7887 -0.0403 -0.1388
14182TIP3    H163961   1.442   4.736   3.429  0.9895  2.5307  0.1570
14182TIP3    H263962   1.593   4.740   3.427  1.0545  0.4306 -0.5308
14183TIP3   OH263963   4.435   3.404  11.466  0.0882 -0.1704  0.1527
14183TIP3    H163964   4.355   3.446  11.435  1.4214  1.6708 -0.8999
14183TIP3    H263965   4.416   3.310  11.461 -1.3109  0.1860 -2.0326
14184TIP3   OH263966   4.036   3.842  16.170 -0.1558 -0.1219  0.1819
14184TIP3    H163967   4.093   3.854  16.246 -0.3815 -0.2101  0.3640
14184TIP3    H263968   3.966   3.906  16.182 -1.0867 -1.2649  0.8976
14185TIP3   OH263969   0.334   4.751   5.442 -0.2861  0.1980  0.3240
14185TIP3    H163970   0.391   4.713   5.510  0.1701  0.7427  0.2495
14185TIP3    H263971   0.356   4.702   5.363 -0.4690 -0.1114  0.4649
14186TIP3   OH263972   3.744   2.845   0.101  0.3676  0.2675 -0.3611
14186TIP3    H163973   3.672   2.785   0.122  0.5582  0.3929  0.6626
14186TIP3    H263974   3.791   2.856   0.183  1.1988  0.6757 -0.8836
14187TIP3   OH263975   3.897   5.204   4.194 -0.0645 -0.7985  0.3162
14187TIP3    H163976   3.939   5.122   4.169  1.5655  0.4399 -1.1582
14187TIP3    H263977   3.947   5.234   4.270 -0.1879 -0.8002  0.3984
14188TIP3   OH263978   0.501   3.132  15.672 -0.6692 -0.0690 -0.4284
14188TIP3    H163979   0.476   3.107  15.761 -1.3097 -0.5655 -0.7497
14188TIP3    H263980   0.509   3.049  15.625  0.4800  0.1400 -0.6287
14189TIP3   OH263981   2.882   3.759  12.214 -0.4669 -0.0807  0.5042
14189TIP3    H163982   2.841   3.683  12.256 -1.2330  0.8542  1.4761
14189TIP3    H263983   2.947   3.790  12.277  0.4479 -0.4383 -0.2544
14190TIP3   OH263984   0.940   1.735  13.283  0.1270 -0.2874 -0.0767
14190TIP3    H163985   0.936   1.656  13.336 -0.4829 -0.8831 -0.9869
14190TIP3    H263986   1.032   1.762  13.288  0.3057 -0.9549  0.3867
14191TIP3   OH263987   0.064   2.483   1.037 -0.0181  0.1233  0.6820
14191TIP3    H163988   0.040   2.527   0.955  2.3644 -2.6224 -1.6158
14191TIP3    H263989   0.136   2.536   1.072  0.9340 -0.2667 -0.6014
14192TIP3   OH263990   3.309   3.421  11.513  0.0609 -0.2483  0.6745
14192TIP3    H163991   3.254   3.450  11.586 -0.1987 -2.2286  1.2967
14192TIP3    H263992   3.247   3.388  11.448  0.4958 -3.9436  2.0153
14193TIP3   OH263993   1.508   1.832   0.631  0.0684  0.4747 -0.6020
14193TIP3    H163994   1.439   1.771   0.604 -1.9775  1.5457  1.9921
14193TIP3    H263995   1.578   1.776   0.664 -0.3321 -0.5749 -1.5207
14194TIP3   OH263996   4.118   4.997  16.752 -1.0693 -0.1430 -0.0892
14194TIP3    H163997   4.138   5.026  16.663  0.6635 -0.3701  0.2134
14194TIP3    H263998   4.090   5.076  16.798  0.9640  0.5478 -0.0167
14195TIP3   OH263999   2.700   3.033  16.477 -0.0919 -0.0637  0.1511
14195TIP3    H164000   2.685   3.082  16.558  1.2082  1.8648 -0.7299
14195TIP3    H264001   2.657   3.087  16.410  1.2770 -0.1843 -0.8270
14196TIP3   OH264002   5.401   1.755  13.338 -0.2975  0.5658 -0.4236
14196TIP3    H164003   5.375   1.725  13.425  0.5049  2.3762  0.4854
14196TIP3    H264004   5.320   1.755  13.287 -0.3886 -2.6698 -0.3765
14197TIP3   OH264005   0.321   4.684  15.112 -0.3923 -0.6047  0.1821
14197TIP3    H164006   0.346   4.630  15.187 -1.5971 -0.2599  0.8410
14197TIP3    H264007   0.374   4.650  15.040  2.2578  0.3643  1.5933
14198TIP3   OH264008   0.941   6.509  16.298  0.1247  0.0732  0.5579
14198TIP3    H164009   0.912   6.599  16.288 -1.1914 -0.3778  0.2046
14198TIP3    H264010   0.869   6.456  16.262  0.3926 -1.1478  1.7637
14199TIP3   OH264011   2.767   5.274   2.227 -0.2489 -0.3636  0.1554
14199TIP3    H164012   2.823   5.352   2.232 -0.7947  0.0099  0.5452
14199TIP3    H264013   2.798   5.217   2.297  1.5373 -1.4332 -1.4668
14200TIP3   OH264014   5.154   5.275  16.132 -0.1519  0.7410  0.3100
14200TIP3    H164015   5.101   5.338  16.082 -0.8050  1.4535  1.8527
14200TIP3    H264016   5.127   5.190  16.100 -1.9740  1.1168  0.7867
14201TIP3   OH264017   4.911   2.351  13.696 -0.1133  0.8024 -0.0845
14201TIP3    H164018   5.002   2.366  13.670 -0.2502  3.1995  0.6889
14201TIP3    H264019   4.914   2.340  13.791 -0.5926  0.5885 -0.0929
14202TIP3   OH264020   4.101   6.452  11.771  0.1005 -0.2425 -0.1171
14202TIP3    H164021   4.056   6.397  11.707  0.3798  1.0163 -1.4152
14202TIP3    H264022   4.099   6.540  11.733  1.3776  0.2975  1.0198
14203TIP3   OH264023   6.099   0.744   6.229 -0.1076 -0.3255 -0.1731
14203TIP3    H164024   6.071   0.807   6.162  1.7701  1.2945  0.5162
14203TIP3    H264025   6.022   0.732   6.285 -0.3522  1.7595 -0.0214
14204TIP3   OH264026   5.158   0.625  14.725  0.3389  0.2160 -0.3812
14204TIP3    H164027   5.171   0.534  14.698 -1.2370 -0.1444  0.0049
14204TIP3    H264028   5.126   0.669  14.646  0.8543  0.3876 -0.4991
14205TIP3   OH264029   6.163   3.104  14.385 -0.1970 -0.3458 -0.0156
14205TIP3    H164030   6.128   3.034  14.329 -1.6156  0.0801  0.3174
14205TIP3    H264031   6.087   3.135  14.435  0.8958 -0.1724  1.5604
14206TIP3   OH264032   0.656   0.822   1.548  0.8303  0.5294  0.4120
14206TIP3    H164033   0.736   0.831   1.496  1.8160 -0.0385  1.7879
14206TIP3    H264034   0.685   0.779   1.629 -1.1027 -0.9567  0.3598
14207TIP3   OH264035   1.354   1.625   2.348  0.1381  0.2372 -0.1864
14207TIP3    H164036   1.267   1.664   2.354 -0.1100 -0.2720 -0.5093
14207TIP3    H264037   1.366   1.579   2.432  0.0212  0.1394 -0.2248
14208TIP3   OH264038   5.308   5.931  15.948 -0.1687  0.1643  0.2098
14208TIP3    H164039   5.329   5.977  16.029 -0.5305  0.0111  0.3929
14208TIP3    H264040   5.290   6.000  15.884 -2.5597  0.2876  0.9602
14209TIP3   OH264041   3.364   2.605   6.223 -0.4634  0.2984  0.2386
14209TIP3    H164042   3.351   2.670   6.291  1.0468  0.3237  0.5208
14209TIP3    H264043   3.433   2.547   6.257  1.4130  1.2031 -1.8761
14210TIP3   OH264044   1.531   3.699   2.817  0.0186 -0.6523 -0.0204
14210TIP3    H164045   1.614   3.745   2.827 -0.1632 -0.5292  0.9460
14210TIP3    H264046   1.511   3.706   2.724  0.0149  1.1934  0.0982
14211TIP3   OH264047   0.440   6.656   0.755 -0.1861 -0.8191  0.3148
14211TIP3    H164048   0.399   6.585   0.706 -0.6844 -0.6731  0.5238
14211TIP3    H264049   0.534   6.636   0.751 -0.3424 -1.6026  0.5588
14212TIP3   OH264050   4.265   1.234   0.865  0.1500  0.3834  0.8049
14212TIP3    H164051   4.187   1.280   0.834 -0.5469 -2.0050 -1.1431
14212TIP3    H264052   4.277   1.265   0.955 -2.3623  1.6779  0.7344
14213TIP3   OH264053   3.450   4.857   0.170  0.4778 -0.1700 -0.0687
14213TIP3    H164054   3.539   4.889   0.154 -0.1892  3.4926  2.7778
14213TIP3    H264055   3.458   4.808   0.252 -0.1290  0.4384  0.3624
14214TIP3   OH264056   6.741   1.471   2.572 -0.1070 -0.6670  0.2642
14214TIP3    H164057   6.748   1.525   2.494  2.0736 -0.1364  0.7864
14214TIP3    H264058   6.766   1.383   2.543 -1.1356 -0.8628 -0.0332
14215TIP3   OH264059   3.169   5.480  12.289  0.3755  0.3614 -0.0790
14215TIP3    H164060   3.154   5.386  12.277 -3.7232  0.8892  0.4669
14215TIP3    H264061   3.187   5.513  12.201  1.2375 -0.8114 -0.3548
14216TIP3   OH264062   5.600   3.569   2.521  0.1316 -0.4135  0.4933
14216TIP3    H164063   5.638   3.598   2.603 -0.4281  0.8146  0.3296
14216TIP3    H264064   5.519   3.524   2.547  0.5554 -1.0763  0.6857
14217TIP3   OH264065   6.012   2.749  12.999 -0.2521  0.2553 -0.1420
14217TIP3    H164066   6.047   2.801  13.072 -0.1677  0.7906 -0.5640
14217TIP3    H264067   6.022   2.806  12.922 -0.7540 -0.1362 -0.4951
14218TIP3   OH264068   0.497   2.906  16.216  0.3469 -0.3996 -0.0880
14218TIP3    H164069   0.434   2.961  16.262  0.0706 -0.9760  0.2233
14218TIP3    H264070   0.496   2.939  16.126 -0.6616 -0.6250 -0.1674
14219TIP3   OH264071   1.073   0.155  16.875  0.2683  0.7031  0.0256
14219TIP3    H164072   1.074   0.251  16.881 -0.5347  0.5783  2.7415
14219TIP3    H264073   0.996   0.129  16.926  1.0767 -1.4330  0.1917
14220TIP3   OH264074   3.941   6.440   5.676  0.3362  0.2419 -0.0619
14220TIP3    H164075   3.910   6.422   5.765  0.5242 -0.2627 -0.0993
14220TIP3    H264076   3.935   6.535   5.668 -1.8668  0.1243 -0.2912
14221TIP3   OH264077   0.893   4.788  10.804 -0.3251 -0.1573 -0.4920
14221TIP3    H164078   0.891   4.754  10.893  1.1165 -0.5062 -0.5802
14221TIP3    H264079   0.907   4.711  10.749  0.1110  0.2142 -0.9104
14222TIP3   OH264080   4.961   6.386  15.737  1.1682  0.1220 -0.3401
14222TIP3    H164081   5.056   6.396  15.735  1.2283  0.6378  2.8109
14222TIP3    H264082   4.947   6.296  15.766  0.7095  0.4736  0.5445
14223TIP3   OH264083   5.858   6.787   0.716 -0.5454 -0.2125 -0.0018
14223TIP3    H164084   5.845   6.768   0.809  0.2141 -0.5769  0.0292
14223TIP3    H264085   5.847   6.703   0.672 -1.2475  0.0201 -0.2837
14224TIP3   OH264086   1.992   6.528   0.717 -0.1532  0.4039 -0.1269
14224TIP3    H164087   1.922   6.583   0.682  0.4111  0.5263 -1.0612
14224TIP3    H264088   1.956   6.494   0.799 -0.6779  1.8027  0.2426
14225TIP3   OH264089   2.653   1.415   1.223 -0.1431  0.4525 -0.4409
14225TIP3    H164090   2.582   1.433   1.285  1.5214  0.1833  1.5745
14225TIP3    H264091   2.699   1.340   1.260  1.0555  0.4764 -1.8537
14226TIP3   OH264092   2.716   2.172  14.756  0.1941  0.3188 -0.0259
14226TIP3    H164093   2.753   2.111  14.692  3.8664  1.2408  1.0914
14226TIP3    H264094   2.710   2.122  14.837  0.9145  0.7331  0.2887
14227TIP3   OH264095   0.091   1.374  11.122 -0.2195  0.1076 -0.3364
14227TIP3    H164096   0.032   1.326  11.064  0.3199 -0.2519 -0.6018
14227TIP3    H264097   0.178   1.338  11.102  0.1656  1.0291 -0.3682
14228TIP3   OH264098   1.941   2.061   2.420 -0.6351 -0.4543  0.0920
14228TIP3    H164099   2.017   2.106   2.457  2.8677 -2.9400 -3.6526
14228TIP3    H264100   1.903   2.124   2.359 -1.1059  0.4893  1.3407
14229TIP3   OH264101   0.870   0.444   2.772 -0.1200  0.2149  0.3880
14229TIP3    H164102   0.904   0.534   2.777 -1.2058  0.6955 -0.6740
14229TIP3    H264103   0.785   0.453   2.730 -0.3926 -1.2877  0.6017
14230TIP3   OH264104   3.762   4.064  12.939 -0.4649 -0.1352 -0.4009
14230TIP3    H164105   3.787   4.155  12.954 -0.7241 -0.0952 -0.2011
14230TIP3    H264106   3.671   4.068  12.910 -0.6145 -0.3583  0.0246
14231TIP3   OH264107   6.280   2.527   0.293 -0.2448 -0.3235  0.0073
14231TIP3    H164108   6.195   2.487   0.272 -0.8434  0.6771  0.5360
14231TIP3    H264109   6.262   2.588   0.364  0.3119  2.2912 -2.0091
14232TIP3   OH264110   6.570   3.388   3.404  0.1438  0.2262  0.2046
14232TIP3    H164111   6.597   3.335   3.329  0.3931  0.4674  0.1240
14232TIP3    H264112   6.608   3.474   3.388 -1.5785  0.8661 -0.4337
14233TIP3   OH264113   5.206   3.376   6.379 -0.1151 -0.3183  0.0103
14233TIP3    H164114   5.207   3.472   6.373  0.1844 -0.3382 -0.2528
14233TIP3    H264115   5.124   3.350   6.337  0.1512 -0.2213 -0.5778
14234TIP3   OH264116   1.518   1.127  11.264 -0.3182 -0.1958 -0.1578
14234TIP3    H164117   1.584   1.120  11.195 -0.2273  0.6078 -0.1599
14234TIP3    H264118   1.450   1.064  11.239 -0.1363 -0.1394 -0.8163
14235TIP3   OH264119   5.248   2.301  12.287 -0.2269 -0.1019  0.4601
14235TIP3    H164120   5.341   2.314  12.308  0.0922 -2.0464  0.3481
14235TIP3    H264121   5.206   2.290  12.373 -0.1614 -0.3465  0.4622
14236TIP3   OH264122   4.804   1.937  15.837 -0.3051  0.1746  0.4216
14236TIP3    H164123   4.861   1.871  15.798 -0.4075  2.1486 -3.2916
14236TIP3    H264124   4.864   2.010  15.858 -0.8025  0.5755  0.4503
14237TIP3   OH264125   6.432   3.727   5.084  0.2663  0.1800  0.0457
14237TIP3    H164126   6.509   3.732   5.140 -0.1221  1.9210  0.4838
14237TIP3    H264127   6.371   3.791   5.122 -1.9441 -2.1396  0.5345
14238TIP3   OH264128   0.374   6.699   4.702  0.0039 -0.0059  0.0058
14238TIP3    H164129   0.349   6.614   4.738  1.1262 -1.4492 -2.5729
14238TIP3    H264130   0.312   6.714   4.630  1.5947  0.0429 -1.3611
14239TIP3   OH264131   4.199   5.153  16.489  0.6477  0.3667 -0.5448
14239TIP3    H164132   4.189   5.248  16.493  1.2382  0.6340 -3.9591
14239TIP3    H264133   4.293   5.140  16.480  0.6344 -0.6007  0.6448
14240TIP3   OH264134   3.105   3.626   3.634  0.5136 -0.2249  0.3443
14240TIP3    H164135   3.086   3.719   3.644  1.3956  0.2364 -1.8400
14240TIP3    H264136   3.188   3.613   3.680  0.3253  0.0387  0.7569
14241TIP3   OH264137   4.412   5.506  15.589 -0.6688  0.1582 -0.1838
14241TIP3    H164138   4.403   5.448  15.513 -0.2039  1.1707 -1.0308
14241TIP3    H264139   4.328   5.551  15.594 -0.9800 -0.4681  0.3899
14242TIP3   OH264140   1.705   3.380  16.387  0.0737  0.5707 -0.3970
14242TIP3    H164141   1.696   3.285  16.391  1.3683  0.3885 -1.6527
14242TIP3    H264142   1.767   3.400  16.457  0.7106  0.3652 -0.8991
14243TIP3   OH264143   3.535   1.600   4.667  0.0712 -0.6860 -0.3754
14243TIP3    H164144   3.591   1.555   4.603  0.2152 -1.2682  0.1497
14243TIP3    H264145   3.463   1.539   4.683 -1.1383  0.3956 -1.6413
14244TIP3   OH264146   5.179   4.358  13.647 -0.4313 -0.2139 -0.5971
14244TIP3    H164147   5.091   4.380  13.678  0.7480  0.6894  2.2982
14244TIP3    H264148   5.186   4.264  13.659 -0.0770  0.0790  1.8683
14245TIP3   OH264149   1.751   5.105  15.969  0.0110  0.7484  0.6887
14245TIP3    H164150   1.699   5.027  15.986  0.8087 -0.2261 -1.1312
14245TIP3    H264151   1.744   5.118  15.874  0.6446  2.3357  0.8462
14246TIP3   OH264152   2.820   1.353   0.416 -0.3017 -0.3322 -0.0554
14246TIP3    H164153   2.749   1.415   0.431 -0.8280 -0.1982 -2.9348
14246TIP3    H264154   2.897   1.395   0.454 -0.8308  1.6945 -1.1590
14247TIP3   OH264155   4.594   4.203   4.520  0.4711 -0.1708 -0.0396
14247TIP3    H164156   4.531   4.190   4.591 -0.2112 -1.0310 -0.7901
14247TIP3    H264157   4.553   4.269   4.464  0.6111 -0.1377 -0.1036
14248TIP3   OH264158   4.868   3.596   3.742 -0.0872 -0.3285  0.1554
14248TIP3    H164159   4.895   3.504   3.752  1.0588  0.1469  1.6181
14248TIP3    H264160   4.940   3.636   3.693  0.3874  0.2242  1.2812
14249TIP3   OH264161   2.587   2.056  14.435  0.7410 -0.5413  0.4324
14249TIP3    H164162   2.650   2.117  14.396 -3.1444  1.1805 -3.6590
14249TIP3    H264163   2.624   1.970  14.419  2.6252  0.4762 -0.8115
14250TIP3   OH264164   0.102   6.310  14.940  0.0338  0.3197  0.0191
14250TIP3    H164165   0.114   6.404  14.930 -1.2916  0.3661 -1.3493
14250TIP3    H264166   0.010   6.300  14.963  0.2412 -0.6126  0.4411
14251TIP3   OH264167   0.767   0.157   5.442  0.2064 -0.2457  0.0307
14251TIP3    H164168   0.674   0.180   5.439 -0.0181 -1.1873 -0.3994
14251TIP3    H264169   0.793   0.173   5.533 -0.2330  0.5323  0.0271
14252TIP3   OH264170   3.816   1.161   3.011  0.3576 -0.2758  0.6699
14252TIP3    H164171   3.766   1.187   3.088 -1.6852  3.1003 -1.6657
14252TIP3    H264172   3.803   1.067   3.005 -0.4503 -0.4141  3.6956
14253TIP3   OH264173   2.992   1.643   4.013 -0.0171  0.7096 -0.1567
14253TIP3    H164174   2.902   1.613   4.005  0.1902 -0.1831  0.7181
14253TIP3    H264175   3.034   1.616   3.931 -0.6168  1.4161 -0.6998
14254TIP3   OH264176   5.785   6.142  13.392 -0.2800  0.2645 -0.5701
14254TIP3    H164177   5.781   6.215  13.329  0.0337  0.6924 -0.0979
14254TIP3    H264178   5.831   6.178  13.467 -0.8770 -0.1756  0.0081
14255TIP3   OH264179   4.312   0.130  16.360  0.0963 -0.2347  0.0274
14255TIP3    H164180   4.319   0.066  16.289 -0.2899 -1.6844  1.2712
14255TIP3    H264181   4.222   0.121  16.390  0.4453 -0.0902  1.1214
14256TIP3   OH264182   3.295   3.833  11.438 -0.5818  0.2753  0.0343
14256TIP3    H164183   3.244   3.824  11.518 -0.8249 -2.4474 -0.3681
14256TIP3    H264184   3.383   3.805  11.462 -0.9327 -1.7676 -0.8752
14257TIP3   OH264185   5.593   6.423   1.478  0.3697 -0.4814  0.6838
14257TIP3    H164186   5.640   6.342   1.497  0.2284 -0.5498  0.7412
14257TIP3    H264187   5.567   6.415   1.386  0.7587 -0.2997  0.5548
14258TIP3   OH264188   0.591   3.967  16.496 -0.0616  0.0835  0.0544
14258TIP3    H164189   0.538   4.026  16.443 -1.7800  0.2870  1.9519
14258TIP3    H264190   0.575   3.993  16.586 -0.2353 -2.7517  0.9038
14259TIP3   OH264191   4.561   3.977  14.191 -0.0996  0.3474  0.3016
14259TIP3    H164192   4.637   3.984  14.133  0.6805  1.1221  1.3825
14259TIP3    H264193   4.487   4.003  14.137  0.5227  0.4348 -0.5239
14260TIP3   OH264194   4.095   0.430   0.277  0.0545  0.0200 -0.0122
14260TIP3    H164195   4.170   0.452   0.221  0.2098 -0.1977  0.1067
14260TIP3    H264196   4.134   0.382   0.350 -0.4948 -2.2686 -1.1824
14261TIP3   OH264197   2.467   3.874   6.694  0.0208 -0.1331  1.0174
14261TIP3    H164198   2.409   3.811   6.652  1.0740  0.0274 -0.7248
14261TIP3    H264199   2.419   3.957   6.690  0.5930  0.1123 -0.9224
14262TIP3   OH264200   1.919   5.400   5.532  0.2266  0.0522  1.1232
14262TIP3    H164201   1.958   5.488   5.524 -0.5384  0.3803  0.9338
14262TIP3    H264202   1.827   5.417   5.550  0.0184 -0.7163  0.7761
14263TIP3   OH264203   5.359   4.809  12.555 -0.4415 -1.1035 -0.0536
14263TIP3    H164204   5.320   4.868  12.490  2.3964 -1.1778 -1.9002
14263TIP3    H264205   5.303   4.731  12.554 -3.0038  0.6451  0.8818
14264TIP3   OH264206   0.737   3.859  15.975 -0.7720 -0.0540  0.5850
14264TIP3    H164207   0.770   3.882  16.062  2.3869  0.3218 -0.6220
14264TIP3    H264208   0.707   3.941  15.937 -0.3072  0.1192  0.5940
14265TIP3   OH264209   4.072   2.633   4.645  0.1736 -0.6254  0.1669
14265TIP3    H164210   4.025   2.596   4.570 -0.0273 -0.1683  0.0685
14265TIP3    H264211   4.026   2.597   4.721 -1.4300  1.1663  0.0846
14266TIP3   OH264212   4.835   1.825  16.492  0.0139 -0.1211 -0.2439
14266TIP3    H164213   4.776   1.795  16.423 -1.8682  1.1972  0.7179
14266TIP3    H264214   4.846   1.919  16.475  0.8484 -0.1171  0.2980
14267TIP3   OH264215   6.385   1.470   2.488  0.2957  0.2484 -0.1697
14267TIP3    H164216   6.382   1.526   2.566 -2.7913  0.4272 -0.3706
14267TIP3    H264217   6.410   1.384   2.522  2.7393  1.1549  0.4584
14268TIP3   OH264218   1.438   5.106  12.622 -0.1226 -0.0487  0.7102
14268TIP3    H164219   1.418   5.014  12.608  1.2767 -0.4462  1.2252
14268TIP3    H264220   1.362   5.153  12.588 -1.2399 -1.4227  1.2688
14269TIP3   OH264221   6.089   6.463   5.589 -0.1269  0.3874  0.4176
14269TIP3    H164222   6.050   6.549   5.572 -0.7259  0.1096  0.3734
14269TIP3    H264223   6.159   6.455   5.524 -0.6857  0.4476 -0.1943
14270TIP3   OH264224   3.293   5.255   2.731 -0.2353 -0.1738 -0.1974
14270TIP3    H164225   3.338   5.302   2.661 -1.8463  1.4677 -0.1560
14270TIP3    H264226   3.238   5.191   2.686  1.4430 -1.6124 -0.2750
14271TIP3   OH264227   4.608   3.324   4.042  0.1255 -0.0287  0.5055
14271TIP3    H164228   4.654   3.241   4.048  1.1981  0.6622  2.1717
14271TIP3    H264229   4.568   3.336   4.128 -1.5945  0.3089 -0.3064
14272TIP3   OH264230   3.513   5.798  11.950  0.3227 -0.0556 -0.0265
14272TIP3    H164231   3.546   5.792  11.861 -0.5464 -1.9636 -0.2478
14272TIP3    H264232   3.480   5.887  11.958 -0.2222 -0.0758 -1.8381
14273TIP3   OH264233   5.681   3.334   6.893 -0.1910 -0.1535 -0.3012
14273TIP3    H164234   5.651   3.251   6.856  0.5404  0.3849 -2.1787
14273TIP3    H264235   5.775   3.323   6.905  0.0845  0.7285 -1.5240
14274TIP3   OH264236   1.060   1.843  15.738 -0.1161 -0.6365 -0.5931
14274TIP3    H164237   1.103   1.840  15.823 -1.5559 -0.3739  0.1574
14274TIP3    H264238   0.979   1.794  15.751 -1.2865  1.1035 -1.2594
14275TIP3   OH264239   0.068   4.609   5.701 -0.1940 -0.1710 -0.3467
14275TIP3    H164240   0.061   4.701   5.677  1.2382 -0.0713 -0.4191
14275TIP3    H264241   0.135   4.607   5.769  0.2398 -1.2437 -0.7955
14276TIP3   OH264242   5.942   5.317  13.973  0.4911  0.1801 -0.6635
14276TIP3    H164243   5.957   5.240  14.028 -0.1236 -0.8950 -1.9603
14276TIP3    H264244   5.849   5.335  13.982  0.8493  1.4773  0.5249
14277TIP3   OH264245   1.270   3.086   5.488 -0.1374  0.2607  0.1181
14277TIP3    H164246   1.248   2.994   5.503  0.4894  0.2155  0.7694
14277TIP3    H264247   1.185   3.130   5.485 -0.3675 -0.0397  1.8229
14278TIP3   OH264248   4.062   3.609  12.429  0.2965  0.7203  0.1492
14278TIP3    H164249   4.067   3.654  12.344 -0.9426  1.0380  0.2366
14278TIP3    H264250   4.076   3.678  12.493  0.3976  0.6257  0.2293
14279TIP3   OH264251   4.839   4.767   3.589 -1.0394 -0.0111 -0.7550
14279TIP3    H164252   4.904   4.726   3.645 -2.2699 -0.0131  0.7006
14279TIP3    H264253   4.865   4.743   3.500  0.5151 -0.6090 -0.1531
14280TIP3   OH264254   5.304   3.958   3.408 -0.1619  0.0764 -0.4535
14280TIP3    H164255   5.309   3.909   3.491  1.7390  1.3044  0.1990
14280TIP3    H264256   5.321   3.893   3.341 -1.9535 -0.9893  0.0787
14281TIP3   OH264257   6.065   2.379  16.200 -0.3472  0.1773 -0.2880
14281TIP3    H164258   6.135   2.313  16.201 -0.7987 -0.3712 -2.9811
14281TIP3    H264259   6.033   2.378  16.110 -3.7923  0.4666  0.8948
14282TIP3   OH264260   5.853   2.575   5.084 -0.5464  0.0649  0.2525
14282TIP3    H164261   5.897   2.599   5.166  0.4213  1.0051 -0.5249
14282TIP3    H264262   5.850   2.479   5.086  2.5045 -0.1063 -0.1199
14283TIP3   OH264263   2.717   5.339  14.168  0.5736 -0.2513  0.2462
14283TIP3    H164264   2.710   5.307  14.078  0.4419  0.2473  0.0783
14283TIP3    H264265   2.798   5.391  14.169  0.2348  0.2837  0.2465
14284TIP3   OH264266   0.332   4.522   1.774  0.1522  0.9871  0.0374
14284TIP3    H164267   0.353   4.542   1.683  0.0749 -0.2976 -0.2651
14284TIP3    H264268   0.361   4.432   1.787 -0.9613  0.7430  0.9299
14285TIP3   OH264269   1.205   6.196   5.130  0.0980  0.2730 -0.1188
14285TIP3    H164270   1.296   6.204   5.157  0.3291 -1.4713 -0.3280
14285TIP3    H264271   1.206   6.127   5.064 -1.3265  0.4916 -0.3787
14286TIP3   OH264272   2.783   6.429  15.847  0.0100  0.3661 -0.6820
14286TIP3    H164273   2.801   6.434  15.941 -1.9943 -0.4985 -0.2231
14286TIP3    H264274   2.841   6.494  15.808 -0.8088  2.4553  1.4242
14287TIP3   OH264275   2.585   1.053  10.785  0.3535 -0.2585 -0.9616
14287TIP3    H164276   2.605   0.982  10.845 -1.3860  0.3547  0.3907
14287TIP3    H264277   2.524   1.015  10.722 -2.0019  0.4271  0.8134
14288TIP3   OH264278   6.497   2.130  11.164 -0.3646 -0.1307  0.2575
14288TIP3    H164279   6.569   2.125  11.102  0.1053  0.4289  0.7466
14288TIP3    H264280   6.424   2.164  11.113 -0.0320  0.1595 -0.0288
14289TIP3   OH264281   3.160   2.085   3.802  0.1524 -0.4286 -0.2156
14289TIP3    H164282   3.195   2.164   3.761 -0.0858  0.8677  2.0058
14289TIP3    H264283   3.073   2.110   3.832  0.6900 -1.0246  1.9327
14290TIP3   OH264284   4.686   0.930  16.260 -0.0250 -0.4638 -0.5856
14290TIP3    H164285   4.674   1.010  16.311 -0.0235 -1.8407  1.6680
14290TIP3    H264286   4.770   0.894  16.291  0.6651 -0.6314 -2.5772
14291TIP3   OH264287   5.863   5.022   3.851 -0.6306 -0.2266  0.8300
14291TIP3    H164288   5.812   5.073   3.788 -0.5940  0.6798  1.5425
14291TIP3    H264289   5.935   5.079   3.877 -0.4587 -0.7248  1.4629
14292TIP3   OH264290   4.469   2.747   5.953  0.5330  0.2247 -0.1823
14292TIP3    H164291   4.472   2.770   5.860 -0.4253 -1.6779 -0.7222
14292TIP3    H264292   4.385   2.781   5.984  0.3440 -0.1285 -0.3023
14293TIP3   OH264293   2.370   6.254   1.884 -0.3592 -0.0020  0.6850
14293TIP3    H164294   2.275   6.250   1.894 -0.3199 -1.8283  0.5234
14293TIP3    H264295   2.383   6.263   1.789 -0.3685  0.4941  0.7288
14294TIP3   OH264296   5.680   2.168  11.526 -0.0239  0.1934 -0.2851
14294TIP3    H164297   5.677   2.263  11.535  0.0131  0.0898  0.9087
14294TIP3    H264298   5.723   2.153  11.442  1.1323  1.2250  0.1074
14295TIP3   OH264299   3.002   3.915  13.383 -0.1117 -0.1740  0.3825
14295TIP3    H164300   3.093   3.898  13.407  0.4150  0.4519 -1.0828
14295TIP3    H264301   2.972   3.835  13.340  1.0418  1.0041 -2.7443
14296TIP3   OH264302   0.953   6.446   3.258  0.0163 -0.2703  0.5866
14296TIP3    H164303   0.917   6.523   3.304 -1.1964 -0.9900  0.8647
14296TIP3    H264304   1.021   6.413   3.316  1.1831  1.1154  0.0514
14297TIP3   OH264305   1.724   5.703  14.415 -0.1848 -0.1223 -0.2697
14297TIP3    H164306   1.681   5.618  14.427 -1.6852  0.3577 -2.0331
14297TIP3    H264307   1.671   5.764  14.466  0.3461 -0.0825  0.2363
14298TIP3   OH264308   0.648   1.148   2.801  0.3209  0.0824 -0.1713
14298TIP3    H164309   0.695   1.224   2.834 -1.4291  1.4136 -0.6754
14298TIP3    H264310   0.716   1.097   2.756  1.4630  1.5084 -0.1329
14299TIP3   OH264311   1.077   3.077   6.048 -0.2619  0.0459  0.2620
14299TIP3    H164312   1.017   3.062   6.120  0.0472 -1.6570  0.1754
14299TIP3    H264313   1.097   2.990   6.014  1.0432  0.6959 -0.6948
14300TIP3   OH264314   5.557   6.677  12.009  0.9101 -0.3124  0.0445
14300TIP3    H164315   5.507   6.597  11.996  0.3989  0.0127 -0.0041
14300TIP3    H264316   5.630   6.671  11.948  0.1966 -0.1764 -0.8236
14301TIP3   OH264317   4.262   6.138   3.500 -0.4332 -0.2025 -0.1844
14301TIP3    H164318   4.225   6.160   3.586 -0.5792 -2.0261  0.2410
14301TIP3    H264319   4.347   6.183   3.499 -0.6599  0.2674  0.7020
14302TIP3   OH264320   6.436   3.679   2.515  0.1165  0.2812  0.2824
14302TIP3    H164321   6.524   3.663   2.548  1.2219  1.4782 -1.9816
14302TIP3    H264322   6.382   3.689   2.594  2.0807 -0.0207  1.6901
14303TIP3   OH264323   4.754   5.607  11.379  0.9779  0.5164  0.3860
14303TIP3    H164324   4.817   5.623  11.308  0.1826 -2.2908 -1.0308
14303TIP3    H264325   4.710   5.526  11.354 -1.2010  0.8874  2.8058
14304TIP3   OH264326   0.254   1.523   2.158  0.3551 -0.3829  0.4025
14304TIP3    H164327   0.218   1.559   2.077  0.8712 -0.4121  0.1608
14304TIP3    H264328   0.340   1.564   2.168  0.2944 -0.3723  0.9415
14305TIP3   OH264329   3.200   1.731   0.289  0.2257  0.1237 -0.2936
14305TIP3    H164330   3.248   1.767   0.215  0.5678  0.3522  0.0368
14305TIP3    H264331   3.231   1.640   0.297  1.5072  0.6329  0.6713
14306TIP3   OH264332   3.481   3.887   3.823 -0.7291 -0.1061  0.1630
14306TIP3    H164333   3.524   3.858   3.743  1.4880  0.4059  1.1106
14306TIP3    H264334   3.554   3.909   3.882 -2.3257  2.0855  1.3771
14307TIP3   OH264335   1.974   2.202   4.269  0.5423 -0.2799 -0.0709
14307TIP3    H164336   1.996   2.282   4.221  0.8759 -0.9179 -0.9949
14307TIP3    H264337   1.959   2.136   4.201 -2.5741 -0.3020  0.5807
14308TIP3   OH264338   5.643   3.595  16.755  0.3624  0.7685 -0.6812
14308TIP3    H164339   5.589   3.672  16.772 -0.3187  0.9511 -3.5194
14308TIP3    H264340   5.707   3.594  16.827 -2.7132  1.1221  2.2116
14309TIP3   OH264341   1.053   2.416   3.112 -0.5076  0.0408  0.3720
14309TIP3    H164342   1.024   2.448   3.198  0.3793 -1.3295  1.2013
14309TIP3    H264343   0.980   2.364   3.080  0.4540 -2.3536  1.8942
14310TIP3   OH264344   6.533   3.927   0.992 -0.4885 -0.5841  0.0171
14310TIP3    H164345   6.583   3.846   0.979 -0.7011 -0.7113  0.0063
14310TIP3    H264346   6.443   3.903   0.974 -0.4846 -0.2196 -0.4942
14311TIP3   OH264347   1.202   1.868  12.360  0.0964  0.4087 -0.2559
14311TIP3    H164348   1.273   1.850  12.423 -0.6252  2.2406  1.1299
14311TIP3    H264349   1.124   1.830  12.401  0.1426 -1.1288 -1.5326
14312TIP3   OH264350   5.659   4.736   5.184 -0.6922  0.5906  0.4389
14312TIP3    H164351   5.599   4.669   5.217  0.5328 -1.0202 -0.4749
14312TIP3    H264352   5.615   4.772   5.107 -1.7857  1.5281  1.4953
14313TIP3   OH264353   5.176   5.210  16.806  0.2422  0.3585 -0.1721
14313TIP3    H164354   5.084   5.220  16.783 -0.1285  1.6462  1.7914
14313TIP3    H264355   5.181   5.122  16.844 -0.4345  0.7243  0.7966
14314TIP3   OH264356   5.687   6.218  11.272 -0.3393 -0.4367 -0.6287
14314TIP3    H164357   5.628   6.246  11.202 -1.3064  0.1077  0.3812
14314TIP3    H264358   5.746   6.292  11.285  1.1611 -1.3204 -2.2438
14315TIP3   OH264359   0.295   2.390  13.701 -0.7226 -0.1047  0.2160
14315TIP3    H164360   0.280   2.317  13.641  3.0640 -2.6892  2.2349
14315TIP3    H264361   0.216   2.392  13.755 -1.4217 -1.8747 -0.6710
14316TIP3   OH264362   3.111   0.358  16.345  0.1829  0.4569 -0.7146
14316TIP3    H164363   3.198   0.363  16.384 -0.3447  0.9595  0.4322
14316TIP3    H264364   3.109   0.431  16.283  0.5220  0.5614 -0.6050
14317TIP3   OH264365   5.742   2.652  15.468 -0.3709 -0.0349  0.1166
14317TIP3    H164366   5.736   2.712  15.542 -0.2242 -0.0740  0.1610
14317TIP3    H264367   5.660   2.664  15.420 -0.6714 -0.3466  0.5416
14318TIP3   OH264368   5.765   2.626   0.783 -0.0123  0.0231  0.0262
14318TIP3    H164369   5.750   2.544   0.737 -3.1418  0.4164  0.2163
14318TIP3    H264370   5.815   2.679   0.721  0.8516 -1.5236 -0.6242
14319TIP3   OH264371   0.157   1.844   2.999  0.1581 -0.4072  0.6100
14319TIP3    H164372   0.157   1.756   2.961 -1.3992 -0.0263 -0.3266
14319TIP3    H264373   0.244   1.879   2.979  0.3562 -1.2805 -0.1070
14320TIP3   OH264374   0.657   0.748   2.869  0.2538 -0.7197  0.3131
14320TIP3    H164375   0.702   0.697   2.936  0.4268 -1.0884 -0.0879
14320TIP3    H264376   0.583   0.788   2.916  2.0779  1.4742  1.4308
14321TIP3   OH264377   5.151   3.208   0.352  0.0569  0.3299 -0.2866
14321TIP3    H164378   5.225   3.216   0.413 -0.8184 -0.7048  0.9412
14321TIP3    H264379   5.120   3.297   0.341  1.4112  0.7668 -0.7164
14322TIP3   OH264380   4.572   6.691   5.095 -0.2471  0.0063  0.8022
14322TIP3    H164381   4.547   6.710   5.185 -2.3502 -0.3035  0.3128
14322TIP3    H264382   4.490   6.689   5.047  0.7902 -0.4406 -1.0201
14323TIP3   OH264383   6.604   4.281  13.604 -0.0964 -0.4004  0.0964
14323TIP3    H164384   6.684   4.276  13.657 -0.9520  3.3256  1.8823
14323TIP3    H264385   6.535   4.253  13.664 -0.6660  0.7837  0.0103
14324TIP3   OH264386   2.369   5.063   5.204 -0.1624 -0.0784  0.5989
14324TIP3    H164387   2.419   5.006   5.264  0.0245 -1.9852 -1.3200
14324TIP3    H264388   2.367   5.015   5.121 -3.4049  0.9295  0.0260
14325TIP3   OH264389   4.279   5.417  11.282  0.1065 -0.5481 -0.2904
14325TIP3    H164390   4.185   5.405  11.271 -0.4549  2.0211  1.4416
14325TIP3    H264391   4.293   5.414  11.377  1.8613 -1.4188 -0.5426
14326TIP3   OH264392   2.360   5.002   2.340  0.5995 -0.4356 -0.6816
14326TIP3    H164393   2.265   5.015   2.349  0.6171 -0.3241 -0.6601
14326TIP3    H264394   2.386   5.063   2.271  0.5489 -0.9238 -1.1337
14327TIP3   OH264395   4.308   4.813   5.308 -0.4587  0.1956 -0.4511
14327TIP3    H164396   4.327   4.731   5.262 -1.1807  1.0353 -2.2718
14327TIP3    H264397   4.340   4.882   5.250  1.8105  1.1884  1.8735
14328TIP3   OH264398   5.027   5.624  12.030  0.0281 -0.0352 -0.3455
14328TIP3    H164399   5.089   5.563  11.990 -0.3690 -0.6822  0.0130
14328TIP3    H264400   5.080   5.674  12.092  0.3654  0.0117 -0.6685
14329TIP3   OH264401   0.133   4.480  14.215  0.3768 -0.4679  0.1363
14329TIP3    H164402   0.074   4.423  14.165 -0.5723  0.9676 -0.4016
14329TIP3    H264403   0.210   4.488  14.160  0.5263 -1.2528  0.2240
14330TIP3   OH264404   2.126   0.424   6.103  0.4362 -0.1218 -0.2439
14330TIP3    H164405   2.061   0.355   6.092  0.8757 -0.8437  1.4987
14330TIP3    H264406   2.075   0.505   6.112 -0.1447 -0.4711 -0.3892
14331TIP3   OH264407   4.229   4.191  13.272 -1.2222 -0.6089 -0.0933
14331TIP3    H164408   4.246   4.132  13.198  0.7803  1.5928 -1.4275
14331TIP3    H264409   4.136   4.214  13.263 -1.0154 -0.3980 -1.9090
14332TIP3   OH264410   0.690   1.451  14.802  0.5706 -0.0113  0.5930
14332TIP3    H164411   0.771   1.500  14.817 -0.9120  1.7362  3.3510
14332TIP3    H264412   0.621   1.518  14.802 -1.1502 -1.7188  0.8253
14333TIP3   OH264413   6.676   3.187   4.067  0.2629  0.0005  0.5255
14333TIP3    H164414   6.649   3.266   4.019  1.2110 -0.6113 -1.0468
14333TIP3    H264415   6.667   3.116   4.003  0.7483 -0.9531  1.5085
14334TIP3   OH264416   5.677   0.311  13.631 -0.5103  0.1925  0.1286
14334TIP3    H164417   5.624   0.254  13.686 -0.0977 -1.5105 -1.2122
14334TIP3    H264418   5.755   0.329  13.685 -1.1076  0.3366  0.9567
14335TIP3   OH264419   3.323   2.775  16.933  0.1878 -0.2570  0.1651
14335TIP3    H164420   3.378   2.773  17.011  0.8654 -2.1039 -0.3202
14335TIP3    H264421   3.382   2.750  16.862 -1.2504 -2.3555 -0.3549
14336TIP3   OH264422   3.418   3.883   1.350 -0.1482 -0.4318  0.0843
14336TIP3    H164423   3.325   3.903   1.338 -0.3061 -0.1121  1.6694
14336TIP3    H264424   3.420   3.790   1.371 -0.0544 -0.5811 -0.5969
14337TIP3   OH264425   3.060   1.513  15.185  0.2324  0.1937 -0.1601
14337TIP3    H164426   3.060   1.608  15.191 -0.8387  0.2033 -0.2882
14337TIP3    H264427   3.118   1.494  15.111 -0.6054  0.8056 -0.9888
14338TIP3   OH264428   2.266   2.848  14.584  0.1762  0.4776 -0.5182
14338TIP3    H164429   2.208   2.922  14.599 -2.0533 -1.7736  2.7079
14338TIP3    H264430   2.350   2.876  14.618  0.0544  2.4316 -1.7605
14339TIP3   OH264431   3.448   0.764   1.884 -0.1182  0.4934  0.2214
14339TIP3    H164432   3.362   0.741   1.920 -0.0428 -0.2124 -0.0439
14339TIP3    H264433   3.497   0.800   1.957 -0.4000  0.2400  0.5343
14340TIP3   OH264434   2.083   0.240   3.708 -0.3282  0.1331  0.2322
14340TIP3    H164435   2.150   0.280   3.763 -0.3265  1.2427 -0.5598
14340TIP3    H264436   2.014   0.214   3.769 -0.3027  1.3012  0.7738
14341TIP3   OH264437   5.344   4.958  15.534  0.2986 -0.1591 -0.3461
14341TIP3    H164438   5.345   4.924  15.623 -2.4626  2.0436  0.5878
14341TIP3    H264439   5.421   5.015  15.529 -0.1617  0.5970  1.0063
14342TIP3   OH264440   2.037   4.059  11.323  0.1116  0.3162  0.6414
14342TIP3    H164441   2.115   4.074  11.377 -0.0292  0.3989  0.8258
14342TIP3    H264442   2.020   3.965  11.330  0.1378  0.3146  0.6813
14343TIP3   OH264443   2.127   1.276   2.357  0.5084 -0.4318 -0.3384
14343TIP3    H164444   2.090   1.364   2.351  1.6456 -0.0360 -1.8279
14343TIP3    H264445   2.066   1.228   2.413 -0.4178  1.1448  0.0354
14344TIP3   OH264446   1.503   0.018  12.245  0.6405 -0.0889  0.4623
14344TIP3    H164447   1.574  -0.046  12.255 -0.3939 -1.2005  0.8437
14344TIP3    H264448   1.518   0.056  12.158  1.9112 -0.0432  0.6864
14345TIP3   OH264449   2.800   0.674  15.976  0.0395  0.1205  0.4620
14345TIP3    H164450   2.819   0.619  16.051  1.2857  1.2187  0.9672
14345TIP3    H264451   2.707   0.657  15.956  0.0017 -0.9794  1.5556
14346TIP3   OH264452   4.770   3.695   2.619  0.3892  0.0891  0.0177
14346TIP3    H164453   4.837   3.670   2.682  0.2827 -2.3009 -0.7385
14346TIP3    H264454   4.799   3.780   2.585  2.3847 -0.3431  0.5768
14347TIP3   OH264455   0.531   6.161  16.424 -0.0460  0.5990  0.1075
14347TIP3    H164456   0.562   6.070  16.427 -0.0761  0.5330 -1.1830
14347TIP3    H264457   0.499   6.172  16.335 -1.7840  1.3245  0.8122
14348TIP3   OH264458   6.287   4.274  15.725  0.4060  0.0670 -0.5788
14348TIP3    H164459   6.205   4.226  15.740  0.4409 -0.1708 -1.1501
14348TIP3    H264460   6.264   4.366  15.738  0.2154 -0.0558 -0.0162
14349TIP3   OH264461   3.023   5.210   4.370  0.6174  0.4635 -0.2302
14349TIP3    H164462   3.115   5.238   4.366  0.7960 -0.3695 -2.7810
14349TIP3    H264463   2.985   5.264   4.439  3.4952 -0.5972  2.3033
14350TIP3   OH264464   5.711   3.973  15.623 -0.1863  0.2195 -0.7037
14350TIP3    H164465   5.739   4.043  15.564 -0.0100  0.5819 -0.1930
14350TIP3    H264466   5.760   3.896  15.595  0.0412  0.4399 -0.9084
14351TIP3   OH264467   5.892   2.206  13.733  0.3559 -0.4380 -0.1531
14351TIP3    H164468   5.878   2.224  13.640 -2.7548  0.9168  0.4905
14351TIP3    H264469   5.906   2.292  13.772 -0.0571 -0.8178  0.8559
14352TIP3   OH264470   5.478   4.867   2.861 -0.2536 -0.3232  0.0547
14352TIP3    H164471   5.432   4.951   2.871 -0.3792 -0.5609  1.6312
14352TIP3    H264472   5.429   4.807   2.917  0.9010 -1.0250  0.3159
14353TIP3   OH264473   2.480   2.519   4.337 -0.0089  0.0660  0.0510
14353TIP3    H164474   2.435   2.437   4.321 -0.4367  0.6687 -2.0247
14353TIP3    H264475   2.418   2.587   4.311  0.9295  0.9868  0.1444
14354TIP3   OH264476   2.765   2.389   3.506 -0.0073 -0.0955  0.1574
14354TIP3    H164477   2.762   2.304   3.462 -0.4859  0.1261 -0.2408
14354TIP3    H264478   2.743   2.369   3.597 -0.6112 -0.3333 -0.0364
14355TIP3   OH264479   1.539   2.613   4.732  0.5929 -0.1318 -0.1864
14355TIP3    H164480   1.567   2.692   4.686  1.8730 -0.8708 -0.7396
14355TIP3    H264481   1.563   2.542   4.672  0.8134 -1.0191  0.9399
14356TIP3   OH264482   0.659   2.405   4.263 -0.5297 -0.6555 -0.7238
14356TIP3    H164483   0.686   2.419   4.354  1.3924 -1.1099 -1.1926
14356TIP3    H264484   0.648   2.493   4.228  1.2831 -0.4046 -0.7502
14357TIP3   OH264485   0.207   4.660  16.116 -0.9717  0.2344 -0.1822
14357TIP3    H164486   0.271   4.726  16.143 -1.0116  0.1424  0.1441
14357TIP3    H264487   0.130   4.710  16.089 -1.1840  0.3087  0.5460
14358TIP3   OH264488   0.038   1.941   4.809  0.0120  0.0667 -0.0722
14358TIP3    H164489   0.101   1.996   4.856 -0.6413 -0.0438  0.9412
14358TIP3    H264490   0.091   1.894   4.744  1.2652 -1.3098  1.8897
14359TIP3   OH264491   3.224   5.195   3.939 -0.2815  0.0324  0.0202
14359TIP3    H164492   3.135   5.176   3.967 -0.6363  0.1784 -1.0048
14359TIP3    H264493   3.279   5.152   4.005 -1.0999  0.6941  1.1506
14360TIP3   OH264494   0.754   0.058  12.505  0.4598  0.0169  0.0396
14360TIP3    H164495   0.843   0.024  12.496  0.8698  0.4580  2.1024
14360TIP3    H264496   0.721   0.063  12.415  2.2901 -0.7172 -0.7063
14361TIP3   OH264497   6.411   3.603  13.437 -0.3323 -0.1405  0.1302
14361TIP3    H164498   6.472   3.676  13.436 -1.5502  0.8910 -1.0486
14361TIP3    H264499   6.409   3.573  13.346 -2.0577  0.2462  0.0308
14362TIP3   OH264500   5.385   3.881   4.782  0.0298  0.7673 -0.0889
14362TIP3    H164501   5.347   3.794   4.777  0.5456  0.5848 -1.0317
14362TIP3    H264502   5.318   3.940   4.748 -0.0551  0.6605 -0.1037
14363TIP3   OH264503   3.161   1.235  11.154 -0.3470  0.2509 -0.6169
14363TIP3    H164504   3.203   1.176  11.090 -1.3693 -2.2603  0.9649
14363TIP3    H264505   3.172   1.191  11.238 -2.8978  1.3537  0.3421
14364TIP3   OH264506   3.470   3.873  11.128  0.3782  0.1708 -0.4688
14364TIP3    H164507   3.423   3.928  11.065  0.6963  0.3142 -0.5831
14364TIP3    H264508   3.501   3.935  11.194  1.0706  0.1843 -0.8015
14365TIP3   OH264509   0.698   1.306  16.385  0.0923 -0.0169  0.6895
14365TIP3    H164510   0.605   1.326  16.373 -0.8972 -2.4093  3.7715
14365TIP3    H264511   0.722   1.257  16.307 -1.0586  1.0880 -0.3953
14366TIP3   OH264512   3.506   3.279   0.221 -0.0794 -0.7408  0.4248
14366TIP3    H164513   3.416   3.281   0.254 -0.3331 -1.7194 -0.1782
14366TIP3    H264514   3.547   3.207   0.267  0.2682 -0.5758  0.3726
14367TIP3   OH264515   1.050   6.058   2.429 -0.4576 -0.0688 -0.0547
14367TIP3    H164516   0.994   5.995   2.382 -0.8933  0.1302  0.1891
14367TIP3    H264517   0.995   6.089   2.501 -0.9238  2.0473 -1.2875
14368TIP3   OH264518   5.474   3.794  15.447 -0.5308 -0.5324  0.6837
14368TIP3    H164519   5.380   3.774  15.440 -0.0582 -2.1531 -1.6921
14368TIP3    H264520   5.518   3.712  15.425  1.4557  1.2868 -2.5295
14369TIP3   OH264521   3.713   4.568   3.821  0.1908  0.0373  0.1041
14369TIP3    H164522   3.763   4.490   3.797  0.1550  0.0220  0.0801
14369TIP3    H264523   3.656   4.585   3.746 -1.3668 -1.1859  0.9718
14370TIP3   OH264524   5.405   4.133   2.071 -0.2813 -0.2999 -0.0227
14370TIP3    H164525   5.399   4.117   1.977  0.4051  1.7830 -0.4471
14370TIP3    H264526   5.496   4.111   2.093 -0.6922 -1.6614  0.3352
14371TIP3   OH264527   0.005   3.221  11.979  0.0770 -1.0153  0.8263
14371TIP3    H164528  -0.001   3.162  12.054  2.0294 -0.5158  1.4009
14371TIP3    H264529   0.023   3.307  12.017  1.3435 -0.8057 -0.2143
14372TIP3   OH264530   4.055   5.657  12.094 -0.3185  0.0607  0.1393
14372TIP3    H164531   4.117   5.727  12.074 -0.5836 -0.0613 -1.1631
14372TIP3    H264532   4.054   5.653  12.190  1.1187  0.5635  0.1958
14373TIP3   OH264533   3.736   1.921  13.682 -0.1769 -0.1966  0.8549
14373TIP3    H164534   3.655   1.874  13.698 -0.6564 -0.0026 -0.8931
14373TIP3    H264535   3.708   2.005  13.646  0.8091 -0.3627 -0.3401
14374TIP3   OH264536   0.453   3.776   3.216  0.2443  0.7989 -0.4676
14374TIP3    H164537   0.517   3.797   3.148  0.0239 -0.0515 -0.9455
14374TIP3    H264538   0.375   3.826   3.192  0.5371  1.3756 -0.2142
14375TIP3   OH264539   6.125   3.804   1.660 -0.2067 -0.1045  0.0691
14375TIP3    H164540   6.100   3.773   1.747 -1.1334 -3.1504 -1.2072
14375TIP3    H264541   6.161   3.727   1.617  0.0496  1.3063 -2.3218
14376TIP3   OH264542   4.226   4.244   0.454  0.5444 -0.0071  0.5752
14376TIP3    H164543   4.319   4.245   0.477  0.9532 -2.5556 -0.8748
14376TIP3    H264544   4.193   4.328   0.486  2.9667  0.2220  2.6093
14377TIP3   OH264545   1.208   0.689   5.252 -0.1055  0.3196  0.0965
14377TIP3    H164546   1.249   0.620   5.305 -1.1655  0.1598  0.6999
14377TIP3    H264547   1.139   0.644   5.204 -0.4244  0.8556  0.0555
14378TIP3   OH264548   3.580   1.322  13.547  0.9332 -0.4246 -0.3307
14378TIP3    H164549   3.646   1.339  13.479  2.1723 -1.2242  0.6418
14378TIP3    H264550   3.543   1.237  13.524  0.9437 -0.4275 -0.3380
14379TIP3   OH264551   3.429   1.600  11.316  0.0227  0.0744  0.2464
14379TIP3    H164552   3.361   1.636  11.258 -1.9132 -2.1488  1.0447
14379TIP3    H264553   3.433   1.507  11.293 -0.3552 -0.7274  3.2063
14380TIP3   OH264554   3.295   6.042  13.272 -0.2286  0.4799  0.3929
14380TIP3    H164555   3.364   6.096  13.311 -1.8551  3.2555 -0.4569
14380TIP3    H264556   3.313   6.044  13.178 -0.9798  0.5346  0.2496
14381TIP3   OH264557   1.094   4.429  14.171  0.4858 -0.0655 -0.1898
14381TIP3    H164558   1.092   4.363  14.102 -0.3593  1.4804 -1.6844
14381TIP3    H264559   1.174   4.478  14.155  0.3649  0.1995  0.0206
14382TIP3   OH264560   5.696   4.451   2.064  0.3105 -0.6054  0.0297
14382TIP3    H164561   5.608   4.481   2.040  0.2011  0.7154  2.0058
14382TIP3    H264562   5.682   4.401   2.145  1.3648 -0.5588  0.2390
14383TIP3   OH264563   2.746   4.524   3.277  0.0435  0.6718  1.0725
14383TIP3    H164564   2.820   4.477   3.238 -2.0792 -1.1371 -0.9069
14383TIP3    H264565   2.746   4.609   3.234  0.1259  0.1427  0.0073
14384TIP3   OH264566   3.367   3.804   1.659 -0.3491 -0.2963  1.0431
14384TIP3    H164567   3.316   3.814   1.740 -0.8968  0.8866  0.5574
14384TIP3    H264568   3.384   3.893   1.631 -1.7229 -0.6794 -1.1329
14385TIP3   OH264569   0.102   6.137  11.716 -0.3416 -0.0557  0.6668
14385TIP3    H164570   0.053   6.086  11.651  0.3742  0.2380 -0.1168
14385TIP3    H264571   0.156   6.196  11.664  0.6661 -0.2107  1.5258
14386TIP3   OH264572   0.806   3.919   2.176  0.1980  0.1291 -0.3946
14386TIP3    H164573   0.818   3.961   2.090 -1.1470  0.6270 -0.3450
14386TIP3    H264574   0.846   3.980   2.238 -0.1879  0.5001 -0.5090
14387TIP3   OH264575   0.458   3.496   2.590 -0.3363 -0.0810  0.1739
14387TIP3    H164576   0.439   3.492   2.684 -0.8295  0.3260  0.0963
14387TIP3    H264577   0.553   3.486   2.584 -0.3098 -0.1770  0.7123
14388TIP3   OH264578   4.678   0.065   3.626 -0.7008 -0.5488  0.2511
14388TIP3    H164579   4.705   0.156   3.616 -0.8116 -0.2445  2.4754
14388TIP3    H264580   4.759   0.015   3.613 -0.6093 -0.1401 -0.8175
14389TIP3   OH264581   2.039   4.346  13.607 -0.0631 -0.0516 -0.4484
14389TIP3    H164582   2.085   4.290  13.670 -0.8305 -0.5793 -0.3564
14389TIP3    H264583   2.002   4.417  13.659  2.4830  1.6151 -0.7905
14390TIP3   OH264584   2.605   0.898  11.582  0.3709 -0.0049  0.5433
14390TIP3    H164585   2.681   0.913  11.525  0.8059  2.2482  1.6328
14390TIP3    H264586   2.639   0.846  11.655  0.1757 -1.5181 -0.4259
14391TIP3   OH264587   3.714   3.242  14.754 -0.2557  0.2674 -0.0008
14391TIP3    H164588   3.808   3.249  14.775 -0.1289  1.9969 -0.9837
14391TIP3    H264589   3.712   3.211  14.664 -0.5700  1.5647 -0.4605
14392TIP3   OH264590   4.215   6.371   6.281  0.2093 -0.1179 -0.9038
14392TIP3    H164591   4.281   6.309   6.253 -0.6501 -1.2307 -0.4984
14392TIP3    H264592   4.256   6.420   6.352  0.2107 -1.5904  0.1395
14393TIP3   OH264593   5.564   6.130  15.933 -0.4683  0.1760 -0.1167
14393TIP3    H164594   5.595   6.154  16.020  1.1550 -0.1497 -0.5756
14393TIP3    H264595   5.644   6.122  15.881 -1.4024  0.1882 -1.5936
14394TIP3   OH264596   0.024   5.656  11.142  0.2213 -0.1428  0.2602
14394TIP3    H164597  -0.020   5.606  11.211  2.0927 -0.3152  1.3523
14394TIP3    H264598  -0.044   5.715  11.109 -0.7064  0.0007  2.3028
14395TIP3   OH264599   0.273   4.843  11.932 -0.1038  0.5516 -0.2306
14395TIP3    H164600   0.312   4.851  11.845 -0.2108  1.1588 -0.2243
14395TIP3    H264601   0.193   4.793  11.919  0.4089 -0.2420 -0.3261
14396TIP3   OH264602   5.750   3.933  14.947 -0.2412  0.4434  0.0186
14396TIP3    H164603   5.811   3.985  14.894  0.7835 -0.1880  0.5481
14396TIP3    H264604   5.729   3.989  15.022 -2.1027  1.5452 -1.2707
14397TIP3   OH264605   5.899   3.311   4.254 -0.2816 -0.1484 -0.1054
14397TIP3    H164606   5.947   3.252   4.313 -0.9853 -1.2674 -0.6385
14397TIP3    H264607   5.836   3.356   4.311  0.6899  0.5680  0.4143
14398TIP3   OH264608   5.220   3.696  12.589  0.2490  0.0595 -0.2412
14398TIP3    H164609   5.133   3.659  12.573  0.4732 -0.1431 -0.9956
14398TIP3    H264610   5.232   3.686  12.684 -0.3794 -0.2878 -0.1884
14399TIP3   OH264611   5.149   5.530   4.595  0.1843 -0.4469 -0.3946
14399TIP3    H164612   5.150   5.462   4.662  2.1264 -1.0136 -0.9794
14399TIP3    H264613   5.115   5.487   4.517 -2.3026  0.2719  0.2257
14400TIP3   OH264614   0.253   4.459   4.465 -0.2065  0.3515 -0.4154
14400TIP3    H164615   0.320   4.467   4.533  1.2971 -1.9246 -1.5299
14400TIP3    H264616   0.170   4.455   4.513  0.6045  1.2207  1.1116
14401TIP3   OH264617   4.135   5.474   4.045 -0.0847  0.1048  0.4213
14401TIP3    H164618   4.162   5.466   3.953  0.2102  0.8527  0.4454
14401TIP3    H264619   4.091   5.391   4.063  1.7357 -0.9481  0.2287
14402TIP3   OH264620   3.574   1.114   1.461  0.0469  0.2311  0.7002
14402TIP3    H164621   3.545   1.199   1.494 -3.1472 -0.1346 -0.9644
14402TIP3    H264622   3.511   1.052   1.496  0.0091 -0.9097 -1.3180
14403TIP3   OH264623   5.328   2.281  12.565  0.2865  0.3520 -0.0189
14403TIP3    H164624   5.373   2.365  12.557 -1.5244  1.5268  1.6349
14403TIP3    H264625   5.319   2.267  12.660 -1.2933 -0.6745 -0.2868
14404TIP3   OH264626   1.563   3.605  15.086  0.3765  0.9662  0.1407
14404TIP3    H164627   1.541   3.677  15.027 -1.9302  1.3523  1.4032
14404TIP3    H264628   1.479   3.564  15.105  1.2376  0.0760  2.1729
14405TIP3   OH264629   1.748   1.546  16.904 -0.4080 -0.4623  0.2454
14405TIP3    H164630   1.686   1.576  16.837  0.8689  2.9017  0.4772
14405TIP3    H264631   1.811   1.492  16.855 -2.4156 -2.4288 -0.2899
14406TIP3   OH264632   4.593   1.130   1.771  0.0570 -0.2746 -0.0769
14406TIP3    H164633   4.528   1.193   1.741 -0.7007 -1.7453 -1.6136
14406TIP3    H264634   4.668   1.142   1.712  1.0853  1.1765  1.4696
14407TIP3   OH264635   4.498   0.773   4.238  0.2029  0.1728  0.1311
14407TIP3    H164636   4.519   0.681   4.252  1.2982  0.5269  0.9182
14407TIP3    H264637   4.582   0.819   4.250 -0.7703  1.5082  2.0745
14408TIP3   OH264638   2.737   2.512  12.291 -0.0452 -0.5550  0.5953
14408TIP3    H164639   2.690   2.564  12.356  0.3893 -1.0863  1.3442
14408TIP3    H264640   2.811   2.475  12.339  1.8916  1.3125 -0.8544
14409TIP3   OH264641   5.828   6.711  16.521  0.1937  0.6222 -0.0915
14409TIP3    H164642   5.831   6.772  16.594 -0.9227  1.0660 -0.4095
14409TIP3    H264643   5.774   6.638  16.552  0.9560  0.1019  0.0462
14410TIP3   OH264644   1.903   6.445  17.145 -0.2909  0.3442  0.1371
14410TIP3    H164645   1.877   6.356  17.120 -1.0915  0.7751 -0.6081
14410TIP3    H264646   1.985   6.460  17.099  0.1469 -0.2271  0.7355
14411TIP3   OH264647   2.156   2.377  12.148 -0.5175 -0.2666  0.1120
14411TIP3    H164648   2.133   2.437  12.078 -1.3710  0.6870  1.1895
14411TIP3    H264649   2.176   2.294  12.104  0.0311  0.6196 -1.3288
14412TIP3   OH264650   6.149   5.452  17.159  0.2271 -0.7090 -0.2451
14412TIP3    H164651   6.109   5.425  17.076 -1.7779  0.6198  0.2701
14412TIP3    H264652   6.174   5.370  17.201  0.7192 -1.4245 -1.8927
14413TIP3   OH264653   0.885   1.905  12.297 -0.0079 -0.4713 -0.1137
14413TIP3    H164654   0.893   1.810  12.303 -0.1179 -0.4119  1.0060
14413TIP3    H264655   0.825   1.929  12.368 -1.7353  0.2043 -1.7442
14414TIP3   OH264656   2.872   3.774   1.729 -0.2637 -0.5791 -0.0629
14414TIP3    H164657   2.918   3.731   1.801 -1.4599 -0.9828  0.4702
14414TIP3    H264658   2.827   3.703   1.683 -0.6212 -0.1443 -0.3844
14415TIP3   OH264659   0.008   3.359   6.053  0.4572 -0.1897  0.2918
14415TIP3    H164660   0.067   3.380   5.981 -0.4309 -1.6786 -0.9006
14415TIP3    H264661  -0.066   3.419   6.042  1.1322  0.7692  0.9970
14416TIP3   OH264662   0.590   0.310   2.230  0.1251 -0.2939 -0.0411
14416TIP3    H164663   0.617   0.274   2.315  1.7401  1.8976  0.4551
14416TIP3    H264664   0.657   0.280   2.169  1.5080  1.7822  0.3849
14417TIP3   OH264665   1.034   1.825   4.029  0.5058 -0.5971  0.7103
14417TIP3    H164666   0.982   1.777   3.964  0.8959 -0.6501  0.4353
14417TIP3    H264667   1.088   1.885   3.977  1.2572 -1.0607  0.9465
14418TIP3   OH264668   4.130   6.542  13.113 -0.1616  0.3843 -0.5198
14418TIP3    H164669   4.124   6.610  13.180 -0.0055  1.7486 -1.8539
14418TIP3    H264670   4.106   6.461  13.158 -0.8603  1.4020  0.9709
14419TIP3   OH264671   2.608   2.761   1.167  0.0502  0.2379  0.0433
14419TIP3    H164672   2.514   2.780   1.160  0.2793  1.2593 -0.4530
14419TIP3    H264673   2.612   2.671   1.199 -1.0996 -0.1620 -0.8799
14420TIP3   OH264674   6.718   5.194   4.222 -0.7076 -0.1206 -0.7547
14420TIP3    H164675   6.814   5.202   4.223 -0.5013 -1.9590 -1.8033
14420TIP3    H264676   6.690   5.243   4.145 -0.7658  1.6441  0.3678
14421TIP3   OH264677   2.767   1.765  17.174 -0.1820  0.0404  0.9105
14421TIP3    H164678   2.784   1.678  17.138  1.8333  0.6296  0.3517
14421TIP3    H264679   2.831   1.774  17.245  1.9474  2.2812 -1.1474
14422TIP3   OH264680   6.201   1.075  12.980  0.0736  0.9323  0.2101
14422TIP3    H164681   6.241   1.042  13.061 -0.7313  0.3066  0.3598
14422TIP3    H264682   6.170   1.163  13.003  1.3723  1.4339  0.0849
14423TIP3   OH264683   0.166   5.166  16.544  0.4075  0.5230 -0.0699
14423TIP3    H164684   0.256   5.196  16.532 -0.1427  2.5534  0.7049
14423TIP3    H264685   0.160   5.142  16.637 -0.0749  1.2032  0.0818
14424TIP3   OH264686   2.693   3.024  16.962  0.2937  0.4275  0.5660
14424TIP3    H164687   2.696   2.943  16.911 -1.3264  0.2280  0.7693
14424TIP3    H264688   2.767   3.016  17.023  0.1702 -0.8753  0.5628
14425TIP3   OH264689   3.323   6.233   1.116  0.7876 -0.1914 -0.5379
14425TIP3    H164690   3.291   6.182   1.042 -0.5393 -0.9446  0.5341
14425TIP3    H264691   3.322   6.324   1.085  0.1979 -0.4991 -1.4300
14426TIP3   OH264692   2.724   4.748   0.510 -0.3685 -0.0454  0.4820
14426TIP3    H164693   2.817   4.771   0.506  0.0914 -1.7443  1.0487
14426TIP3    H264694   2.708   4.698   0.430 -0.5788 -0.4829  0.7955
14427TIP3   OH264695   2.328   6.458  11.807  0.3587 -0.3360  0.5546
14427TIP3    H164696   2.419   6.435  11.826  1.3837  0.8491 -2.4908
14427TIP3    H264697   2.289   6.377  11.774  0.8477 -0.4165  0.1679
14428TIP3   OH264698   1.059   3.160   0.874 -0.0287  0.0890 -0.2968
14428TIP3    H164699   1.129   3.143   0.937 -1.6477 -0.9106  1.2600
14428TIP3    H264700   1.072   3.094   0.806  0.8082  0.2064 -0.2623
14429TIP3   OH264701   5.702   0.059   5.106  0.4133 -0.6798 -0.6132
14429TIP3    H164702   5.627   0.014   5.146 -0.0985 -0.5979 -1.4680
14429TIP3    H264703   5.770   0.058   5.174 -0.6609  0.0265  0.4867
14430TIP3   OH264704   2.505   1.232   4.593  0.3053  0.1910 -0.0145
14430TIP3    H164705   2.499   1.287   4.515  0.6436 -0.2613 -0.3582
14430TIP3    H264706   2.416   1.230   4.628 -0.1625 -0.8414 -1.2279
14431TIP3   OH264707   3.378   5.970  13.018 -0.0243 -0.1184  0.2181
14431TIP3    H164708   3.377   6.015  12.933  0.3477  1.0320  0.8184
14431TIP3    H264709   3.454   6.006  13.063  0.2081 -1.2777  0.7525
14432TIP3   OH264710   2.267   2.828   3.770 -0.4807 -0.2895  0.2134
14432TIP3    H164711   2.257   2.872   3.686  0.3705  0.2357  0.3776
14432TIP3    H264712   2.305   2.743   3.747  1.0877  0.4075  0.1730
14433TIP3   OH264713   3.419   0.933  12.938  0.1285  0.3423 -0.4289
14433TIP3    H164714   3.373   0.954  12.857 -1.6237 -0.8899  0.2102
14433TIP3    H264715   3.502   0.895  12.909  0.4752  1.9485 -1.6033
14434TIP3   OH264716   4.883   1.578  13.034  0.3740  0.3098 -0.5124
14434TIP3    H164717   4.955   1.541  13.085 -0.2862 -0.1507  0.0872
14434TIP3    H264718   4.921   1.655  12.992  1.1482  0.2193  0.0093
14435TIP3   OH264719   2.801   0.480  12.062  0.3128 -0.0633  0.1328
14435TIP3    H164720   2.716   0.508  12.096  1.5991  1.7995  1.9493
14435TIP3    H264721   2.796   0.385  12.063 -1.6624  0.0059  0.4523
14436TIP3   OH264722   3.976   3.681  12.135  0.2712 -0.2545  0.5601
14436TIP3    H164723   3.891   3.638  12.141 -1.6252  2.8215 -2.3164
14436TIP3    H264724   4.024   3.629  12.071  0.5376 -1.8820  2.0363
14437TIP3   OH264725   4.329   5.105   1.057 -0.3656 -0.6478  0.6041
14437TIP3    H164726   4.262   5.121   0.991 -0.5266  0.0795  0.9341
14437TIP3    H264727   4.331   5.010   1.068 -1.5796 -0.6492  0.8285
14438TIP3   OH264728   1.055   0.214   1.808  0.4287 -0.2937 -0.6923
14438TIP3    H164729   0.997   0.141   1.787 -1.3080  0.9352 -0.2383
14438TIP3    H264730   1.029   0.242   1.895  2.2287 -0.1924 -0.1511
14439TIP3   OH264731   4.580   6.564  13.130 -0.5356 -0.3129  0.0458
14439TIP3    H164732   4.596   6.642  13.077  0.5743 -1.3491 -1.1651
14439TIP3    H264733   4.522   6.594  13.200 -1.1311  1.3182 -1.1289
14440TIP3   OH264734   1.871   4.189   4.379  0.0686  0.4222 -0.1046
14440TIP3    H164735   1.939   4.220   4.439 -0.9469 -2.6412  2.7615
14440TIP3    H264736   1.790   4.198   4.428 -1.3946  1.8492 -2.6459
14441TIP3   OH264737   4.886   5.839  14.913 -0.3127 -0.5348  0.0692
14441TIP3    H164738   4.949   5.826  14.984 -0.1316  1.4954  0.3154
14441TIP3    H264739   4.804   5.804  14.949  0.5387 -2.7728 -0.0893
14442TIP3   OH264740   5.099   5.409  11.651 -0.0906  0.1566 -0.0907
14442TIP3    H164741   5.071   5.464  11.725 -0.2216 -0.4634  0.3229
14442TIP3    H264742   5.022   5.405  11.594 -0.8948 -1.5806  1.0668
14443TIP3   OH264743   5.262   2.047  14.896  0.6679 -0.1904 -0.2671
14443TIP3    H164744   5.299   2.014  14.815  0.5434 -0.4576 -0.2186
14443TIP3    H264745   5.287   2.140  14.899  0.9809 -0.2703 -0.4290
14444TIP3   OH264746   6.467   3.324   1.232 -0.7249 -0.2430 -0.2898
14444TIP3    H164747   6.562   3.320   1.245 -0.8995  1.0415  1.5590
14444TIP3    H264748   6.437   3.234   1.243 -0.0867 -0.1701  2.5067
14445TIP3   OH264749   6.243   4.834  15.333  0.2799  0.0551  0.3428
14445TIP3    H164750   6.148   4.831  15.326  0.1204 -0.6294  2.6385
14445TIP3    H264751   6.266   4.924  15.310 -0.6385 -0.4583 -2.9354
14446TIP3   OH264752   1.811   1.841   4.166  0.3445 -0.1565 -0.1358
14446TIP3    H164753   1.894   1.801   4.193 -1.3336 -3.1973  0.8484
14446TIP3    H264754   1.774   1.876   4.246 -0.0405 -0.2484 -0.2706
14447TIP3   OH264755   3.818   1.542  12.095 -0.2343 -0.0262  0.7437
14447TIP3    H164756   3.836   1.453  12.063  0.8921  0.1865  0.7840
14447TIP3    H264757   3.728   1.538  12.127 -0.8378 -0.6626 -0.9900
14448TIP3   OH264758   2.036   3.470  12.464  0.3129 -0.2671 -0.4724
14448TIP3    H164759   2.042   3.452  12.558 -1.4031 -0.1570 -0.3360
14448TIP3    H264760   2.112   3.525  12.446  3.1680 -3.8536 -0.0318
14449TIP3   OH264761   5.675   5.728  13.073  0.2720 -0.1963  0.2782
14449TIP3    H164762   5.696   5.809  13.120  0.6939 -0.2987  0.2721
14449TIP3    H264763   5.706   5.658  13.132 -0.0298 -0.3502  0.2563
14450TIP3   OH264764   0.434   2.706   5.501  0.1110 -0.2774 -0.2571
14450TIP3    H164765   0.500   2.644   5.470  0.2218  0.5437 -1.6739
14450TIP3    H264766   0.484   2.768   5.555  0.7016  0.9759 -2.2047
14451TIP3   OH264767   2.098   1.205  15.363  0.1903  0.4556 -0.1558
14451TIP3    H164768   2.109   1.171  15.274 -0.3496  0.8163 -0.3657
14451TIP3    H264769   2.126   1.134  15.420 -0.1373 -0.0383 -0.6074
14452TIP3   OH264770   2.495   6.112  15.515 -0.2623 -0.0951  0.0455
14452TIP3    H164771   2.560   6.044  15.533 -0.1351  0.3701  1.3835
14452TIP3    H264772   2.462   6.137  15.602  0.6357  2.4811 -0.3228
14453TIP3   OH264773   0.764   6.395  12.811 -0.5972  0.5056 -0.1356
14453TIP3    H164774   0.706   6.459  12.770 -0.1659  0.5272 -0.7179
14453TIP3    H264775   0.851   6.433  12.803 -0.3068 -0.2701 -0.7214
14454TIP3   OH264776   1.559   2.947  16.982  0.3605  0.5238  0.8204
14454TIP3    H164777   1.566   3.041  16.998  1.7599  0.1049  2.9056
14454TIP3    H264778   1.640   2.924  16.936  0.0985  0.2970  0.4673
14455TIP3   OH264779   4.554   6.731  15.592  0.1833  0.3220  0.2924
14455TIP3    H164780   4.610   6.803  15.562  0.8306 -0.1074  0.4842
14455TIP3    H264781   4.613   6.658  15.607 -0.7102 -0.8967 -1.8656
14456TIP3   OH264782   6.694   2.845   2.647  0.1619 -0.3378 -0.6671
14456TIP3    H164783   6.695   2.782   2.719 -1.0421  1.1041  0.6511
14456TIP3    H264784   6.768   2.904   2.667 -1.5429  1.4129  0.6713
14457TIP3   OH264785   4.742   2.909   3.421  0.4408 -0.0615  0.6057
14457TIP3    H164786   4.829   2.875   3.443  0.3936  0.1002  1.0337
14457TIP3    H264787   4.682   2.857   3.473  0.2252 -0.6593 -0.2302
14458TIP3   OH264788   5.429   1.122  16.306 -0.0788  0.2151 -0.5249
14458TIP3    H164789   5.468   1.149  16.223  0.9850 -1.7152 -0.6904
14458TIP3    H264790   5.474   1.173  16.373  3.1008 -2.2434 -0.6701
14459TIP3   OH264791   1.784   5.402   1.300  0.0565 -0.3467 -0.5599
14459TIP3    H164792   1.707   5.363   1.258 -0.6648 -0.2599  0.6422
14459TIP3    H264793   1.768   5.391   1.394 -0.4010  3.2051 -0.1350
14460TIP3   OH264794   1.013   3.987  12.276  0.1670 -0.3519 -0.1472
14460TIP3    H164795   1.089   4.046  12.271  0.6087 -0.9457 -0.5028
14460TIP3    H264796   1.047   3.909  12.320 -0.1166 -0.8091 -0.7403
14461TIP3   OH264797   5.702   5.579  11.423  0.9042  0.1058  0.2543
14461TIP3    H164798   5.614   5.616  11.432  1.0886  0.6321 -0.0693
14461TIP3    H264799   5.700   5.532  11.339  0.8610 -0.0825  0.3607
14462TIP3   OH264800   4.180   0.963   0.999 -0.3304 -0.3247 -0.1015
14462TIP3    H164801   4.250   1.028   1.008 -0.8538  0.3268 -0.7538
14462TIP3    H264802   4.204   0.894   1.061 -0.0065  0.6946  0.9194
14463TIP3   OH264803   6.750   6.196   1.705  0.5402  0.0406  0.2334
14463TIP3    H164804   6.759   6.291   1.714  0.2679  0.2090 -1.1148
14463TIP3    H264805   6.747   6.181   1.610 -2.3842 -1.0273  0.4459
14464TIP3   OH264806   2.754   0.958  14.507 -0.0037  0.5192 -0.1935
14464TIP3    H164807   2.719   0.872  14.481  3.0034 -1.1264  0.8639
14464TIP3    H264808   2.789   0.995  14.427  1.2820 -0.5970 -0.1836
14465TIP3   OH264809   6.639   2.160  14.861  0.1441 -0.3297 -0.2450
14465TIP3    H164810   6.671   2.163  14.771  0.3001 -2.1393 -0.2716
14465TIP3    H264811   6.572   2.228  14.865 -0.8174 -1.1219 -2.1108
14466TIP3   OH264812   2.334   2.556   3.719  0.1761  0.7741  0.2482
14466TIP3    H164813   2.326   2.511   3.635 -0.6557  0.2554  0.5973
14466TIP3    H264814   2.376   2.492   3.777  0.9209  1.1966  0.1841
14467TIP3   OH264815   5.254   5.628   3.047  0.2433 -0.5042  0.0586
14467TIP3    H164816   5.327   5.631   2.985  0.4730 -1.3171  0.2776
14467TIP3    H264817   5.218   5.539   3.037 -1.4740  0.2778 -0.9125
14468TIP3   OH264818   2.984   5.871  14.498 -0.4515  0.1653 -0.3185
14468TIP3    H164819   2.986   5.950  14.444  0.3702  0.3358 -0.0576
14468TIP3    H264820   2.896   5.837  14.488 -1.2214  1.8219  0.5769
14469TIP3   OH264821   1.813   3.242   2.788  0.6442  0.2779  0.5083
14469TIP3    H164822   1.877   3.270   2.722 -0.1959  1.2279  0.0855
14469TIP3    H264823   1.866   3.215   2.863  1.5587  0.6394  0.0013
14470TIP3   OH264824   5.066   6.463   1.659  0.0511  0.5152 -0.0056
14470TIP3    H164825   5.021   6.547   1.672  1.7870  1.5002 -0.2547
14470TIP3    H264826   5.151   6.487   1.622 -0.8423 -1.5609 -3.6277
14471TIP3   OH264827   4.954   0.721  15.966 -0.1651  0.3294 -0.1556
14471TIP3    H164828   4.925   0.632  15.986 -0.1822 -0.3483 -3.0442
14471TIP3    H264829   5.041   0.711  15.930  0.3646  1.6306  0.7058
14472TIP3   OH264830   3.896   6.244  14.213  0.0337 -0.2935 -0.2582
14472TIP3    H164831   3.870   6.252  14.305 -2.7981 -0.9141 -0.9452
14472TIP3    H264832   3.845   6.311  14.168  0.0913 -1.1482 -1.6088
14473TIP3   OH264833   0.964   3.312  12.181 -0.4111 -0.3611 -0.4349
14473TIP3    H164834   1.024   3.257  12.132 -2.4183 -0.9638 -2.2647
14473TIP3    H264835   0.937   3.257  12.255 -0.7119 -1.0454 -1.0445
14474TIP3   OH264836   6.589   3.325  14.910  0.7602 -0.2830  0.3182
14474TIP3    H164837   6.529   3.366  14.848  0.3164 -2.5904 -0.8273
14474TIP3    H264838   6.591   3.385  14.985  0.5658  2.0752 -1.5068
14475TIP3   OH264839   3.533   6.500   5.661  0.1055 -0.5000  0.2345
14475TIP3    H164840   3.487   6.435   5.714 -1.7333  0.2937 -0.3464
14475TIP3    H264841   3.492   6.583   5.684  2.0992  0.4082  0.6105
14476TIP3   OH264842   0.157   4.851  14.074 -0.3721 -0.0372 -0.0931
14476TIP3    H164843   0.231   4.909  14.092 -1.1996  1.3304 -1.0063
14476TIP3    H264844   0.099   4.861  14.149 -0.6070  0.4995 -0.3385
14477TIP3   OH264845   1.388   2.736   2.530 -0.1881  0.6045 -0.0458
14477TIP3    H164846   1.418   2.827   2.534 -0.6398  0.7876 -0.5972
14477TIP3    H264847   1.359   2.716   2.619  0.8834  0.6563  0.3169
14478TIP3   OH264848   0.566   3.891  11.246 -0.0956  0.9602  0.1271
14478TIP3    H164849   0.519   3.889  11.163 -1.7341  0.2843  1.0608
14478TIP3    H264850   0.554   3.803  11.283 -0.6809  1.7250  1.7941
14479TIP3   OH264851   6.489   0.289  13.535 -0.3031 -0.4801 -0.0528
14479TIP3    H164852   6.445   0.243  13.464 -1.5909 -0.4181  0.6958
14479TIP3    H264853   6.580   0.296  13.507 -1.0468  0.6729 -2.2823
14480TIP3   OH264854   2.870   0.544   1.011  0.2909  0.2387  0.2010
14480TIP3    H164855   2.925   0.542   1.090  0.6880  1.4649 -0.0361
14480TIP3    H264856   2.805   0.475   1.026  2.7648 -2.2576 -0.1723
14481TIP3   OH264857   3.177   1.115   0.981  0.4438 -0.5976 -0.9265
14481TIP3    H164858   3.084   1.105   1.001  1.1427 -3.0204  1.2299
14481TIP3    H264859   3.195   1.208   0.998 -1.3050 -0.3691 -0.2056
14482TIP3   OH264860   6.132   3.134   5.329 -0.2533 -0.4146 -0.2186
14482TIP3    H164861   6.057   3.191   5.348 -1.2548 -0.4700 -3.5747
14482TIP3    H264862   6.206   3.176   5.373 -1.5133  1.8482 -0.1622
14483TIP3   OH264863   1.313   2.207  15.507  0.2232 -0.1647  0.2708
14483TIP3    H164864   1.288   2.115  15.508  0.0012 -0.1114 -0.3035
14483TIP3    H264865   1.307   2.235  15.599  0.1176 -0.6693  0.4165
14484TIP3   OH264866   6.324   0.286   4.387 -0.3133 -0.3940 -0.2767
14484TIP3    H164867   6.348   0.315   4.299 -0.3725 -0.0201 -0.1704
14484TIP3    H264868   6.292   0.197   4.375  1.5016 -1.0552 -0.3794
14485TIP3   OH264869   6.672   0.887  11.012 -0.4538  0.0400  0.1083
14485TIP3    H164870   6.620   0.928  10.943 -0.6435  0.6310  0.5903
14485TIP3    H264871   6.662   0.946  11.087  0.2102 -0.2972  0.4646
14486TIP3   OH264872   4.742   6.067   1.684 -0.8589  0.4433 -0.0223
14486TIP3    H164873   4.781   6.139   1.634 -0.4243 -1.9112 -3.2419
14486TIP3    H264874   4.814   6.005   1.697 -1.9385 -0.8137  0.0433
14487TIP3   OH264875   5.284   1.071  10.461 -0.5263 -0.2143  0.2940
14487TIP3    H164876   5.219   1.029  10.518 -1.2371  0.1774 -0.2252
14487TIP3    H264877   5.331   1.131  10.520 -0.5778 -0.5495  0.6836
14488TIP3   OH264878   0.563   1.920  16.053  0.0696 -0.1252 -0.2003
14488TIP3    H164879   0.578   1.987  16.119  1.4735 -1.3919  0.8049
14488TIP3    H264880   0.617   1.947  15.978 -0.7161  0.7600 -0.4546
14489TIP3   OH264881   3.815   6.134  12.168 -0.1050 -0.3505  0.2533
14489TIP3    H164882   3.800   6.039  12.167 -1.0838 -0.2232  1.3281
14489TIP3    H264883   3.735   6.170  12.205  0.4774  0.8559  0.3551
14490TIP3   OH264884   2.469   5.592  12.391 -0.1714 -0.2964 -0.5308
14490TIP3    H164885   2.507   5.562  12.474 -0.9032  0.3936  0.0671
14490TIP3    H264886   2.496   5.683  12.383 -1.8041  0.2714  0.0053
14491TIP3   OH264887   5.435   5.243   0.798 -0.3729 -0.2292 -0.3176
14491TIP3    H164888   5.366   5.214   0.739 -1.0734 -0.5696  0.6549
14491TIP3    H264889   5.420   5.193   0.878 -0.5338  1.5423  0.7868
14492TIP3   OH264890   4.926   4.593   6.383  0.5916  0.3995  0.1528
14492TIP3    H164891   5.006   4.540   6.384  0.3757  0.0401 -0.8940
14492TIP3    H264892   4.953   4.675   6.341 -0.2924 -0.9358 -3.2675
14493TIP3   OH264893   0.639   1.403   4.894  0.5087  0.5676  0.2699
14493TIP3    H164894   0.589   1.484   4.880 -0.0325  0.2203  0.1654
14493TIP3    H264895   0.575   1.342   4.932  1.3185  0.6860  1.8144
14494TIP3   OH264896   2.959   6.588   4.852 -0.6339 -0.0730  0.1556
14494TIP3    H164897   3.029   6.570   4.790 -1.3964 -2.0926 -0.1361
14494TIP3    H264898   2.922   6.671   4.822  0.5792  0.1926 -0.6383
14495TIP3   OH264899   4.048   0.681   4.766 -0.4962  0.3108  0.3684
14495TIP3    H164900   4.067   0.592   4.737 -3.8156  0.1597 -1.5562
14495TIP3    H264901   4.011   0.670   4.854  2.4862  0.1419  1.6484
14496TIP3   OH264902   5.720   2.576  13.760 -0.5610  0.9213 -0.0636
14496TIP3    H164903   5.733   2.671  13.757 -1.2670  1.0907  1.5250
14496TIP3    H264904   5.753   2.544  13.676  1.9204  2.3085  0.3231
14497TIP3   OH264905   3.934   0.193   5.603 -0.3722  0.0811  0.0718
14497TIP3    H164906   3.985   0.124   5.647 -0.9652 -0.0195  0.6083
14497TIP3    H264907   3.871   0.145   5.549  0.3846  0.2049 -0.9326
14498TIP3   OH264908   2.694   6.722   0.066 -0.3228  0.0058  0.2480
14498TIP3    H164909   2.789   6.734   0.057 -0.4059  1.3299  1.0432
14498TIP3    H264910   2.662   6.807   0.096 -1.8360 -0.2818 -0.5214
14499TIP3   OH264911   1.199   3.930   0.453  0.1891 -0.2984  0.0083
14499TIP3    H164912   1.269   3.883   0.497  1.3337  0.4526 -0.9754
14499TIP3    H264913   1.180   3.877   0.375  0.6719  0.2425 -0.4826
14500TIP3   OH264914   6.175   1.565   0.161  0.6755 -0.7020 -0.4388
14500TIP3    H164915   6.210   1.480   0.188  2.5372  1.1237  3.2663
14500TIP3    H264916   6.249   1.625   0.167 -1.0947  1.6176 -0.8771
14501TIP3   OH264917   5.562   0.629   2.041 -0.9755 -0.8113  0.1172
14501TIP3    H164918   5.553   0.724   2.041  1.3075 -0.5745 -0.3114
14501TIP3    H264919   5.484   0.598   1.995  0.6339  1.1703 -4.2955
14502TIP3   OH264920   5.324   4.649  16.912 -0.3859 -0.6683 -0.4396
14502TIP3    H164921   5.230   4.657  16.929 -0.1363  0.6655  0.3328
14502TIP3    H264922   5.337   4.695  16.829 -0.3878 -0.7361 -0.4768
14503TIP3   OH264923   5.712   0.306  16.553 -0.2415  0.3845 -0.4696
14503TIP3    H164924   5.742   0.377  16.497 -1.3143  0.1856 -1.3075
14503TIP3    H264925   5.790   0.281  16.603  0.1647  2.0693 -0.2285
14504TIP3   OH264926   4.473   3.077   0.053  0.0298 -0.1462 -0.0988
14504TIP3    H164927   4.441   3.007  -0.004 -0.8960  0.5010 -0.3890
14504TIP3    H264928   4.431   3.061   0.137 -0.9877  0.6230 -0.4417
14505TIP3   OH264929   3.999   6.341   4.961 -0.0914 -0.2423  0.3691
14505TIP3    H164930   3.993   6.434   4.982  0.5564 -0.5202  1.8488
14505TIP3    H264931   4.053   6.338   4.881 -0.4046  0.6626  0.1204
14506TIP3   OH264932   1.644   5.772   0.960 -0.1692 -0.1407 -0.1817
14506TIP3    H164933   1.616   5.856   0.996 -0.1798 -0.0622 -0.3746
14506TIP3    H264934   1.690   5.730   1.033  2.9673  1.5214 -1.1118
14507TIP3   OH264935   3.314   6.592   4.876 -0.0234 -0.3355 -0.3018
14507TIP3    H164936   3.376   6.651   4.833 -0.4848  0.0012 -0.5114
14507TIP3    H264937   3.256   6.563   4.806 -0.8857  0.3541  0.1186
14508TIP3   OH264938   1.727   0.832  12.776 -0.0997  0.6309 -0.0052
14508TIP3    H164939   1.679   0.812  12.856 -1.3971 -0.0300 -0.9476
14508TIP3    H264940   1.660   0.850  12.710  0.9257 -0.0084 -1.2548
14509TIP3   OH264941   2.877   6.447   0.489 -0.2047 -1.3007 -0.0672
14509TIP3    H164942   2.862   6.398   0.408 -1.0262 -2.5263  0.8147
14509TIP3    H264943   2.891   6.537   0.460  2.4278 -2.2173 -1.8058
14510TIP3   OH264944   5.883   3.943   3.165 -0.0924 -0.1889 -0.7254
14510TIP3    H164945   5.795   3.917   3.194 -0.3977 -0.3208 -1.7354
14510TIP3    H264946   5.912   4.007   3.229 -0.6843 -0.5921 -0.0449
14511TIP3   OH264947   4.716   3.715  14.915  0.1804 -0.4432 -0.3495
14511TIP3    H164948   4.719   3.647  14.982  0.1956 -2.1916 -2.1044
14511TIP3    H264949   4.807   3.731  14.892  0.5278  3.0167  2.7857
14512TIP3   OH264950   2.872   4.569  14.615 -0.4409 -0.7364 -0.3688
14512TIP3    H164951   2.805   4.606  14.673 -1.1893 -0.1053 -1.6217
14512TIP3    H264952   2.901   4.489  14.660 -0.4670  0.1368  1.2337
14513TIP3   OH264953   6.605   0.742  16.744  0.0477  0.3088 -0.0542
14513TIP3    H164954   6.631   0.766  16.834  0.6016  0.9162 -0.3658
14513TIP3    H264955   6.572   0.653  16.751  1.6602 -0.2607  0.4782
14514TIP3   OH264956   4.696   1.388  14.949 -0.4473  0.2018 -0.4077
14514TIP3    H164957   4.641   1.320  14.910 -0.3938  0.1656 -0.4195
14514TIP3    H264958   4.783   1.349  14.952 -0.4867  0.1367 -0.0878
14515TIP3   OH264959   5.378   2.701  14.279  0.2158 -0.2476 -0.1322
14515TIP3    H164960   5.330   2.643  14.338 -0.9155  0.0233 -0.7746
14515TIP3    H264961   5.310   2.748  14.231  1.0994 -0.7544 -1.9434
14516TIP3   OH264962   5.898   1.198   1.066 -0.1164  0.2855 -0.4543
14516TIP3    H164963   5.930   1.122   1.017 -0.2681  0.2559 -0.5080
14516TIP3    H264964   5.843   1.160   1.135 -0.6830  0.3807 -0.8534
14517TIP3   OH264965   2.375   5.364  15.173 -0.8071 -0.3712  0.2393
14517TIP3    H164966   2.431   5.438  15.198 -0.8063 -0.3783  0.2582
14517TIP3    H264967   2.399   5.295  15.234 -0.9587 -0.3202  0.3564
14518TIP3   OH264968   6.218   0.234  16.571  0.1490 -0.5678  0.4013
14518TIP3    H164969   6.300   0.186  16.556  0.8819  0.8986 -0.3067
14518TIP3    H264970   6.244   0.310  16.623 -0.7291  0.0071  0.0103
14519TIP3   OH264971   2.747   2.059   5.205 -0.9229 -0.1317 -0.2518
14519TIP3    H164972   2.776   2.141   5.166 -0.6542 -1.1361 -2.2365
14519TIP3    H264973   2.715   2.007   5.131  1.2705 -2.7909  0.6087
14520TIP3   OH264974   1.145   6.164   1.037 -0.0569 -0.4815 -0.0442
14520TIP3    H164975   1.214   6.100   1.019 -0.6024 -1.1719  0.3225
14520TIP3    H264976   1.183   6.248   1.008  0.4752 -1.0265 -0.9761
14521TIP3   OH264977   0.822   6.739  14.703  0.2962  0.2223 -0.1894
14521TIP3    H164978   0.761   6.810  14.683 -0.2001 -0.4359 -1.0309
14521TIP3    H264979   0.771   6.675  14.752  0.8893  0.7018  1.0601
14522TIP3   OH264980   2.079   2.934   4.330  0.0748 -0.6491  0.0237
14522TIP3    H164981   2.039   2.884   4.259 -0.0721 -0.9769  0.3336
14522TIP3    H264982   2.127   2.869   4.381 -1.2889 -0.7250  1.2420
14523TIP3   OH264983   3.840   4.345   3.661  0.7186  0.0521  0.3698
14523TIP3    H164984   3.886   4.362   3.579 -1.2937 -2.3078 -1.3217
14523TIP3    H264985   3.895   4.280   3.706  2.3093  2.0370  1.4046
14524TIP3   OH264986   4.787   5.876   3.069 -0.1965  0.4968 -1.2022
14524TIP3    H164987   4.875   5.838   3.074  0.3279  1.5739 -1.9760
14524TIP3    H264988   4.738   5.816   3.013 -0.2191 -0.5917 -0.0329
14525TIP3   OH264989   6.582   5.730  17.182 -0.5086 -0.0271  0.4700
14525TIP3    H164990   6.567   5.757  17.092  2.7376 -0.0129 -0.1181
14525TIP3    H264991   6.605   5.638  17.177 -1.4827 -0.3440  1.4318
14526TIP3   OH264992   0.768   1.336  15.721  0.4939  0.1272 -0.1006
14526TIP3    H164993   0.841   1.387  15.756 -0.9044  2.1094  0.0121
14526TIP3    H264994   0.690   1.381  15.754 -0.8640  0.7982 -3.9541
14527TIP3   OH264995   3.007   2.465  12.401 -0.3722  0.4011  0.3290
14527TIP3    H164996   3.028   2.543  12.452  0.2323  0.9345 -0.7233
14527TIP3    H264997   3.080   2.405  12.418 -0.0693  0.6568 -0.0709
14528TIP3   OH264998   5.879   6.314   5.366 -0.0589 -0.2469 -0.7247
14528TIP3    H164999   5.801   6.273   5.330 -0.0507 -0.4345 -0.5270
14528TIP3    H265000   5.941   6.316   5.293 -0.1315 -0.3999 -0.7892
14529TIP3   OH265001   5.605   2.250   1.031  0.1997 -0.5310  0.1590
14529TIP3    H165002   5.545   2.308   0.985 -1.2392 -1.9464  0.1931
14529TIP3    H265003   5.584   2.260   1.124  0.3376 -0.6702  0.2072
14530TIP3   OH265004   2.754   6.677  11.733  0.1771 -0.5112 -0.0509
14530TIP3    H165005   2.692   6.604  11.734  0.1118 -0.4533  1.5413
14530TIP3    H265006   2.801   6.670  11.817  2.7860 -0.9444 -1.4711
14531TIP3   OH265007   4.601   3.501  14.452 -0.1305 -0.1362  0.2329
14531TIP3    H165008   4.506   3.490  14.445 -0.6810  2.8829  2.1261
14531TIP3    H265009   4.613   3.563  14.524  3.3031 -0.6366  0.1833
14532TIP3   OH265010   0.983   5.446   1.550  0.4185 -0.5629 -0.2581
14532TIP3    H165011   1.020   5.371   1.504  2.4960  0.9406 -1.1210
14532TIP3    H265012   0.956   5.506   1.480 -1.0042 -0.3829  0.4253
14533TIP3   OH265013   5.989   2.985   2.796 -0.2209  0.1818 -0.4125
14533TIP3    H165014   5.997   2.956   2.887  0.7724  0.3259 -0.4466
14533TIP3    H265015   5.996   3.080   2.800  2.1870  0.0569 -0.8588
14534TIP3   OH265016   2.302   2.475  16.375  0.4655  0.1901 -0.4083
14534TIP3    H165017   2.215   2.447  16.347 -0.5767  1.7598  1.1212
14534TIP3    H265018   2.358   2.399  16.359 -1.9587 -2.3194  2.2998
14535TIP3   OH265019   6.289   1.078  14.587 -0.3650 -0.0056 -0.2491
14535TIP3    H165020   6.272   0.988  14.559  2.0105  0.0852 -2.1766
14535TIP3    H265021   6.236   1.132  14.528  0.0195 -0.0640 -0.6527
14536TIP3   OH265022   4.328   1.297   3.056 -0.5821  0.6437  0.0236
14536TIP3    H165023   4.374   1.356   2.997 -0.4784 -1.7736 -2.4259
14536TIP3    H265024   4.235   1.312   3.038 -0.5539  0.0401 -0.6472
14537TIP3   OH265025   6.305   0.847   6.367 -0.3065 -0.3813  0.3196
14537TIP3    H165026   6.216   0.825   6.338 -0.3622  0.3568 -0.0815
14537TIP3    H265027   6.358   0.773   6.339 -0.0861  0.9483 -3.0628
14538TIP3   OH265028   1.442   4.786   6.376 -0.3782 -0.4455  0.3789
14538TIP3    H165029   1.382   4.836   6.321 -1.0427 -0.6955  0.8640
14538TIP3    H265030   1.522   4.839   6.380  0.0602 -0.8963 -1.6522
14539TIP3   OH265031   6.646   6.694   6.188 -0.2346  0.2118  0.3093
14539TIP3    H165032   6.716   6.635   6.214  0.0833  0.4001 -0.1055
14539TIP3    H265033   6.691   6.772   6.155 -0.5930 -0.6385 -2.2712
14540TIP3   OH265034   5.167   3.251  12.567  0.2403  0.0411  0.0893
14540TIP3    H165035   5.231   3.253  12.496  1.1300  3.6022  0.9054
14540TIP3    H265036   5.213   3.209  12.640  0.5984 -0.1365 -0.2358
14541TIP3   OH265037   3.523   6.782   1.022 -0.5939  0.2027 -0.5429
14541TIP3    H165038   3.532   6.877   1.030 -2.3890  0.4288 -0.9516
14541TIP3    H265039   3.484   6.769   0.935  1.7583 -1.0683 -1.4616
14542TIP3   OH265040   6.738   5.517   4.348 -0.8376 -0.0351  0.0391
14542TIP3    H165041   6.761   5.609   4.332  0.2821  0.1381  2.3313
14542TIP3    H265042   6.822   5.472   4.350 -1.5634 -1.8044 -4.6060
14543TIP3   OH265043   1.935   5.662   4.222 -0.5586 -0.1136  0.4017
14543TIP3    H165044   2.007   5.724   4.232 -0.9978  0.4935 -0.1468
14543TIP3    H265045   1.976   5.584   4.184 -0.5033  0.9223 -1.7481
14544TIP3   OH265046   5.847   6.375  16.203  0.0320  0.0366 -0.4015
14544TIP3    H165047   5.864   6.467  16.180 -2.1778  0.5662  0.0524
14544TIP3    H265048   5.899   6.360  16.282 -0.4178  1.2049  0.1247
14545TIP3   OH265049   1.391   1.473  16.576 -0.0075 -0.2691 -0.1154
14545TIP3    H165050   1.464   1.522  16.613  0.1889 -0.5535 -0.1271
14545TIP3    H265051   1.383   1.396  16.632 -1.5716  0.7333  1.0985
14546TIP3   OH265052   5.760   6.415  10.245  0.7754  0.4538  1.2292
14546TIP3    H165053   5.692   6.482  10.255  0.1457 -0.0103  0.1515
14546TIP3    H265054   5.742   6.353  10.315  0.2027  0.4350  1.0692
14547TIP3   OH265055   0.922   3.390  13.536  0.8146  0.2350  0.3763
14547TIP3    H165056   0.895   3.369  13.625  4.2150 -1.0343  1.1894
14547TIP3    H265057   0.881   3.322  13.482  0.7175 -0.4612  1.3048
14548TIP3   OH265058   2.228   3.873  14.827  0.3710 -0.7889 -0.3893
14548TIP3    H165059   2.261   3.954  14.786 -2.5576 -0.7875 -2.9012
14548TIP3    H265060   2.268   3.803  14.776  3.1519 -1.0254  1.9805
14549TIP3   OH265061   3.748   2.745  12.815 -0.6031 -0.3299  0.5498
14549TIP3    H165062   3.706   2.767  12.898 -0.3137  1.9813  0.0980
14549TIP3    H265063   3.676   2.717  12.759 -0.8353 -1.6174  1.4438
14550TIP3   OH265064   3.368   4.402   4.167  0.0405  0.2131 -0.1775
14550TIP3    H165065   3.431   4.333   4.145 -0.2006 -0.0518 -0.0403
14550TIP3    H265066   3.417   4.463   4.221  0.0406 -0.2562  0.3599
14551TIP3   OH265067   4.781   1.796   2.692  0.3607 -0.0746 -0.1643
14551TIP3    H165068   4.802   1.702   2.693 -1.4092 -0.4831 -0.7411
14551TIP3    H265069   4.735   1.810   2.610  1.5350  1.5360 -0.5771
14552TIP3   OH265070   5.148   4.909  10.289 -0.3748  0.1476 -0.3503
14552TIP3    H165071   5.188   4.977  10.235 -0.8020  0.2752 -0.5106
14552TIP3    H265072   5.054   4.922  10.277 -0.4573 -0.4936 -0.4090
14553TIP3   OH265073   1.607   1.587  11.514  0.4430  0.6904 -0.8259
14553TIP3    H165074   1.596   1.504  11.560  4.1956 -0.3125 -1.5520
14553TIP3    H265075   1.561   1.575  11.431  0.7800 -0.6221 -0.8289
14554TIP3   OH265076   3.030   4.502   3.242  0.0048 -0.2247 -0.5677
14554TIP3    H165077   3.121   4.487   3.269  0.6191  0.5843 -2.0945
14554TIP3    H265078   3.023   4.456   3.158 -1.2176 -0.8617 -0.1281
14555TIP3   OH265079   5.103   3.476   0.281 -0.3595 -0.3997 -0.2878
14555TIP3    H165080   5.013   3.489   0.250  0.8377  2.6288 -2.8140
14555TIP3    H265081   5.156   3.525   0.219  2.7678  0.9772  3.3172
14556TIP3   OH265082   2.702   1.107   0.522  0.4909  0.6046 -0.0490
14556TIP3    H165083   2.773   1.170   0.513  1.9454 -0.8473  0.9470
14556TIP3    H265084   2.729   1.050   0.595 -1.0208 -0.8294 -0.5706
14557TIP3   OH265085   4.865   3.771  11.802 -0.0859  0.3991  0.0287
14557TIP3    H165086   4.794   3.754  11.741 -0.7446  1.7369  0.4034
14557TIP3    H265087   4.929   3.702  11.785 -0.9318 -0.1048 -1.1329
14558TIP3   OH265088   0.343   2.081  12.666  0.0612 -0.1037 -0.1412
14558TIP3    H165089   0.341   2.141  12.740 -0.6942 -0.6467  0.2886
14558TIP3    H265090   0.354   1.995  12.706 -0.7154 -0.4380 -0.6321
14559TIP3   OH265091   3.119   3.344  16.924  0.5722 -0.1978  0.0343
14559TIP3    H165092   3.063   3.267  16.933 -3.5427  2.5319 -1.1938
14559TIP3    H265093   3.140   3.348  16.831  0.6272  0.2558  0.0649
14560TIP3   OH265094   3.507   0.502   2.050 -0.8328  0.0244  0.4105
14560TIP3    H165095   3.599   0.505   2.023 -0.4851 -0.5705  1.4762
14560TIP3    H265096   3.471   0.425   2.006 -0.8015  0.2094  0.0603
14561TIP3   OH265097   0.488   0.436  11.536  0.2070 -0.5994 -0.5499
14561TIP3    H165098   0.420   0.456  11.472  0.5532  0.0735 -0.7038
14561TIP3    H265099   0.440   0.418  11.617 -0.0358  2.6176  0.0759
14562TIP3   OH265100   4.089   4.374  10.693 -0.3774 -0.0604 -0.1182
14562TIP3    H165101   3.998   4.401  10.683 -0.9201 -0.7181  2.7778
14562TIP3    H265102   4.126   4.438  10.753  1.7811  1.6358 -3.1112
14563TIP3   OH265103   5.240   5.759   1.651  0.4428 -0.3317  0.5087
14563TIP3    H165104   5.248   5.664   1.643 -1.0395 -0.2991 -1.9581
14563TIP3    H265105   5.151   5.774   1.682  0.6430  0.2478  0.8145
14564TIP3   OH265106   6.490   6.495   0.020 -0.0479  0.7947 -0.0686
14564TIP3    H165107   6.560   6.520   0.080  1.2537 -1.7053 -0.4890
14564TIP3    H265108   6.503   6.552  -0.056 -1.0697  3.2510  1.5528
14565TIP3   OH265109   5.878   4.097  14.788  0.3059  0.0388 -0.1303
14565TIP3    H165110   5.886   4.048  14.706  0.2408  0.0115 -0.1206
14565TIP3    H265111   5.843   4.182  14.762  0.2278  0.0083 -0.1224
14566TIP3   OH265112   5.553   5.616  14.732  0.7160 -0.7043  0.2078
14566TIP3    H165113   5.524   5.541  14.784  1.7391  1.2482  3.7557
14566TIP3    H265114   5.645   5.627  14.755  1.4436 -0.2562 -2.7126
14567TIP3   OH265115   5.075   1.663  14.229  0.0929 -0.2894  0.1158
14567TIP3    H165116   5.135   1.738  14.228 -0.5344  0.2435  1.3971
14567TIP3    H265117   5.105   1.609  14.301 -0.4946 -0.4007  0.2845
14568TIP3   OH265118   1.109   4.956   4.296 -0.3446 -0.1601  0.7917
14568TIP3    H165119   1.151   4.905   4.227 -0.1441  0.5048  0.4153
14568TIP3    H265120   1.035   4.999   4.253  1.4838  2.6263  0.2214
14569TIP3   OH265121   2.038   6.355   2.854 -0.0495 -0.6919  0.0413
14569TIP3    H165122   1.944   6.362   2.872 -0.6821 -1.1601 -2.8717
14569TIP3    H265123   2.049   6.268   2.816  1.6307 -0.7462  0.5911
14570TIP3   OH265124   1.728   2.867   1.633 -0.0931  0.3699 -0.6246
14570TIP3    H165125   1.675   2.870   1.713  2.0168  1.6184  0.7705
14570TIP3    H265126   1.686   2.800   1.579 -1.2366 -0.9018  1.7579
14571TIP3   OH265127   0.902   5.109   4.537  0.0548  0.3409 -0.2184
14571TIP3    H165128   0.902   5.065   4.452 -1.6446  1.2490 -0.7034
14571TIP3    H265129   0.990   5.147   4.544  1.1076 -1.9316 -0.3773
14572TIP3   OH265130   1.207   6.427   3.406 -0.7964  0.2853 -0.3263
14572TIP3    H165131   1.188   6.519   3.392 -1.6805  0.2146  0.3972
14572TIP3    H265132   1.250   6.399   3.324  0.3979  1.5680 -0.1683
14573TIP3   OH265133   6.607   4.079   1.318 -0.5938 -0.2720 -0.3742
14573TIP3    H165134   6.523   4.118   1.295 -0.5856  0.8790  1.4568
14573TIP3    H265135   6.586   3.991   1.347 -1.4033  0.5692  1.6911
14574TIP3   OH265136   3.088   4.318   5.607  0.1230  0.3817  0.5256
14574TIP3    H165137   3.062   4.336   5.517 -0.3716  0.0008  0.5940
14574TIP3    H265138   3.155   4.250   5.600  1.7990  2.0062  0.2847
14575TIP3   OH265139   4.668   5.541   4.666  0.2653  0.1303  0.0977
14575TIP3    H165140   4.726   5.466   4.651 -0.3815  0.1029 -2.5634
14575TIP3    H265141   4.584   5.502   4.690  0.1204 -0.0037 -0.5987
14576TIP3   OH265142   1.460   5.293   1.714  0.5478 -0.5918  0.4332
14576TIP3    H165143   1.425   5.207   1.690 -0.9614  0.2634 -0.5198
14576TIP3    H265144   1.383   5.345   1.735  1.5017  0.3423  1.6835
14577TIP3   OH265145   5.987   6.041   2.223 -0.1038 -0.2789  0.5692
14577TIP3    H165146   6.057   6.037   2.159  0.5096 -0.9158  1.2669
14577TIP3    H265147   5.976   6.134   2.242 -0.3055 -0.0897 -0.4625
14578TIP3   OH265148   5.534   3.831   0.960  0.3558  0.2497 -0.1583
14578TIP3    H165149   5.460   3.789   0.917  0.6619  0.0201 -0.4718
14578TIP3    H265150   5.496   3.899   1.015 -0.1746 -0.6705  0.6228
14579TIP3   OH265151   5.481   4.461   2.572 -0.0857 -0.3513  0.4314
14579TIP3    H165152   5.404   4.413   2.544  1.2059 -1.8785 -0.6018
14579TIP3    H265153   5.488   4.442   2.666 -0.5829 -0.7445  0.3882
14580TIP3   OH265154   1.388   5.206  13.900 -0.7284 -1.2624 -0.3706
14580TIP3    H165155   1.299   5.234  13.923 -1.3361 -2.5394 -1.1167
14580TIP3    H265156   1.381   5.175  13.810  0.7674 -0.1170 -0.9027
14581TIP3   OH265157   0.626   1.237   0.268 -0.7978 -0.1539 -0.0257
14581TIP3    H165158   0.544   1.192   0.245 -1.9250  1.2056  1.1875
14581TIP3    H265159   0.597   1.320   0.307  1.1526  0.0297  1.0874
14582TIP3   OH265160   6.031   6.185   3.342 -0.5078 -0.5857 -0.3261
14582TIP3    H165161   5.969   6.259   3.344 -0.4123 -0.5239  1.6175
14582TIP3    H265162   5.976   6.108   3.329 -0.8423 -0.3947 -0.0407
14583TIP3   OH265163   2.022   5.162  16.438 -0.1312 -0.0840  0.4008
14583TIP3    H165164   2.116   5.171  16.421  0.1748 -0.2890  1.9120
14583TIP3    H265165   1.980   5.200  16.361  1.1821 -1.9353 -1.2764
14584TIP3   OH265166   4.082   3.156   6.245  0.2317 -0.6409  0.2990
14584TIP3    H165167   3.993   3.141   6.214 -0.1302 -0.0040  0.9930
14584TIP3    H265168   4.097   3.087   6.310  0.9381 -1.8886 -1.1507
14585TIP3   OH265169   1.288   2.224   1.154  0.4553  0.6723 -0.4777
14585TIP3    H165170   1.311   2.135   1.183  0.1769  0.9205  0.5222
14585TIP3    H265171   1.315   2.280   1.227 -2.2086  1.0793  0.2472
14586TIP3   OH265172   0.416   3.952   0.494 -0.1579 -0.3386  0.1540
14586TIP3    H165173   0.471   4.008   0.549 -0.5919 -0.1594  0.4133
14586TIP3    H265174   0.386   4.010   0.424  0.7198 -0.6703 -0.4992
14587TIP3   OH265175   2.748   4.955   3.372 -0.0976  0.4939 -0.1335
14587TIP3    H165176   2.816   4.942   3.306  0.2502 -2.5947  0.7682
14587TIP3    H265177   2.761   4.883   3.434 -2.7825  1.1610  1.2550
14588TIP3   OH265178   4.679   0.382   1.189  0.0861  0.2215  0.5949
14588TIP3    H165179   4.729   0.314   1.143 -0.2332  1.4089 -1.5546
14588TIP3    H265180   4.636   0.335   1.261  1.4015 -1.4852  0.3107
14589TIP3   OH265181   5.511   5.018  11.775 -0.1390 -0.0570 -0.0339
14589TIP3    H165182   5.508   5.047  11.684  1.7726 -0.6420 -0.2969
14589TIP3    H265183   5.586   5.064  11.813 -0.4198 -0.4555  1.0238
14590TIP3   OH265184   0.134   6.379  16.469  0.5708  0.0289  0.0153
14590TIP3    H165185   0.205   6.318  16.489 -1.4421 -3.1137 -1.9448
14590TIP3    H265186   0.073   6.369  16.542 -1.9643 -3.9477 -2.4272
14591TIP3   OH265187   0.290   4.658  15.515 -0.0299 -0.0891  0.3243
14591TIP3    H165188   0.372   4.618  15.544 -0.4541 -0.8780  0.4525
14591TIP3    H265189   0.222   4.609  15.561 -0.6504 -0.5548 -1.0573
14592TIP3   OH265190   0.299   0.250   2.585 -0.3877 -0.5733  1.0432
14592TIP3    H165191   0.354   0.179   2.554  1.1928  0.9857  0.1786
14592TIP3    H265192   0.226   0.252   2.524  0.7330 -0.0116 -0.3057
14593TIP3   OH265193   1.096   6.494  12.568  0.0876  0.0449 -0.5836
14593TIP3    H165194   1.057   6.441  12.499 -0.6411 -0.6382  0.3380
14593TIP3    H265195   1.123   6.431  12.634  1.9850  0.5740 -0.8103
14594TIP3   OH265196   0.582   3.033   4.655 -0.3282  0.0126  0.3714
14594TIP3    H165197   0.531   3.096   4.604 -1.4054 -0.0759  1.3295
14594TIP3    H265198   0.569   3.060   4.746  1.8087  0.3474  0.5974
14595TIP3   OH265199   5.515   2.883   2.398  0.2165 -0.4324  0.3773
14595TIP3    H165200   5.560   2.828   2.462  1.2148 -1.0797 -0.8677
14595TIP3    H265201   5.480   2.956   2.450  0.4662 -1.2655  1.7515
14596TIP3   OH265202   2.037   4.516  16.403 -0.7657 -0.5908  0.7442
14596TIP3    H165203   2.093   4.452  16.447 -0.4916  0.6826  2.2887
14596TIP3    H265204   1.960   4.523  16.460 -1.3186 -0.4105 -0.0242
14597TIP3   OH265205   2.380   5.914   5.023 -0.5484  0.4242  0.4724
14597TIP3    H165206   2.398   5.820   5.029  1.4414  0.6883 -0.9135
14597TIP3    H265207   2.330   5.924   4.942 -1.1755  0.5066  0.8687
14598TIP3   OH265208   6.220   1.894  13.943 -0.1621  0.6516 -0.9370
14598TIP3    H165209   6.169   1.932  14.015 -0.6453  2.4224 -2.1833
14598TIP3    H265210   6.156   1.840  13.895 -0.0197  0.0879 -0.5046
14599TIP3   OH265211   3.149   6.728  16.450 -0.0808 -0.1576 -0.3651
14599TIP3    H165212   3.126   6.653  16.395  0.5114 -1.5495  1.2350
14599TIP3    H265213   3.217   6.774  16.401  0.1356 -1.1272 -0.9904
14600TIP3   OH265214   6.494   5.912  11.572  0.4081  0.0672 -0.3410
14600TIP3    H165215   6.520   5.941  11.484 -0.3519  1.5694 -0.0830
14600TIP3    H265216   6.407   5.874  11.560  0.5394 -0.2355 -0.3323
14601TIP3   OH265217   1.631   0.139  15.906  0.2369  0.0332 -0.1357
14601TIP3    H165218   1.715   0.094  15.917  0.3717  0.2569 -0.2611
14601TIP3    H265219   1.647   0.206  15.839  0.0171  0.2201 -0.0042
14602TIP3   OH265220   5.710   3.029   1.738 -0.1138  0.9394 -0.1778
14602TIP3    H165221   5.682   2.967   1.806  0.3653 -0.8681 -1.6058
14602TIP3    H265222   5.775   3.084   1.782 -0.4152  0.3301  1.0730
14603TIP3   OH265223   2.788   0.628   6.439  0.7530  0.0208 -0.6882
14603TIP3    H165224   2.721   0.690   6.467  0.9863 -0.2056  0.3952
14603TIP3    H265225   2.834   0.672   6.367  1.0262  1.1589  0.1774
14604TIP3   OH265226   0.228   0.339  12.159  0.0863 -0.6077  0.1542
14604TIP3    H165227   0.174   0.368  12.086 -0.6965  1.1962  1.4191
14604TIP3    H265228   0.165   0.319  12.229  1.0487  1.9739  1.8062
14605TIP3   OH265229   0.780   2.003  10.925 -0.0602 -0.0031 -0.1817
14605TIP3    H165230   0.866   1.975  10.956  1.2987  1.3099 -2.5292
14605TIP3    H265231   0.780   1.979  10.832 -1.9066  0.7277 -0.3866
14606TIP3   OH265232   0.974   5.226   5.880 -0.2272  0.0085 -0.2735
14606TIP3    H165233   0.894   5.255   5.923  0.4027  2.4163 -0.6544
14606TIP3    H265234   0.950   5.217   5.787 -0.7210 -1.9275  0.0130
14607TIP3   OH265235   5.663   2.055  16.378 -0.5651 -0.1730 -0.5315
14607TIP3    H165236   5.599   2.057  16.307 -0.8303  0.0242 -0.2856
14607TIP3    H265237   5.614   2.081  16.456 -0.3423 -0.6855 -0.2188
14608TIP3   OH265238   4.315   1.709   0.056 -0.2696  0.2535 -0.5858
14608TIP3    H165239   4.383   1.688  -0.008 -1.3974  0.7052 -1.9544
14608TIP3    H265240   4.332   1.649   0.129  0.9754 -0.3376 -1.3368
14609TIP3   OH265241   4.359   5.940  16.498 -0.4588  0.0416 -0.4281
14609TIP3    H165242   4.442   5.986  16.484  0.0387 -0.4585  0.7602
14609TIP3    H265243   4.296   5.986  16.443  0.6467  0.3123 -1.4976
14610TIP3   OH265244   2.025   2.338  11.062 -0.4144  0.5107  0.3074
14610TIP3    H165245   1.973   2.260  11.046  0.9479 -0.1484 -1.0870
14610TIP3    H265246   2.034   2.379  10.975  1.1555  0.7333  0.5574
14611TIP3   OH265247   2.053   6.387   2.338 -0.2682  0.0499 -0.3707
14611TIP3    H165248   2.032   6.321   2.403 -1.3269  0.5295 -0.2162
14611TIP3    H265249   1.969   6.413   2.301  0.2970 -0.0952 -1.8154
14612TIP3   OH265250   6.631   6.085   2.997 -0.5704  0.0227 -0.1083
14612TIP3    H165251   6.567   6.030   2.951  0.3207 -0.9677 -0.1888
14612TIP3    H265252   6.673   6.135   2.927 -0.5967 -0.0289 -0.1613
14613TIP3   OH265253   2.285   0.991  12.408  0.2462  0.2152 -0.1197
14613TIP3    H165254   2.248   0.959  12.325 -0.2759  0.0647  0.1726
14613TIP3    H265255   2.285   0.914  12.465 -0.4470  0.5992  0.3885
14614TIP3   OH265256   2.315   5.547   4.563 -0.0715 -0.2802 -0.3485
14614TIP3    H165257   2.238   5.512   4.607 -0.4418  0.0692 -0.7118
14614TIP3    H265258   2.375   5.473   4.556 -0.5590 -0.6639 -0.4658
14615TIP3   OH265259   5.605   5.074  14.171 -0.1699 -0.1876  0.3161
14615TIP3    H165260   5.542   5.056  14.102  1.6204 -0.0624 -1.3854
14615TIP3    H265261   5.638   5.161  14.152 -2.1237  1.3198  3.3263
14616TIP3   OH265262   2.343   6.071   0.324 -0.3245  0.6323 -0.5225
14616TIP3    H165263   2.294   5.988   0.328  1.6142 -0.5708 -0.7646
14616TIP3    H265264   2.290   6.132   0.375 -1.6069 -0.8663  0.0067
14617TIP3   OH265265   5.373   3.103   2.512  0.7006  0.5934 -0.0349
14617TIP3    H165266   5.454   3.153   2.506  0.8784  0.7490  2.9107
14617TIP3    H265267   5.312   3.162   2.557  0.0773 -0.8025  0.9877
14618TIP3   OH265268   0.823   2.377  13.127  0.6802 -0.8882  0.3723
14618TIP3    H165269   0.861   2.326  13.198  0.0760  1.6957  2.6389
14618TIP3    H265270   0.819   2.467  13.161 -0.5417  0.2471 -2.5589
14619TIP3   OH265271   4.310   1.121  11.369 -0.3198 -0.1318 -0.2042
14619TIP3    H165272   4.233   1.084  11.413 -0.2582 -1.1542 -0.9538
14619TIP3    H265273   4.293   1.215  11.366 -0.7882 -0.1618  1.0978
14620TIP3   OH265274   1.966   1.338  17.033 -0.2015  0.3723 -0.3333
14620TIP3    H165275   1.916   1.259  17.055  2.6678 -1.3152  0.3706
14620TIP3    H265276   1.967   1.389  17.114  0.4071 -0.2703  0.0704
14621TIP3   OH265277   6.451   3.513  15.983  0.3869  0.0719 -0.3026
14621TIP3    H165278   6.465   3.596  15.938 -0.7314  0.3337 -0.2011
14621TIP3    H265279   6.374   3.476  15.940  1.4154 -1.3378 -0.9375
14622TIP3   OH265280   5.542   6.586   4.831  0.1930 -0.1558  0.9142
14622TIP3    H165281   5.492   6.648   4.884 -1.0707 -0.5663  0.2244
14622TIP3    H265282   5.628   6.627   4.822 -1.0323  2.2318 -0.7146
14623TIP3   OH265283   2.300   1.187  14.764  0.1232 -0.2900 -0.0067
14623TIP3    H165284   2.292   1.205  14.670  0.2170 -1.7179 -0.2937
14623TIP3    H265285   2.393   1.203  14.783 -0.0072  0.5399 -0.0314
14624TIP3   OH265286   0.354   5.683   4.808 -0.1351 -0.3636  0.2756
14624TIP3    H165287   0.305   5.689   4.889 -0.3326 -2.7369  0.3601
14624TIP3    H265288   0.446   5.688   4.835 -0.1435 -2.7878  0.8512
14625TIP3   OH265289   5.377   4.102   1.786  0.7313  0.3769 -0.3110
14625TIP3    H165290   5.329   4.167   1.734  0.4850 -1.5928 -2.6434
14625TIP3    H265291   5.457   4.087   1.736  2.0255  0.8017  1.5929
14626TIP3   OH265292   0.400   6.573  16.354 -0.3206  0.9976  0.1479
14626TIP3    H165293   0.325   6.517  16.374 -1.5212  3.1488  1.9698
14626TIP3    H265294   0.433   6.601  16.440  3.2188 -0.6724 -0.5788
14627TIP3   OH265295   6.776   1.703   4.552  0.9186 -0.1828  0.2655
14627TIP3    H165296   6.803   1.788   4.517  0.4704 -0.6303 -1.1858
14627TIP3    H265297   6.771   1.646   4.476 -0.1217 -1.1649  1.0500
14628TIP3   OH265298   2.362   0.466   1.391 -0.1846 -0.1454 -0.7181
14628TIP3    H165299   2.440   0.493   1.439  0.5945 -2.4373 -0.6325
14628TIP3    H265300   2.301   0.539   1.399  1.5708  1.2335  0.0941
14629TIP3   OH265301   3.768   3.946  17.111 -0.7614 -0.3200  0.2810
14629TIP3    H165302   3.806   3.966  17.197 -1.5569  0.2296  0.5091
14629TIP3    H265303   3.691   3.892  17.131 -0.8072 -0.3920 -0.1019
14630TIP3   OH265304   4.613   2.314   0.739  0.7987 -0.0660 -0.6533
14630TIP3    H165305   4.667   2.292   0.663 -0.1742  0.4905 -1.5245
14630TIP3    H265306   4.592   2.229   0.779 -0.9612 -0.5941 -2.6150
14631TIP3   OH265307   5.022   1.792   1.842 -0.0843  0.1292  0.0266
14631TIP3    H165308   4.986   1.802   1.931 -0.9904 -0.8812 -0.2224
14631TIP3    H265309   5.116   1.795   1.855 -0.1903 -0.6028  1.1143
14632TIP3   OH265310   0.453   3.804   3.496 -0.0752  0.4161 -0.4258
14632TIP3    H165311   0.484   3.786   3.407 -0.2319 -1.3152 -0.1472
14632TIP3    H265312   0.373   3.855   3.483 -0.6631 -0.6984 -1.3213
14633TIP3   OH265313   3.769   3.643   0.376  0.2548  0.5270  0.1867
14633TIP3    H165314   3.751   3.620   0.467  2.2565  1.2336  0.7926
14633TIP3    H265315   3.730   3.572   0.324 -0.4208 -0.1508  1.6098
14634TIP3   OH265316   2.972   6.613  16.197  0.2996  0.9201 -0.2723
14634TIP3    H165317   2.955   6.706  16.213 -0.5757  0.3749  2.1650
14634TIP3    H265318   2.888   6.571  16.210  0.4380 -0.1266 -2.4989
14635TIP3   OH265319   0.391   6.659  15.646 -0.4141  0.8583  0.6371
14635TIP3    H165320   0.459   6.648  15.713 -2.4145  0.6094  2.6945
14635TIP3    H265321   0.374   6.753  15.644 -0.0993  0.9100  0.1823
14636TIP3   OH265322   0.634   2.813  12.797 -0.1390 -0.0043 -0.3669
14636TIP3    H165323   0.596   2.876  12.736 -3.2142 -1.2156  0.1990
14636TIP3    H265324   0.588   2.731  12.779 -0.6880 -0.5539  3.1082
14637TIP3   OH265325   1.392   6.672   0.269  0.2306  0.2205 -0.0231
14637TIP3    H165326   1.320   6.734   0.287 -0.6441 -1.3682  2.1684
14637TIP3    H265327   1.354   6.586   0.287  2.0334 -0.8173 -1.0841
14638TIP3   OH265328   0.760   1.148   4.263 -0.6753 -0.6056  0.6240
14638TIP3    H165329   0.673   1.128   4.296 -1.2234 -0.7724 -0.8672
14638TIP3    H265330   0.812   1.168   4.341 -1.8841 -1.1102  1.5709
14639TIP3   OH265331   3.870   2.356   2.635  0.0503  0.0227 -0.0730
14639TIP3    H165332   3.864   2.335   2.542  0.3549 -0.5016  0.0226
14639TIP3    H265333   3.788   2.325   2.672 -0.1661  0.4339 -0.2046
14640TIP3   OH265334   0.917   2.047   3.256  1.1321  0.0099 -0.4467
14640TIP3    H165335   0.965   1.970   3.226 -0.1209 -1.1581  0.4624
14640TIP3    H265336   0.941   2.057   3.348 -0.3426 -0.5947  0.0227
14641TIP3   OH265337   6.209   5.428   4.821  0.5113  0.3392 -0.2476
14641TIP3    H165338   6.183   5.496   4.759 -1.4527  2.2195  2.5197
14641TIP3    H265339   6.127   5.385   4.846  1.5270 -1.8811 -0.5642
14642TIP3   OH265340   0.126   1.396   0.095  0.7622 -0.0267  0.4265
14642TIP3    H165341   0.211   1.397   0.139 -0.2649  1.9722  2.4775
14642TIP3    H265342   0.121   1.480   0.050  1.0928 -1.3684 -2.2397
14643TIP3   OH265343   2.755   0.365  15.122 -0.2593 -0.3247 -0.1188
14643TIP3    H165344   2.791   0.307  15.190  1.7516 -0.4549 -1.2639
14643TIP3    H265345   2.662   0.342  15.119  0.2022 -2.4323  0.5205
14644TIP3   OH265346   6.410   3.835   5.381  0.1158  0.0181  0.6903
14644TIP3    H165347   6.479   3.792   5.433 -0.1359 -0.8957  0.2719
14644TIP3    H265348   6.342   3.769   5.373  0.1802  0.1349 -0.8606
14645TIP3   OH265349   2.487   3.216   1.579  0.1462 -0.1108  0.0335
14645TIP3    H165350   2.397   3.205   1.547  0.0857  0.0953  0.1312
14645TIP3    H265351   2.541   3.183   1.508  0.0272  0.8801 -0.5302
14646TIP3   OH265352   1.586   0.458   4.274 -0.0278 -0.8539  1.1601
14646TIP3    H165353   1.576   0.446   4.179  0.0764  1.5503  0.8081
14646TIP3    H265354   1.577   0.370   4.310 -2.6155 -1.4696 -0.8412
14647TIP3   OH265355   3.705   4.182   4.732  0.2410 -0.3309 -0.0101
14647TIP3    H165356   3.800   4.177   4.740  0.5253  2.1023 -1.3790
14647TIP3    H265357   3.679   4.242   4.803 -0.1708 -0.2844 -0.2010
14648TIP3   OH265358   1.333   4.014   3.298  1.1096 -0.0263  0.1120
14648TIP3    H165359   1.328   4.109   3.306  0.9265 -0.0168 -0.1202
14648TIP3    H265360   1.369   3.998   3.211 -1.0199 -0.1961 -0.7714
14649TIP3   OH265361   1.144   0.866   4.033  0.5467 -0.2353  0.9723
14649TIP3    H165362   1.054   0.866   4.065  0.8685 -0.4129  1.9198
14649TIP3    H265363   1.192   0.917   4.099  1.3011 -0.9371  0.9825
14650TIP3   OH265364   4.627   2.701  14.588  0.0898 -0.5129 -0.1814
14650TIP3    H165365   4.577   2.749  14.522 -0.7158  0.1485  0.8765
14650TIP3    H265366   4.701   2.758  14.608  0.6609 -0.9862 -0.9444
14651TIP3   OH265367   4.094   2.012   4.647 -0.2640  0.0117 -0.3244
14651TIP3    H165368   4.115   2.081   4.585 -2.5957  0.6385 -0.4637
14651TIP3    H265369   4.003   1.990   4.629  0.0001 -2.1013  0.6890
14652TIP3   OH265370   5.833   4.333   0.329  0.1176 -0.1813 -0.8469
14652TIP3    H165371   5.852   4.342   0.236  2.8267  0.1564 -0.3182
14652TIP3    H265372   5.895   4.266   0.359 -1.3614 -0.9643  0.5261
14653TIP3   OH265373   2.843   2.486  14.454  0.2618  0.6104 -0.6249
14653TIP3    H165374   2.790   2.520  14.525 -1.3637 -1.1155 -0.9708
14653TIP3    H265375   2.820   2.540  14.378  0.2433  0.9232 -0.3956
14654TIP3   OH265376   3.923   5.510  16.022  0.5886  0.2891  0.5358
14654TIP3    H165377   3.859   5.552  16.078 -0.3934 -0.3942 -0.0638
14654TIP3    H265378   3.944   5.428  16.067 -0.9290 -0.7201 -0.5578
14655TIP3   OH265379   4.431   2.656  11.063  0.3426 -0.1915  0.7525
14655TIP3    H165380   4.372   2.655  11.139  0.1512 -1.6418  0.6011
14655TIP3    H265381   4.427   2.567  11.028 -1.3833  1.0545 -2.4116
14656TIP3   OH265382   5.178   3.750   5.646 -0.4068  0.6929 -0.3117
14656TIP3    H165383   5.159   3.820   5.583 -1.9812 -1.5269 -2.4026
14656TIP3    H265384   5.150   3.670   5.602  2.6605 -1.4565  1.4586
14657TIP3   OH265385   5.098   2.358   1.401 -0.3053 -0.1786  0.3272
14657TIP3    H165386   5.186   2.342   1.367 -0.7595 -2.0231  0.0083
14657TIP3    H265387   5.108   2.437   1.455  1.7066 -0.7818  0.8829
14658TIP3   OH265388   1.172   0.659   2.194  0.0690  0.4405 -0.4125
14658TIP3    H165389   1.229   0.668   2.117 -1.4448 -0.6525 -1.7025
14658TIP3    H265390   1.220   0.599   2.252  1.1127  1.0724 -0.6086
14659TIP3   OH265391   5.416   3.346   6.614  0.5402  0.5176 -0.0090
14659TIP3    H165392   5.370   3.388   6.542 -0.2880 -0.3744 -0.0153
14659TIP3    H265393   5.407   3.252   6.597 -1.0656  0.2441  2.0665
14660TIP3   OH265394   6.621   2.429  15.698  0.1559  0.4767 -0.5287
14660TIP3    H165395   6.588   2.513  15.666  0.4488  1.0401  0.6435
14660TIP3    H265396   6.703   2.416  15.651  1.4795  2.1444  1.2434
14661TIP3   OH265397   0.857   6.450  11.968 -0.6214 -0.3457 -0.6626
14661TIP3    H165398   0.809   6.389  12.024  0.5279 -0.9342 -0.3078
14661TIP3    H265399   0.949   6.428  11.982 -0.2759  0.2766 -1.8929
14662TIP3   OH265400   0.884   0.601  15.811  0.1247 -0.5367 -0.0863
14662TIP3    H165401   0.884   0.552  15.893 -1.3646 -1.9821 -0.9129
14662TIP3    H265402   0.840   0.684  15.832  1.7124  0.0322  1.0672
14663TIP3   OH265403   2.293   0.638   1.726 -0.0840 -0.5622  0.5341
14663TIP3    H165404   2.261   0.721   1.763  0.5441 -0.0206 -0.1194
14663TIP3    H265405   2.259   0.637   1.637  0.6621 -0.5777  0.2435
14664TIP3   OH265406   1.135   3.781  15.706  0.1075 -0.0333 -0.4542
14664TIP3    H165407   1.071   3.834  15.659  0.1364 -0.8499 -1.4548
14664TIP3    H265408   1.101   3.775  15.795 -0.2935  1.0006 -0.5323
14665TIP3   OH265409   2.988   3.721   4.848  0.3472  0.0099  0.2773
14665TIP3    H165410   3.023   3.805   4.818  0.8489 -0.3057 -0.0397
14665TIP3    H265411   2.925   3.695   4.780  0.2040  0.1232  0.3670
14666TIP3   OH265412   2.467   4.353   4.708  0.4907  0.4213 -0.2095
14666TIP3    H165413   2.461   4.310   4.622  1.0910  0.6935 -0.3912
14666TIP3    H265414   2.380   4.343   4.746  1.0394 -2.3162  0.4160
14667TIP3   OH265415   5.137   3.393  12.818  0.7083 -0.4428 -0.0087
14667TIP3    H165416   5.168   3.373  12.730  0.9997  0.9961 -0.2440
14667TIP3    H265417   5.086   3.316  12.843  2.2597 -1.7281 -0.6424
14668TIP3   OH265418   5.050   4.410   2.002  0.1406  0.3022  0.2295
14668TIP3    H165419   5.095   4.391   2.084 -1.0622 -0.2297  0.7706
14668TIP3    H265420   5.012   4.327   1.975  0.7373  0.4112 -1.0066
14669TIP3   OH265421   6.534   5.655  10.236  0.0633  0.0411 -1.0813
14669TIP3    H165422   6.493   5.571  10.255 -2.8947  1.7604  0.4018
14669TIP3    H265423   6.626   5.643  10.260 -0.5221 -2.4610  0.0248
14670TIP3   OH265424   2.110   0.608  12.586 -0.1978 -0.0594  0.1100
14670TIP3    H165425   2.026   0.615  12.630  0.8684  0.3728  2.1450
14670TIP3    H265426   2.149   0.528  12.623 -0.3534 -1.1057 -1.9460
14671TIP3   OH265427   2.876   4.728  13.707 -0.3993 -0.2460 -0.4754
14671TIP3    H165428   2.809   4.661  13.694 -0.3617 -0.2282 -0.7604
14671TIP3    H265429   2.849   4.773  13.787 -0.4510 -0.5675 -0.3114
14672TIP3   OH265430   1.569   0.660  11.512  0.1237  0.6187 -0.4771
14672TIP3    H165431   1.591   0.717  11.585 -0.5969  2.4978 -1.7107
14672TIP3    H265432   1.652   0.617  11.491  0.7731  1.5135  0.1883
14673TIP3   OH265433   6.414   3.682   1.932  0.0697  1.1356  0.1864
14673TIP3    H165434   6.351   3.655   1.865  0.7519 -0.8350  0.3005
14673TIP3    H265435   6.370   3.753   1.979 -1.5763  0.5987 -0.5077
14674TIP3   OH265436   5.377   2.210  16.556  0.3076  0.2487  0.2363
14674TIP3    H165437   5.399   2.302  16.542 -1.6345  0.6020 -0.5773
14674TIP3    H265438   5.304   2.193  16.497 -0.7436 -1.2473  1.9103
14675TIP3   OH265439   6.297   4.350   3.883  0.1080  0.2451  0.1327
14675TIP3    H165440   6.243   4.351   3.804  0.7280  0.8668 -0.2813
14675TIP3    H265441   6.273   4.430   3.929  0.7785  0.5877 -0.1170
14676TIP3   OH265442   0.457   0.924  14.502 -0.2726  0.0308  0.5954
14676TIP3    H165443   0.474   0.953  14.413  0.3174 -0.9023  0.4007
14676TIP3    H265444   0.404   0.994  14.540  2.0356  1.9059  0.4747
14677TIP3   OH265445   1.703   0.876  14.794 -0.4710 -0.0557  0.4688
14677TIP3    H165446   1.778   0.874  14.853 -2.0634 -0.0833  2.5149
14677TIP3    H265447   1.685   0.969  14.782  0.4484 -0.0215 -0.7875
14678TIP3   OH265448   4.610   2.394  16.484 -0.2622 -0.0417  0.0897
14678TIP3    H165449   4.590   2.325  16.548  1.4539 -0.0833  0.6079
14678TIP3    H265450   4.675   2.448  16.528 -0.3737  0.9574 -0.9622
14679TIP3   OH265451   2.706   4.073   3.067  0.4691  0.7543 -0.0464
14679TIP3    H165452   2.797   4.079   3.097  0.1004 -0.6737  1.4276
14679TIP3    H265453   2.655   4.121   3.132  0.0367  0.4777 -0.1748
14680TIP3   OH265454   1.165   3.887   2.404 -0.1150 -0.2703 -0.1022
14680TIP3    H165455   1.096   3.825   2.384 -0.0312  0.0395 -1.4025
14680TIP3    H265456   1.231   3.836   2.451 -0.5926 -0.8796 -0.0986
14681TIP3   OH265457   1.132   4.870  11.002  0.2330 -0.2040  0.1983
14681TIP3    H165458   1.111   4.836  11.089  0.4293 -1.4633 -0.2320
14681TIP3    H265459   1.147   4.792  10.949  1.4614  0.5759 -0.6314
14682TIP3   OH265460   1.452   0.777  14.716  0.5111  0.0591  0.3087
14682TIP3    H165461   1.493   0.762  14.631  2.8602  1.7553  1.0705
14682TIP3    H265462   1.523   0.810  14.771 -1.4621  1.1635  2.2826
14683TIP3   OH265463   4.330   2.344   4.079 -0.3428  0.1706 -0.6604
14683TIP3    H165464   4.347   2.423   4.027  1.3350  0.9441  1.0530
14683TIP3    H265465   4.236   2.349   4.098 -0.8010  0.3496 -2.8137
14684TIP3   OH265466   5.045   1.075  13.848  0.2038  0.1022  0.4077
14684TIP3    H165467   5.121   1.043  13.798  0.2312  0.4908  0.2016
14684TIP3    H265468   5.083   1.112  13.928  0.3658  1.7134 -0.4031
14685TIP3   OH265469   4.511   2.978   2.116  0.1560 -0.2835  0.0983
14685TIP3    H165470   4.576   2.936   2.173  0.5485  0.9432  0.5628
14685TIP3    H265471   4.429   2.936   2.140  0.7381 -1.7166 -0.3542
14686TIP3   OH265472   6.708   2.109  11.475 -0.0275 -0.5741 -0.2261
14686TIP3    H165473   6.708   2.014  11.484 -0.8951 -0.6436 -0.9351
14686TIP3    H265474   6.617   2.134  11.487  0.3590  0.2781  1.0523
14687TIP3   OH265475   0.510   3.771   0.842 -0.1528 -0.0748 -0.1682
14687TIP3    H165476   0.488   3.739   0.754 -1.8334 -0.4985  0.3980
14687TIP3    H265477   0.502   3.694   0.898 -3.0083  1.0287  1.0104
14688TIP3   OH265478   2.592   4.570  13.861  0.3484  0.4473 -0.5153
14688TIP3    H165479   2.512   4.607  13.822  2.0440  2.3448 -2.2762
14688TIP3    H265480   2.634   4.524  13.788  1.2299  0.0433  0.2481
14689TIP3   OH265481   4.971   5.819  12.404  0.1640  0.3094  0.0357
14689TIP3    H165482   4.999   5.802  12.494 -3.0069  1.4052  1.2957
14689TIP3    H265483   5.025   5.893  12.376  2.1499 -0.9213  0.5139
14690TIP3   OH265484   2.792   0.854  12.750 -0.2214  0.6965 -0.3117
14690TIP3    H165485   2.715   0.809  12.715  0.1213  0.8370 -1.2606
14690TIP3    H265486   2.821   0.799  12.822 -0.5112  0.0171 -0.7056
14691TIP3   OH265487   1.630   6.080   2.007  0.3777  0.8455  0.3768
14691TIP3    H165488   1.542   6.051   2.033  0.5488 -0.2426 -0.2061
14691TIP3    H265489   1.618   6.171   1.979 -0.3186  1.1188  1.5301
14692TIP3   OH265490   2.738   4.489   0.358 -0.1207 -0.3456  0.0445
14692TIP3    H165491   2.700   4.456   0.439  1.0544  0.5732  1.0010
14692TIP3    H265492   2.828   4.456   0.359  0.7296  1.8525  0.4673
14693TIP3   OH265493   4.030   2.197  14.996 -0.0803 -0.3304 -0.2270
14693TIP3    H165494   4.053   2.279  15.039  1.9216 -1.3743  0.8070
14693TIP3    H265495   4.008   2.221  14.906  1.7119  1.1819 -0.2815
14694TIP3   OH265496   0.680   3.385  16.701  0.0897  0.4570 -0.6247
14694TIP3    H165497   0.770   3.413  16.681 -0.7870  1.5461 -3.2894
14694TIP3    H265498   0.634   3.392  16.618 -1.9203 -2.3792  0.1629
14695TIP3   OH265499   3.609   4.236   0.963 -0.2308 -0.0563 -0.2254
14695TIP3    H165500   3.527   4.263   0.923  0.4857 -1.3555 -2.6721
14695TIP3    H265501   3.591   4.151   1.002  0.0249 -0.4881 -1.0415
14696TIP3   OH265502   5.764   4.503   2.655 -0.5783  0.0627  0.3471
14696TIP3    H165503   5.852   4.499   2.616  0.7812  1.1857  3.1954
14696TIP3    H265504   5.729   4.587   2.626 -1.0089 -0.6694 -1.3288
14697TIP3   OH265505   6.650   5.803   1.506  1.2675 -0.4565  0.3109
14697TIP3    H165506   6.589   5.846   1.446  2.6671  1.9967  0.5648
14697TIP3    H265507   6.731   5.794   1.456  1.2140 -2.2013  0.5087
14698TIP3   OH265508   4.445   3.343  13.341 -0.0861 -0.0394 -0.7518
14698TIP3    H165509   4.363   3.327  13.294  0.8315 -1.6898 -1.8401
14698TIP3    H265510   4.503   3.383  13.275  0.8332 -1.3307 -0.7539
14699TIP3   OH265511   3.302   2.629   5.526 -0.1522 -0.1582 -0.0919
14699TIP3    H165512   3.219   2.656   5.566 -0.9784  0.5222 -2.1703
14699TIP3    H265513   3.366   2.637   5.596 -1.7860 -0.3652  1.4749
14700TIP3   OH265514   2.821   6.684  14.336  0.2778  0.2316  0.3185
14700TIP3    H165515   2.857   6.737  14.407 -0.9595 -0.6526  1.6155
14700TIP3    H265516   2.729   6.672  14.359  0.6631 -3.0376  0.3785
14701TIP3   OH265517   4.653   3.168   5.759 -0.1849 -0.4050  0.4560
14701TIP3    H165518   4.610   3.253   5.764 -1.4383 -1.0222  0.2837
14701TIP3    H265519   4.718   3.170   5.829 -0.3746  0.5979  0.6115
14702TIP3   OH265520   2.186   1.644   6.173 -0.4301  0.2947 -0.4293
14702TIP3    H165521   2.125   1.646   6.247 -0.6429 -1.7083 -0.5220
14702TIP3    H265522   2.271   1.621   6.213 -0.9025 -2.6240 -0.9784
14703TIP3   OH265523   6.571   1.960   5.386  0.1769  0.5000  0.2308
14703TIP3    H165524   6.484   1.923   5.376 -0.9498  3.1281  0.0258
14703TIP3    H265525   6.602   1.974   5.297 -0.2293  1.8514  0.2819
14704TIP3   OH265526   1.562   5.416  15.576  0.1729 -0.0080 -0.2463
14704TIP3    H165527   1.591   5.474  15.647 -1.2893 -1.4567  1.5664
14704TIP3    H265528   1.539   5.476  15.505  1.7073  1.4667  0.4552
14705TIP3   OH265529   5.550   2.695   5.122  0.1367 -0.2087  0.0761
14705TIP3    H165530   5.555   2.679   5.027  0.5166 -1.3441  0.2709
14705TIP3    H265531   5.590   2.617   5.161 -0.0570  0.2329  1.1759
14706TIP3   OH265532   2.114   4.104  11.789 -0.0878  0.2008 -0.3876
14706TIP3    H165533   2.041   4.144  11.742 -1.6694  0.1484  1.9726
14706TIP3    H265534   2.165   4.178  11.823 -1.0159  0.2264  0.9515
14707TIP3   OH265535   5.952   2.920   5.321 -0.5420  0.2697 -0.2800
14707TIP3    H165536   6.014   2.972   5.372 -2.5938  0.7094  1.8409
14707TIP3    H265537   5.900   2.984   5.273 -1.2320  0.0421  0.1612
14708TIP3   OH265538   2.403   0.146  13.209  0.2051  0.1171 -0.7723
14708TIP3    H165539   2.331   0.145  13.272  1.6351  0.5101  0.8938
14708TIP3    H265540   2.456   0.070  13.232  1.0265  0.5687 -1.1562
14709TIP3   OH265541   1.473   3.811  14.906 -0.1231 -0.6925 -0.0328
14709TIP3    H165542   1.496   3.889  14.857  0.6921 -0.9143 -0.0054
14709TIP3    H265543   1.383   3.826  14.934  0.3327  0.6236  0.7415
14710TIP3   OH265544   6.277   0.890  12.615 -0.2310  0.8428  0.5262
14710TIP3    H165545   6.216   0.960  12.641 -2.2287 -0.1995 -1.1752
14710TIP3    H265546   6.233   0.809  12.641  0.2633  0.0508 -1.0364
14711TIP3   OH265547   2.573   4.452  16.385  0.3226 -0.5556  0.0139
14711TIP3    H165548   2.603   4.533  16.345 -1.6590  0.5570  0.6859
14711TIP3    H265549   2.606   4.456  16.475 -0.1595 -0.2704  0.1790
14712TIP3   OH265550   4.755   3.359  14.664  0.3056  0.1524  0.0868
14712TIP3    H165551   4.827   3.417  14.689  1.2131 -1.8834  2.4238
14712TIP3    H265552   4.763   3.349  14.570  1.4162  2.1081 -0.0547
14713TIP3   OH265553   4.946   6.177  13.520  0.1403 -0.0134  0.4878
14713TIP3    H165554   4.882   6.245  13.500 -0.9015 -1.5022 -1.3296
14713TIP3    H265555   5.011   6.184  13.450  1.6007  1.0152  1.9221
14714TIP3   OH265556   2.050   4.117  14.372  0.1813 -0.0020  0.5300
14714TIP3    H165557   2.142   4.098  14.392  0.2549  0.1714  0.3655
14714TIP3    H265558   2.050   4.210  14.349 -0.0891  0.0753  0.8464
14715TIP3   OH265559   3.624   2.739  11.388  0.1516  0.6645  0.1703
14715TIP3    H165560   3.539   2.716  11.349  0.4502  1.1424 -0.7788
14715TIP3    H265561   3.608   2.823  11.431 -0.5542 -0.5461  2.3639
14716TIP3   OH265562   4.475   1.886   5.272  0.0162  0.4876 -0.6087
14716TIP3    H165563   4.477   1.926   5.185 -0.8035 -0.5973 -1.1438
14716TIP3    H265564   4.543   1.932   5.321  1.7225 -0.1124 -2.3522
14717TIP3   OH265565   2.695   5.803  13.103 -0.4863 -0.1546  0.3950
14717TIP3    H165566   2.692   5.898  13.091  0.4873 -0.1191  0.4076
14717TIP3    H265567   2.603   5.776  13.103 -0.6971  0.4600 -2.1138
14718TIP3   OH265568   4.236   4.162   4.038  0.2408  0.2350  0.2003
14718TIP3    H165569   4.278   4.085   4.078 -1.9302 -0.6435  0.8894
14718TIP3    H265570   4.284   4.237   4.073  1.7073 -0.7664  0.3605
14719TIP3   OH265571   0.381   0.636   1.804 -0.8243  0.1160  0.4979
14719TIP3    H165572   0.317   0.607   1.869 -0.8347 -2.0395 -0.4569
14719TIP3    H265573   0.463   0.596   1.831 -0.4306  0.7494  0.2463
14720TIP3   OH265574   4.269   6.296   4.190 -0.1523 -0.1849  0.3246
14720TIP3    H165575   4.324   6.227   4.153  0.0162  0.0744  0.0853
14720TIP3    H265576   4.322   6.335   4.259 -0.4902 -0.7074  0.8847
14721TIP3   OH265577   0.479   6.540  12.511  0.2726  0.5763  0.0502
14721TIP3    H165578   0.448   6.630  12.524 -0.6972  0.1019  1.1755
14721TIP3    H265579   0.503   6.511  12.599  0.4432 -0.3084 -0.2918
14722TIP3   OH265580   0.604   2.060  15.742  0.4846  0.1773  0.2964
14722TIP3    H165581   0.687   2.077  15.787  1.4009  0.3943 -1.4424
14722TIP3    H265582   0.542   2.119  15.783  1.6344  1.3933  0.3063
14723TIP3   OH265583   1.030   0.771   5.532  0.2695  0.4675  0.2991
14723TIP3    H165584   1.088   0.802   5.463  0.0566 -0.9113 -0.5126
14723TIP3    H265585   0.949   0.748   5.486 -0.3820  0.9075  1.2110
14724TIP3   OH265586   6.567   0.781   3.631 -0.0683 -0.4873  0.0569
14724TIP3    H165587   6.519   0.857   3.598  3.1869  1.0092 -1.5032
14724TIP3    H265588   6.573   0.722   3.556  2.4619  0.4193 -0.5396
14725TIP3   OH265589   2.261   2.894  15.048 -0.4905  0.2238 -0.0082
14725TIP3    H165590   2.244   2.801  15.063 -0.6325  0.3450  0.6349
14725TIP3    H265591   2.330   2.897  14.983  2.5077 -0.4115  2.9940
14726TIP3   OH265592   5.741   5.763  16.719  0.1073  0.6465 -0.7496
14726TIP3    H165593   5.658   5.724  16.747 -0.0863  0.9409 -0.9043
14726TIP3    H265594   5.741   5.756  16.624  0.5824  0.0101 -0.7040
14727TIP3   OH265595   2.583   1.448  12.731 -0.4902  0.0052 -0.0670
14727TIP3    H165596   2.568   1.532  12.776  0.1065  0.5599 -0.8804
14727TIP3    H265597   2.525   1.451  12.655  1.5740  0.9288 -1.6588
14728TIP3   OH265598   5.691   0.227   4.381  0.1641 -1.2147 -0.1269
14728TIP3    H165599   5.641   0.254   4.304 -0.8912 -1.9263  0.2988
14728TIP3    H265600   5.744   0.153   4.350  0.6810 -0.7064 -0.4778
14729TIP3   OH265601   1.706   1.842   1.500 -0.2048 -0.2913  0.0605
14729TIP3    H165602   1.759   1.764   1.487  0.2382 -0.0054  0.1184
14729TIP3    H265603   1.623   1.810   1.536 -0.0184 -0.7274  0.1028
14730TIP3   OH265604   0.561   2.322   0.037  0.4287  0.1195  0.0097
14730TIP3    H165605   0.506   2.251   0.006  0.7714  0.8037 -2.2143
14730TIP3    H265606   0.569   2.307   0.131 -1.7453 -1.2173  0.0021
14731TIP3   OH265607   6.231   4.474  15.319  0.1485 -0.9295  0.4951
14731TIP3    H165608   6.315   4.503  15.283 -0.2119 -1.7046 -1.0086
14731TIP3    H265609   6.232   4.505  15.410  1.2324  0.7641 -0.0652
14732TIP3   OH265610   3.323   4.752  14.885  0.0966 -0.4225  0.2244
14732TIP3    H165611   3.342   4.699  14.963  1.8901 -0.4181 -0.1729
14732TIP3    H265612   3.335   4.843  14.914  1.8613 -0.4609 -0.2971
14733TIP3   OH265613   1.378   6.494   4.334 -0.0889 -0.1858 -0.2592
14733TIP3    H165614   1.414   6.539   4.257 -0.3998  1.0056  0.2809
14733TIP3    H265615   1.445   6.503   4.401  0.0651 -0.9907 -0.2962
14734TIP3   OH265616   5.907   1.995   1.246 -0.3276 -0.5784 -0.1961
14734TIP3    H165617   5.999   1.971   1.235 -0.3486 -1.2942  1.1038
14734TIP3    H265618   5.873   2.001   1.157  0.6129 -1.7712 -0.6506
14735TIP3   OH265619   3.871   0.776   5.317 -0.6161 -0.1902 -0.1569
14735TIP3    H165620   3.954   0.732   5.301  0.4464  1.0822  1.7554
14735TIP3    H265621   3.883   0.864   5.281 -0.7455  0.3488  1.1100
14736TIP3   OH265622   4.620   0.643   2.934 -0.4541 -0.2524  0.3566
14736TIP3    H165623   4.623   0.565   2.879 -1.1835 -1.0847  1.4785
14736TIP3    H265624   4.531   0.677   2.923 -0.1203  0.4526 -0.1743
14737TIP3   OH265625   6.447   6.389  13.688  0.3196  0.2718 -0.2022
14737TIP3    H165626   6.430   6.376  13.781  1.3775  0.0340 -0.0394
14737TIP3    H265627   6.542   6.395  13.681  0.2300  0.7162 -1.2144
14738TIP3   OH265628   5.300   1.870  16.478  0.2548 -0.1992  0.4184
14738TIP3    H165629   5.395   1.871  16.492  0.4524 -0.6667 -0.7639
14738TIP3    H265630   5.280   1.779  16.456 -0.0779  0.3676 -1.7372
14739TIP3   OH265631   3.569   2.744  13.471 -0.3687 -0.1504  0.0502
14739TIP3    H165632   3.493   2.686  13.475  0.2889 -1.0250  0.0112
14739TIP3    H265633   3.643   2.686  13.449  0.0439  0.9270 -1.5322
14740TIP3   OH265634   1.373   5.156  15.148  0.1789  0.0379  0.1296
14740TIP3    H165635   1.304   5.152  15.215  0.9245 -0.5645  0.8728
14740TIP3    H265636   1.432   5.084  15.170  1.2231  0.7555 -0.3005
14741TIP3   OH265637   5.036   3.875   5.947  0.3423  0.2660  0.0090
14741TIP3    H165638   5.058   3.947   5.888  0.7246  0.0618 -0.0949
14741TIP3    H265639   4.971   3.823   5.899 -2.1447  2.1587  1.2253
14742TIP3   OH265640   3.907   6.361  15.965  0.3462  0.1734  0.2972
14742TIP3    H165641   3.958   6.439  15.987 -0.6367  0.6511  0.9116
14742TIP3    H265642   3.942   6.332  15.880  1.3720  0.7083  0.5314
14743TIP3   OH265643   5.675   2.116  14.975 -0.0663 -0.1307 -1.0057
14743TIP3    H165644   5.767   2.091  14.981 -0.5419 -2.7899 -3.5320
14743TIP3    H265645   5.660   2.129  14.881 -2.0630  1.1275 -0.5529
14744TIP3   OH265646   6.193   6.540  12.706  0.0088  0.3257 -0.8146
14744TIP3    H165647   6.160   6.627  12.727  0.5148  0.1688  0.6793
14744TIP3    H265648   6.138   6.481  12.757  1.7515 -0.0111  0.7183
14745TIP3   OH265649   2.328   4.479   6.604  0.2789  0.2670 -0.1714
14745TIP3    H165650   2.351   4.480   6.511 -0.5425  0.5838 -0.3795
14745TIP3    H265651   2.232   4.484   6.604  0.2483 -0.4256  0.6816
14746TIP3   OH265652   4.063   4.040   5.546  0.4479 -0.0252  0.2904
14746TIP3    H165653   4.111   4.119   5.524  1.0853 -0.3243  0.6141
14746TIP3    H265654   4.051   4.044   5.641 -0.2067  0.0707  0.2069
14747TIP3   OH265655   4.808   5.637  16.155  0.0892 -0.4496  0.6056
14747TIP3    H165656   4.888   5.628  16.103 -0.9085 -3.5539 -0.5523
14747TIP3    H265657   4.738   5.609  16.095 -1.4103 -1.3999  2.7432
14748TIP3   OH265658   4.450   0.055  11.383 -0.0027 -0.5958 -0.3714
14748TIP3    H165659   4.372   0.110  11.381 -1.1116 -2.0484  1.9830
14748TIP3    H265660   4.483   0.063  11.472  0.4404 -2.8791 -0.2982
14749TIP3   OH265661   2.028   3.938  13.289  0.4133 -0.7857  0.7171
14749TIP3    H165662   2.020   4.033  13.288 -1.1240 -0.8985 -1.5398
14749TIP3    H265663   2.104   3.921  13.345  0.6093  1.7365  1.2815
14750TIP3   OH265664   5.881   5.034  13.417  0.3640  0.2047  0.4677
14750TIP3    H165665   5.967   5.038  13.375  0.1476 -2.2200 -0.2742
14750TIP3    H265666   5.901   5.038  13.511  1.3328 -0.8825  0.3222
14751TIP3   OH265667   3.047   4.173  11.224 -0.1663  0.5079 -0.1603
14751TIP3    H165668   3.033   4.160  11.318  0.8244  1.5023  0.1311
14751TIP3    H265669   3.140   4.194  11.216  0.0790 -1.0306 -1.5311
14752TIP3   OH265670   3.469   6.369   4.549 -0.0412  0.2279 -0.2463
14752TIP3    H165671   3.501   6.340   4.463 -1.6369  0.2555 -0.8610
14752TIP3    H265672   3.395   6.426   4.530 -1.2987 -0.8688  1.1788
14753TIP3   OH265673   4.803   0.043   1.988  0.5537  0.3886 -0.5570
14753TIP3    H165674   4.827   0.033   2.081 -0.2529  1.0614 -0.2741
14753TIP3    H265675   4.789  -0.046   1.958  3.9633 -0.1130 -0.8921
14754TIP3   OH265676   3.261   5.832  12.270 -0.2447 -1.0562 -0.5903
14754TIP3    H165677   3.342   5.881  12.283 -1.4343  1.1130 -1.1746
14754TIP3    H265678   3.242   5.795  12.356 -0.4834  1.3687  0.4489
14755TIP3   OH265679   1.339   5.176   3.273  0.4620  0.0323  0.3816
14755TIP3    H165680   1.313   5.160   3.364  2.0232 -0.0584  0.8259
14755TIP3    H265681   1.279   5.245   3.243 -1.5005 -1.4695  0.7623
14756TIP3   OH265682   0.730   3.743  11.077 -0.6457  0.0091 -0.0652
14756TIP3    H165683   0.790   3.681  11.120  0.9380  0.6193 -1.3209
14756TIP3    H265684   0.686   3.788  11.149  3.8104  2.8137  1.1098
14757TIP3   OH265685   4.229   5.327   1.280  0.6110  0.0243 -0.0992
14757TIP3    H165686   4.189   5.263   1.222  0.2097  1.8389 -1.9098
14757TIP3    H265687   4.257   5.397   1.222 -1.2444  2.6710  2.0228
14758TIP3   OH265688   2.691   1.835  12.784 -0.0725 -0.5084  0.5983
14758TIP3    H165689   2.716   1.807  12.696 -0.5350 -0.0479  0.3154
14758TIP3    H265690   2.774   1.860  12.826  0.3468 -2.2677  0.8659
14759TIP3   OH265691   3.265   0.813  16.042  0.3438  0.0371 -0.0192
14759TIP3    H165692   3.351   0.805  16.083 -1.8050 -0.8272  4.5761
14759TIP3    H265693   3.246   0.725  16.009  1.4645  0.3846 -1.6287
14760TIP3   OH265694   0.181   1.642  16.215  0.0705  0.7374 -0.1383
14760TIP3    H165695   0.209   1.620  16.304 -0.1601  0.3658 -0.1567
14760TIP3    H265696   0.168   1.736  16.216 -1.3521  0.5347  0.6227
14761TIP3   OH265697   4.090   4.852  15.477  0.0406 -0.4549  0.2680
14761TIP3    H165698   4.040   4.820  15.402  0.6001  0.6879 -0.6036
14761TIP3    H265699   4.051   4.937  15.498  1.6332  0.4852 -0.4670
14762TIP3   OH265700   5.316   5.160  11.953  0.6846  0.1666  0.0171
14762TIP3    H165701   5.342   5.139  12.043  1.3348  0.5967 -0.0658
14762TIP3    H265702   5.379   5.114  11.898  1.4764  1.4853 -0.1841
14763TIP3   OH265703   2.685   2.169   0.139 -0.0840 -0.5335 -0.4259
14763TIP3    H165704   2.604   2.119   0.144  0.4468 -1.2357  1.6577
14763TIP3    H265705   2.736   2.125   0.071 -1.3004 -0.2888 -1.5101
14764TIP3   OH265706   0.615   2.707  10.974  0.3405 -0.3298 -0.1619
14764TIP3    H165707   0.624   2.786  11.028  0.7829  0.6076 -1.5693
14764TIP3    H265708   0.703   2.669  10.973  0.8268  0.7554 -1.8221
14765TIP3   OH265709   1.790   2.140   6.719  0.2412  0.0588 -0.0204
14765TIP3    H165710   1.787   2.217   6.776 -2.6075  0.7354 -1.0041
14765TIP3    H265711   1.863   2.157   6.660  0.6328  1.2644  0.7840
14766TIP3   OH265712   2.919   0.599  13.793  0.0282  0.0822 -0.6713
14766TIP3    H165713   2.893   0.580  13.703  0.5123 -0.3554 -0.7233
14766TIP3    H265714   2.961   0.685  13.788 -1.7920  0.9873 -0.5097
14767TIP3   OH265715   3.862   3.142  12.997  0.6717  0.8098 -0.2824
14767TIP3    H165716   3.951   3.108  12.990  0.5979  0.7412 -0.8916
14767TIP3    H265717   3.872   3.237  12.997  0.7927  0.7994  0.3124
14768TIP3   OH265718   1.048   2.872   4.830 -0.3650 -0.2145  0.0771
14768TIP3    H165719   0.987   2.818   4.780 -0.4883  1.5062 -1.7000
14768TIP3    H265720   1.128   2.873   4.778 -0.7322  2.2028 -0.5257
14769TIP3   OH265721   2.217   5.173  11.281 -0.0394  0.3503  0.2313
14769TIP3    H165722   2.202   5.208  11.193  2.3935 -0.9863 -0.7416
14769TIP3    H265723   2.302   5.208  11.307 -0.7936  0.8298  2.1217
14770TIP3   OH265724   6.087   4.411   3.674  0.6707  0.3188  0.6928
14770TIP3    H165725   6.000   4.384   3.645  0.3041  0.9153  1.2224
14770TIP3    H265726   6.140   4.412   3.594  0.7398 -2.0792  0.6730
14771TIP3   OH265727   4.294   0.414   4.931  0.2501 -0.3231  0.2599
14771TIP3    H165728   4.355   0.436   5.001  0.1160  2.8010 -0.5541
14771TIP3    H265729   4.350   0.392   4.856  0.4153  2.0328 -0.3344
14772TIP3   OH265730   2.669   2.260  16.593  0.4488 -0.1422  1.0311
14772TIP3    H165731   2.579   2.254  16.627  0.5301  0.8110  1.4440
14772TIP3    H265732   2.660   2.247  16.499 -0.0021 -1.0344  1.1939
14773TIP3   OH265733   3.196   5.792  17.063 -0.5570 -0.3913  0.0439
14773TIP3    H165734   3.239   5.725  17.010 -2.9368 -0.8091 -1.4155
14773TIP3    H265735   3.235   5.782  17.150  0.6478 -2.2321 -0.6703
14774TIP3   OH265736   2.780   0.100   5.023  0.1837  0.4090  0.2191
14774TIP3    H165737   2.751   0.057   4.943  0.4794  0.7153 -0.0513
14774TIP3    H265738   2.720   0.173   5.034 -0.5605 -0.2988  0.8876
14775TIP3   OH265739   5.188   5.197   6.356  0.1385 -0.7755 -0.0506
14775TIP3    H165740   5.128   5.270   6.343  0.4532 -0.2875  1.1279
14775TIP3    H265741   5.134   5.126   6.388 -0.0920 -0.9165 -0.7403
14776TIP3   OH265742   5.371   4.005  17.040  0.6206  0.0999  0.1071
14776TIP3    H165743   5.363   4.066  17.113  2.0884 -0.8493  1.0893
14776TIP3    H265744   5.461   4.016  17.010  0.6677 -1.0346 -0.1909
14777TIP3   OH265745   5.492   2.107   1.785 -0.0119  0.4574  0.0188
14777TIP3    H165746   5.451   2.192   1.797 -1.5923 -0.2864  0.0442
14777TIP3    H265747   5.457   2.053   1.855  1.1446 -0.1635  0.1320
14778TIP3   OH265748   5.677   1.619  11.775 -0.7184  0.2002  0.7493
14778TIP3    H165749   5.581   1.620  11.773 -0.7069 -0.2853 -0.8710
14778TIP3    H265750   5.700   1.527  11.763 -0.0396  0.4616  0.0067
14779TIP3   OH265751   2.348   6.075  11.996 -0.5263 -0.6813  0.1582
14779TIP3    H165752   2.433   6.070  12.040 -1.1667  0.8588  1.6341
14779TIP3    H265753   2.286   6.044  12.062 -1.3429  0.2662 -0.1584
14780TIP3   OH265754   1.616   3.358  14.832  0.3930  0.1267  0.3107
14780TIP3    H165755   1.572   3.311  14.903 -1.7023  1.8307  0.1800
14780TIP3    H265756   1.591   3.310  14.753 -1.4066  1.2087  0.2186
14781TIP3   OH265757   0.758   3.961  11.792 -0.2932 -0.0738  0.2725
14781TIP3    H165758   0.699   3.908  11.846 -0.4390 -1.2235 -0.9708
14781TIP3    H265759   0.830   3.985  11.850 -0.7070 -0.8617  1.1103
14782TIP3   OH265760   3.912   1.082  12.374 -0.4290 -0.2699 -0.2271
14782TIP3    H165761   3.991   1.032  12.353  0.8778  0.8470  1.8099
14782TIP3    H265762   3.938   1.173  12.362 -1.2872  0.1228  0.8459
14783TIP3   OH265763   4.669   5.322  14.798 -0.2865  0.3522  0.6078
14783TIP3    H165764   4.676   5.417  14.805  1.1259  0.1461  2.4220
14783TIP3    H265765   4.694   5.303  14.708  0.4603  1.6089  0.5384
14784TIP3   OH265766   2.844   2.498   1.137 -0.0894 -0.8140 -0.0272
14784TIP3    H165767   2.904   2.507   1.211 -0.4582  0.3663  0.1223
14784TIP3    H265768   2.895   2.450   1.072  0.4734 -1.2385  0.7173
14785TIP3   OH265769   1.966   2.731   5.299 -0.6161  0.4184 -0.2685
14785TIP3    H165770   1.954   2.739   5.394 -0.9482  0.6455 -0.3285
14785TIP3    H265771   1.895   2.674   5.270 -0.5181  0.3532 -0.3827
14786TIP3   OH265772   3.753   4.521  16.234 -0.4342 -0.0990 -0.1913
14786TIP3    H165773   3.805   4.456  16.282 -0.4916  1.0337  1.4420
14786TIP3    H265774   3.799   4.531  16.151  1.3774  0.0861  0.8018
14787TIP3   OH265775   5.628   6.398   0.901 -0.1862  0.7314  0.3030
14787TIP3    H165776   5.573   6.459   0.850 -0.4023 -0.3974 -0.8347
14787TIP3    H265777   5.716   6.435   0.894 -0.3872  1.1719  0.0059
14788TIP3   OH265778   4.786   5.211   6.714 -0.3522  0.8963 -0.1497
14788TIP3    H165779   4.701   5.223   6.672 -0.9718 -0.0054  0.8185
14788TIP3    H265780   4.780   5.125   6.757  1.0768  0.7790 -0.1394
14789TIP3   OH265781   2.678   5.550   4.813  0.1563 -0.0964  0.0441
14789TIP3    H165782   2.755   5.585   4.856 -0.5531  2.0984 -0.3813
14789TIP3    H265783   2.679   5.456   4.832  2.2251  0.1200  1.0746
14790TIP3   OH265784   0.178   1.366   4.122  0.6162  0.2228  1.0871
14790TIP3    H165785   0.215   1.412   4.046  1.8431  0.8173  2.0109
14790TIP3    H265786   0.228   1.285   4.127 -1.5477 -1.2578 -0.5365
14791TIP3   OH265787   0.986   6.544  11.231  0.6150  0.2811  0.0352
14791TIP3    H165788   1.047   6.520  11.301  0.4091  3.6998  1.4418
14791TIP3    H265789   0.901   6.514  11.262  0.6483  1.0799  0.9175
14792TIP3   OH265790   2.420   1.322   2.369  0.1385 -0.3619  0.0810
14792TIP3    H165791   2.426   1.293   2.460  0.2791  2.2519  0.9426
14792TIP3    H265792   2.330   1.301   2.343 -0.7337  1.2510  1.6987
14793TIP3   OH265793   1.317   2.717   5.150  0.1527  0.0821 -0.2793
14793TIP3    H165794   1.331   2.646   5.088  1.3282 -0.4397  0.5614
14793TIP3    H265795   1.387   2.780   5.132  0.5487 -0.1056  0.5527
14794TIP3   OH265796   4.825   3.707   6.113  0.3734 -0.0051 -0.0951
14794TIP3    H165797   4.766   3.768   6.157  0.6081 -1.7633  2.8248
14794TIP3    H265798   4.773   3.628   6.101  1.1854 -0.4927 -0.4302
14795TIP3   OH265799   2.700   6.408  12.933 -0.3959  0.4599 -0.2726
14795TIP3    H165800   2.704   6.469  13.007 -0.2364 -0.1252  0.2053
14795TIP3    H265801   2.690   6.322  12.973 -1.0889  0.2096 -0.9565
14796TIP3   OH265802   6.454   1.571   3.166  0.1029 -0.0895 -0.0797
14796TIP3    H165803   6.430   1.483   3.194 -0.7061 -0.3642 -1.5551
14796TIP3    H265804   6.382   1.598   3.108  0.7086  1.2420 -0.2334
14797TIP3   OH265805   5.006   3.628  12.831 -0.0541  0.0500 -0.1763
14797TIP3    H165806   5.038   3.539  12.820  2.9616  1.1495 -0.5439
14797TIP3    H265807   5.072   3.672  12.884 -1.8590  1.9000  0.6609
14798TIP3   OH265808   6.524   2.802   1.956  0.7342 -0.0063 -0.0322
14798TIP3    H165809   6.585   2.805   2.030 -0.3484 -0.5329  0.9197
14798TIP3    H265810   6.442   2.838   1.991  0.1054 -0.5886 -0.8727
14799TIP3   OH265811   1.254   0.057  15.288  0.3658 -0.7112  0.4333
14799TIP3    H165812   1.332   0.016  15.250  0.9833 -1.5671  2.5105
14799TIP3    H265813   1.191   0.061  15.216  1.9274 -1.0465 -0.9903
14800TIP3   OH265814   1.650   4.078  16.804 -0.2547  0.0972  1.2895
14800TIP3    H165815   1.724   4.139  16.798  0.4899 -0.8545  0.3287
14800TIP3    H265816   1.691   3.995  16.829 -1.0203 -0.3961  0.9084
14801TIP3   OH265817   5.933   4.975  17.111 -0.1632  0.1307  0.0169
14801TIP3    H165818   5.972   4.937  17.032  1.9381 -0.8070  1.4838
14801TIP3    H265819   5.887   4.902  17.152  1.3711 -0.1422  1.2790
14802TIP3   OH265820   0.996   2.660   5.594 -0.6310  0.0276  0.1811
14802TIP3    H165821   0.948   2.633   5.515  1.6762 -0.5734 -1.0541
14802TIP3    H265822   0.982   2.589   5.656 -2.1641  0.3293  0.2149
14803TIP3   OH265823   6.082   3.893  17.238 -0.0360  0.0408  0.4159
14803TIP3    H165824   6.133   3.844  17.174 -1.5344  1.0475 -1.6242
14803TIP3    H265825   6.146   3.945  17.285  1.0689 -0.3998 -0.5753
14804TIP3   OH265826   0.873   5.835   0.143  0.6422  0.1888 -0.5343
14804TIP3    H165827   0.856   5.872   0.230  0.3712 -2.6462  0.6489
14804TIP3    H265828   0.948   5.777   0.156  3.1939  2.7500 -3.0768
14805TIP3   OH265829   3.985   2.602  15.239 -1.1569  0.0901 -0.5438
14805TIP3    H165830   3.968   2.652  15.159 -0.5047  1.7229  0.3144
14805TIP3    H265831   3.907   2.616  15.293 -0.1371  1.8200  0.5072
14806TIP3   OH265832   5.460   5.371  14.767  0.2867  0.2807  0.1755
14806TIP3    H165833   5.501   5.288  14.743 -0.0012  0.5392 -1.2420
14806TIP3    H265834   5.398   5.347  14.836  1.4799 -0.3940  1.0547
14807TIP3   OH265835   6.605   5.451  17.187  0.4382  0.7374  0.6324
14807TIP3    H165836   6.530   5.447  17.128  0.2328  0.6631  0.8958
14807TIP3    H265837   6.655   5.372  17.169  1.3353  1.6014 -0.7089
14808TIP3   OH265838   3.336   1.621   5.976  0.5196 -0.7183  0.0001
14808TIP3    H165839   3.372   1.622   6.064  0.2357  1.6130  0.1166
14808TIP3    H265840   3.241   1.627   5.989  0.3628 -2.0705 -0.4309
14809TIP3   OH265841   4.357   1.902  12.431  0.2558 -0.4458 -0.4097
14809TIP3    H165842   4.394   1.927  12.515  0.0922 -0.8444 -0.2183
14809TIP3    H265843   4.294   1.971  12.410 -1.4920 -1.5956  0.9596
14810TIP3   OH265844   5.056   0.039  15.889 -0.1616  0.5412  0.3632
14810TIP3    H165845   5.131  -0.003  15.932 -0.1029 -0.5959 -0.8298
14810TIP3    H265846   4.981   0.013  15.941  0.0843  0.3512  0.6253
14811TIP3   OH265847   5.989   6.729  12.690  0.3745 -0.5545  0.6163
14811TIP3    H165848   6.033   6.807  12.657 -1.1692 -0.1141 -0.5120
14811TIP3    H265849   5.935   6.700  12.616  0.3379 -2.2266  1.2879
14812TIP3   OH265850   6.380   6.345  10.442 -0.0996 -0.5704  0.7456
14812TIP3    H165851   6.414   6.429  10.413  0.3805 -0.8869  0.3880
14812TIP3    H265852   6.303   6.330  10.387  0.5006 -0.9184 -0.0124
14813TIP3   OH265853   1.585   6.504  14.223  0.1776  0.2519  0.4694
14813TIP3    H165854   1.649   6.568  14.256 -0.1244  0.9638 -0.3355
14813TIP3    H265855   1.555   6.540  14.140 -0.3001 -0.7377  0.2091
14814TIP3   OH265856   3.267   4.471   5.762 -0.0007 -0.4156  0.5601
14814TIP3    H165857   3.269   4.382   5.797  1.2652 -0.9039 -0.7030
14814TIP3    H265858   3.206   4.467   5.688 -1.3586  0.2063  1.6393
14815TIP3   OH265859   6.295   1.926  16.883  0.5891 -0.5178 -0.0584
14815TIP3    H165860   6.229   1.913  16.815  0.7963 -0.3454 -0.2993
14815TIP3    H265861   6.376   1.942  16.834  0.5490  0.5730  0.2287
14816TIP3   OH265862   0.152   2.356  15.869  0.0417 -0.1177  0.0486
14816TIP3    H165863   0.134   2.410  15.791 -2.4919  1.0528  1.3751
14816TIP3    H265864   0.071   2.306  15.882  0.6410 -0.6916  1.6545
14817TIP3   OH265865   0.687   0.244  17.105 -0.8079 -0.1580  0.8049
14817TIP3    H165866   0.768   0.192  17.107  0.2616  1.3528 -1.0946
14817TIP3    H265867   0.618   0.181  17.086  0.3032 -1.0826 -0.2437
14818TIP3   OH265868   2.753   4.684  10.768  0.5076  0.1605 -0.4712
14818TIP3    H165869   2.670   4.691  10.816  0.3376 -0.4595 -0.6715
14818TIP3    H265870   2.816   4.728  10.825 -0.0111  0.9015 -0.4544
14819TIP3   OH265871   0.278   1.640  15.635 -0.6092  0.6465 -0.2509
14819TIP3    H165872   0.231   1.640  15.718 -0.4466 -0.4537 -0.1569
14819TIP3    H265873   0.354   1.697  15.650 -0.4004  0.1808  0.4534
14820TIP3   OH265874   6.116   4.916  11.023  0.6733 -0.2503 -0.4956
14820TIP3    H165875   6.186   4.954  10.970 -0.2564  0.4125 -1.2840
14820TIP3    H265876   6.036   4.937  10.974 -0.1986  0.2750  1.1332
14821TIP3   OH265877   2.778   2.789   5.195  0.1031 -0.3372  0.1403
14821TIP3    H165878   2.872   2.779   5.211 -0.2891 -1.7135  1.8132
14821TIP3    H265879   2.756   2.875   5.232  0.3016 -1.0269  1.9309
14822TIP3   OH265880   1.454   2.816  13.516  0.3950  0.1488 -0.1970
14822TIP3    H165881   1.464   2.888  13.579  2.8924 -0.3659  0.0317
14822TIP3    H265882   1.386   2.760  13.554 -2.4229  2.9143 -0.9221
14823TIP3   OH265883   1.095   6.130   0.226 -0.3129 -0.6528  0.5190
14823TIP3    H165884   1.101   6.209   0.280  1.9285 -0.2185 -0.3026
14823TIP3    H265885   1.098   6.058   0.289 -2.0165 -0.1155  1.2469
14824TIP3   OH265886   1.432   1.525  11.294  0.3263 -0.3484 -0.2391
14824TIP3    H165887   1.353   1.578  11.291 -0.0914 -1.0124 -0.9927
14824TIP3    H265888   1.457   1.512  11.203  1.7063  0.4357  0.0065
14825TIP3   OH265889   3.106   2.297   5.846 -1.1084 -0.1275 -0.5319
14825TIP3    H165890   3.173   2.319   5.910 -0.5428  0.5070 -1.3352
14825TIP3    H265891   3.024   2.299   5.896 -0.7168  0.7256  0.0933
14826TIP3   OH265892   6.776   0.162   2.225  0.2765 -0.3012 -0.2585
14826TIP3    H165893   6.775   0.101   2.299 -0.1974  1.8663  1.5907
14826TIP3    H265894   6.689   0.152   2.185 -0.8734  1.1689  1.7862
14827TIP3   OH265895   6.369   5.921  10.944 -0.1782  0.1113  0.0461
14827TIP3    H165896   6.392   5.929  10.851  1.1051  1.7922  0.4713
14827TIP3    H265897   6.300   5.986  10.956 -1.9254 -1.6712 -0.1995
14828TIP3   OH265898   6.443   1.246  12.514  0.1028  0.2726 -0.4421
14828TIP3    H165899   6.362   1.283  12.480 -0.8779 -2.1885 -0.8500
14828TIP3    H265900   6.473   1.185  12.446  1.8619  0.5533  0.0536
14829TIP3   OH265901   6.540   0.774  12.593 -0.2852 -0.3027  0.1767
14829TIP3    H165902   6.582   0.850  12.634 -0.6449  0.2297 -0.4327
14829TIP3    H265903   6.450   0.803  12.575 -0.2905 -0.7135 -0.4806
14830TIP3   OH265904   3.675   4.721   2.270 -0.5106 -0.1740  0.3267
14830TIP3    H165905   3.766   4.751   2.279  0.7810 -3.1611 -2.0037
14830TIP3    H265906   3.649   4.695   2.358  1.4647 -0.8551  0.7233
14831TIP3   OH265907   6.058   4.101  15.804 -0.0740 -0.1942 -0.0047
14831TIP3    H165908   6.142   4.058  15.821 -0.0949  0.5381  2.0732
14831TIP3    H265909   5.999   4.029  15.782  0.7447 -0.8664 -0.0331
14832TIP3   OH265910   4.352   2.060  11.010  0.0027 -0.6649  0.3805
14832TIP3    H165911   4.321   2.039  10.922  0.6337 -1.4698  0.3448
14832TIP3    H265912   4.433   2.109  10.996 -0.1418 -0.3936  0.5031
14833TIP3   OH265913   4.580   5.406  11.407  0.8986  0.2095 -0.3296
14833TIP3    H165914   4.522   5.329  11.403  1.0079  0.1536 -0.8428
14833TIP3    H265915   4.520   5.480  11.417  0.8360 -0.0202  1.1765
14834TIP3   OH265916   0.492   6.591  16.599  0.0760  0.0692 -0.4486
14834TIP3    H165917   0.438   6.627  16.670  0.4599  0.2573 -0.2499
14834TIP3    H265918   0.576   6.636  16.608  0.1594  0.0189 -0.9604
14835TIP3   OH265919   0.029   5.984  15.148 -0.0062 -0.1295  0.4127
14835TIP3    H165920   0.014   6.041  15.073 -0.7319 -0.1751  0.5138
14835TIP3    H265921   0.121   5.961  15.144  0.1991  0.7430  0.1531
14836TIP3   OH265922   3.322   5.490   5.879  0.3140  0.5286 -0.3799
14836TIP3    H165923   3.339   5.572   5.832  0.7086  0.2313 -0.7735
14836TIP3    H265924   3.381   5.492   5.954  1.2738  0.0356 -1.0949
14837TIP3   OH265925   1.464   6.467   5.184  0.5266  0.0172  0.0439
14837TIP3    H165926   1.555   6.465   5.212  0.5263  0.5717  0.0863
14837TIP3    H265927   1.466   6.508   5.098  0.1235  1.6576  0.7988
14838TIP3   OH265928   4.368   2.511   1.550 -0.2056 -0.3051 -0.7991
14838TIP3    H165929   4.346   2.465   1.469  1.0505 -0.5839 -1.0085
14838TIP3    H265930   4.450   2.469   1.579  0.4002  1.0901 -0.4299
14839TIP3   OH265931   5.329   4.442  13.218  0.1045 -0.1802 -0.4716
14839TIP3    H165932   5.351   4.518  13.273 -0.1801 -0.9082  0.6662
14839TIP3    H265933   5.266   4.393  13.270  1.3511 -1.9326 -0.5830
14840TIP3   OH265934   0.766   2.340  14.736  0.5216 -0.1761 -0.1435
14840TIP3    H165935   0.798   2.257  14.773  0.1233 -0.2640  0.0036
14840TIP3    H265936   0.742   2.392  14.813 -0.2775 -0.3449 -0.2768
14841TIP3   OH265937   0.350   2.005   4.370  0.3713  0.1395 -0.3272
14841TIP3    H165938   0.427   2.032   4.420  1.1809  0.5845 -1.7905
14841TIP3    H265939   0.339   1.912   4.390  1.9229 -0.1836 -0.9474
14842TIP3   OH265940   2.716   5.179  13.461  0.2969  0.0688  0.6570
14842TIP3    H165941   2.706   5.147  13.372 -0.1197  0.1519  0.6715
14842TIP3    H265942   2.639   5.235  13.475  0.6276  0.4607  0.8894
14843TIP3   OH265943   0.403   1.971   2.969  0.1995 -0.6190  0.2039
14843TIP3    H165944   0.466   2.009   3.031 -1.0385  0.8488  0.5963
14843TIP3    H265945   0.359   2.047   2.930 -1.4968 -1.6189  0.1238
14844TIP3   OH265946   2.238   2.457   2.657 -0.2501  0.3392  0.4710
14844TIP3    H165947   2.210   2.398   2.587 -1.3348 -0.7108  1.7809
14844TIP3    H265948   2.292   2.403   2.715  0.9240  1.2865  0.2918
14845TIP3   OH265949   5.170   1.805  11.577  0.4605  0.2145  0.3972
14845TIP3    H165950   5.141   1.896  11.581 -0.7274 -0.2127  1.8236
14845TIP3    H265951   5.255   1.805  11.620  0.8546  0.7996 -0.3795
14846TIP3   OH265952   0.895   2.119   1.402  0.0667  0.0361 -0.6710
14846TIP3    H165953   0.910   2.026   1.385 -1.4860 -0.8708  2.4238
14846TIP3    H265954   0.893   2.160   1.316  2.3035 -2.5369 -2.0205
14847TIP3   OH265955   6.110   1.468   2.453  0.1970  0.1373  0.7030
14847TIP3    H165956   6.195   1.427   2.442 -1.2848 -2.8640 -0.0636
14847TIP3    H265957   6.095   1.466   2.548 -0.1484 -1.7639  0.6236
14848TIP3   OH265958   6.529   6.237   1.974  0.4289  0.3293  0.0032
14848TIP3    H165959   6.513   6.250   1.880  0.6721  0.7500  0.0193
14848TIP3    H265960   6.580   6.155   1.978 -0.4244 -0.2105 -0.1560
14849TIP3   OH265961   2.110   3.170   6.083 -0.0548  0.2146  0.1218
14849TIP3    H165962   2.116   3.085   6.038  0.4797  0.0444  0.5054
14849TIP3    H265963   2.201   3.198   6.092 -0.1195 -0.0260  1.6196
14850TIP3   OH265964   5.888   0.533  16.676 -0.3705 -0.1673 -0.4770
14850TIP3    H165965   5.928   0.581  16.604  0.7363 -0.1251  0.1536
14850TIP3    H265966   5.878   0.598  16.745 -1.7889 -0.1166 -0.7184
14851TIP3   OH265967   3.984   1.342  15.392 -0.0070 -0.6397 -0.1476
14851TIP3    H165968   3.991   1.350  15.487 -1.6698 -2.1783  0.1374
14851TIP3    H265969   3.897   1.304  15.377  0.7477 -1.6668 -2.2017
14852TIP3   OH265970   3.585   2.787   3.116 -0.4593 -0.3929  0.2539
14852TIP3    H165971   3.571   2.881   3.126  0.6598 -0.2029  0.0931
14852TIP3    H265972   3.527   2.762   3.044 -0.9389  0.1185  0.4522
14853TIP3   OH265973   3.581   5.041   0.660 -0.5023 -0.2185  0.1770
14853TIP3    H165974   3.610   5.100   0.730  0.3955 -1.0905  0.5464
14853TIP3    H265975   3.522   4.979   0.704  1.5003 -1.9052  0.5595
14854TIP3   OH265976   2.242   0.692   2.740 -0.0547  0.2653 -0.2569
14854TIP3    H165977   2.169   0.635   2.717 -0.2710  0.5546 -0.2883
14854TIP3    H265978   2.250   0.685   2.835  1.9079 -2.2369 -0.5674
14855TIP3   OH265979   5.620   5.332   1.851  0.3381 -0.4149 -0.5560
14855TIP3    H165980   5.539   5.360   1.808  0.3332 -0.0017 -0.2752
14855TIP3    H265981   5.690   5.360   1.793  0.2802 -0.8498 -0.8424
14856TIP3   OH265982   2.902   1.499  13.720 -0.4796  0.2588 -0.4305
14856TIP3    H165983   2.857   1.428  13.677 -2.6908  1.3545  0.0164
14856TIP3    H265984   2.911   1.470  13.811 -0.3123  0.0688 -0.5058
14857TIP3   OH265985   2.896   5.961   3.264 -0.2493  0.4192 -0.0130
14857TIP3    H165986   2.857   5.884   3.223 -0.3598  0.3524  0.2217
14857TIP3    H265987   2.895   5.942   3.358 -2.1644  1.5910  0.2141
14858TIP3   OH265988   2.398   4.813  13.983  0.5093  0.0479 -0.3770
14858TIP3    H165989   2.389   4.727  14.024  0.6798  0.5142  0.6524
14858TIP3    H265990   2.308   4.837  13.961  0.0762  0.9422  2.1497
14859TIP3   OH265991   2.029   4.773  12.647  0.4656  0.3330 -0.0859
14859TIP3    H165992   1.999   4.697  12.697  4.2090 -0.9172  0.3793
14859TIP3    H265993   2.062   4.834  12.713  1.7734  0.3660 -0.7682
14860TIP3   OH265994   4.083   5.609   2.642 -0.4507 -0.1524 -0.3128
14860TIP3    H165995   4.147   5.600   2.713  2.2898 -0.6862 -2.7670
14860TIP3    H265996   4.060   5.519   2.620  1.5557 -0.1822 -2.5190
14861TIP3   OH265997   6.086   5.947  17.162 -0.1590  0.4003 -0.0167
14861TIP3    H165998   6.064   5.877  17.100  1.4563 -0.6182  0.5220
14861TIP3    H265999   6.123   5.902  17.237  2.7900  1.9279 -0.4784
14862TIP3   OH266000   6.755   1.505  15.361  0.3784 -0.2173 -0.6748
14862TIP3    H166001   6.760   1.443  15.434 -0.3952 -1.6457 -1.8104
14862TIP3    H266002   6.826   1.478  15.302  0.3434  0.2785 -0.9447
14863TIP3   OH266003   2.179   3.379   2.210 -0.6231  0.5724 -0.0066
14863TIP3    H166004   2.097   3.416   2.243 -0.3960  1.2593 -0.2223
14863TIP3    H266005   2.231   3.363   2.288 -1.1384 -0.3148  0.1761
14864TIP3   OH266006   2.809   4.965   3.714 -0.4121 -0.2415  0.3555
14864TIP3    H166007   2.873   4.894   3.724  0.7304  0.9880  2.0199
14864TIP3    H266008   2.858   5.036   3.673 -1.6702 -0.5281 -1.7191
14865TIP3   OH266009   4.357   1.936   1.038  0.3842 -0.3912 -0.1075
14865TIP3    H166010   4.339   1.929   1.132 -1.6760 -0.0198 -0.4468
14865TIP3    H266011   4.335   1.849   1.004  1.1773 -0.5398 -0.2609
14866TIP3   OH266012   5.872   6.410   3.360 -1.0407  0.4014  0.2680
14866TIP3    H166013   5.807   6.382   3.425  0.6425 -1.3496  1.2334
14866TIP3    H266014   5.824   6.408   3.276 -1.8974 -2.1092  0.7847
14867TIP3   OH266015   4.560   6.027   1.120 -0.0674  0.4705  0.3333
14867TIP3    H166016   4.556   6.042   1.026  0.3322  0.9534  0.3953
14867TIP3    H266017   4.654   6.028   1.141 -0.1434  0.1492  0.7005
14868TIP3   OH266018   1.529   5.694  14.132  0.6804  0.6596  0.8014
14868TIP3    H166019   1.459   5.755  14.107 -1.2492 -2.4364 -1.7055
14868TIP3    H266020   1.492   5.644  14.205  0.9320  0.1438  0.5754
14869TIP3   OH266021   1.962   5.712  14.266  0.1442 -0.3691 -0.3817
14869TIP3    H166022   1.958   5.807  14.268  1.4675 -0.3045 -0.3050
14869TIP3    H266023   1.876   5.683  14.298 -0.7899  0.7835 -1.7862
14870TIP3   OH266024   1.832   4.475  13.881  0.0029  0.5173 -0.5908
14870TIP3    H166025   1.837   4.542  13.949  1.5952  1.2823 -1.4351
14870TIP3    H266026   1.780   4.515  13.812 -0.3578  0.2835 -0.4617
14871TIP3   OH266027   2.220   1.743  15.140  0.2944 -0.1463 -0.3528
14871TIP3    H166028   2.157   1.697  15.195  0.2241  1.8387  1.3138
14871TIP3    H266029   2.171   1.768  15.062 -0.7615  0.5669  0.5168
14872TIP3   OH266030   0.753   5.157   5.029 -0.1728  1.0605 -0.0269
14872TIP3    H166031   0.779   5.239   5.070  2.2245  0.3542 -0.0582
14872TIP3    H266032   0.714   5.105   5.100  1.7165  0.7894  0.8268
14873TIP3   OH266033   3.990   0.638  15.163 -0.4688  0.1350  0.4418
14873TIP3    H166034   3.912   0.695  15.165  1.5528  3.0183  1.1937
14873TIP3    H266035   3.993   0.600  15.250 -1.3903 -0.4840  0.2081
14874TIP3   OH266036   1.878   3.126  11.845 -0.1582  0.3004 -0.0762
14874TIP3    H166037   1.824   3.059  11.887 -0.4811 -0.6383 -1.9271
14874TIP3    H266038   1.821   3.203  11.840 -1.2278 -0.5614 -1.6489
14875TIP3   OH266039   3.669   3.631  15.070  0.0850  0.7225  0.4546
14875TIP3    H166040   3.711   3.683  15.001 -0.8563  0.7117 -0.1282
14875TIP3    H266041   3.604   3.690  15.108 -0.9089  0.0230 -0.1300
14876TIP3   OH266042   1.830   0.240   5.386  0.4472 -0.5441 -0.5038
14876TIP3    H166043   1.907   0.295   5.372  0.5343 -0.7517 -0.8457
14876TIP3    H266044   1.765   0.299   5.426 -0.1421  0.3061 -2.6567
14877TIP3   OH266045   0.826   3.506   5.806  0.0312  0.0632 -0.5107
14877TIP3    H166046   0.763   3.570   5.772 -0.0007  0.7167  0.7694
14877TIP3    H266047   0.785   3.421   5.790 -0.7765  0.4490 -0.4843
14878TIP3   OH266048   3.651   2.454  16.116 -0.7113 -0.1122 -0.1714
14878TIP3    H166049   3.567   2.461  16.070 -0.2423  1.3455 -0.8556
14878TIP3    H266050   3.666   2.360  16.125 -2.6899 -0.3902  0.4759
14879TIP3   OH266051   0.681   0.391  13.916  0.1397 -1.0353  0.4016
14879TIP3    H166052   0.725   0.382  14.001  1.3520 -0.1230 -0.1185
14879TIP3    H266053   0.634   0.474  13.922  0.4911 -0.8128  0.0615
14880TIP3   OH266054   0.363   0.562  17.015  0.1538 -0.0063  0.2317
14880TIP3    H166055   0.334   0.647  17.048 -0.0526  0.0956 -0.2125
14880TIP3    H266056   0.428   0.532  17.079  0.8623  0.8789 -0.0710
14881TIP3   OH266057   2.842   4.009   0.193  0.0667  0.2847 -0.3505
14881TIP3    H166058   2.786   3.963   0.131 -0.2766  0.8619 -0.4720
14881TIP3    H266059   2.922   4.030   0.144  1.9415 -3.6801  0.7925
14882TIP3   OH266060   4.307   2.298   2.268  0.0514  0.3684 -0.0542
14882TIP3    H166061   4.344   2.310   2.180 -0.5705  0.0144 -0.3692
14882TIP3    H266062   4.375   2.251   2.317 -0.1777 -0.7512 -0.7833
14883TIP3   OH266063   4.261   3.417  16.183  0.0255  0.1959  0.9017
14883TIP3    H166064   4.194   3.483  16.165 -0.5719 -0.5604  0.3322
14883TIP3    H266065   4.342   3.457  16.153 -0.4916  0.2537 -0.4681
14884TIP3   OH266066   1.363   5.456   4.194 -0.1358  0.4428  0.4123
14884TIP3    H166067   1.424   5.518   4.235  0.1116 -0.7677  1.9407
14884TIP3    H266068   1.294   5.510   4.158  1.0922  1.7487 -0.0249
14885TIP3   OH266069   0.324   3.407   6.109  0.4608  0.1939  0.1139
14885TIP3    H166070   0.256   3.429   6.173  0.4414  2.1730 -0.5626
14885TIP3    H266071   0.282   3.342   6.052 -0.6668  0.9243  0.0875
14886TIP3   OH266072   6.720   1.100   2.627  0.5892 -0.3222  0.0098
14886TIP3    H166073   6.721   1.126   2.535  0.0263 -0.8886 -0.1619
14886TIP3    H266074   6.785   1.030   2.633 -0.6854 -1.5839 -0.3670
14887TIP3   OH266075   3.582   3.448  11.948  0.0246  0.5800 -0.6324
14887TIP3    H166076   3.606   3.539  11.964 -0.9033  1.0946 -2.0652
14887TIP3    H266077   3.624   3.426  11.864 -0.3229 -0.0934 -0.6401
14888TIP3   OH266078   5.162   0.676   4.509  0.4211 -0.2778 -0.5362
14888TIP3    H166079   5.156   0.603   4.571 -0.1877 -1.2741 -1.7433
14888TIP3    H266080   5.179   0.753   4.564 -1.6685 -0.8830  1.0076
14889TIP3   OH266081   0.169   5.366   5.736 -0.0855 -0.3249 -0.0723
14889TIP3    H166082   0.212   5.440   5.779 -0.5189 -0.1040 -0.0189
14889TIP3    H266083   0.220   5.350   5.657  1.5411 -1.5867  1.1839
14890TIP3   OH266084   3.226   3.293   0.732 -0.2977  0.2789  0.1341
14890TIP3    H166085   3.222   3.378   0.689 -0.0499 -0.3641 -1.1787
14890TIP3    H266086   3.181   3.233   0.671 -0.7202 -0.4726  1.1684
14891TIP3   OH266087   3.699   3.015   4.982 -0.5681 -0.0826 -0.4723
14891TIP3    H166088   3.621   2.989   5.031 -1.2888  0.0349 -1.5353
14891TIP3    H266089   3.675   3.003   4.890  0.3764  0.7514 -0.8435
14892TIP3   OH266090   3.661   6.483   1.826 -0.0925  0.5034 -0.0726
14892TIP3    H166091   3.617   6.528   1.754 -0.1289  1.0410  0.2852
14892TIP3    H266092   3.639   6.391   1.814  1.0602  0.4097 -1.5654
14893TIP3   OH266093   1.567   4.937  15.180  0.6034 -0.5580  0.2883
14893TIP3    H166094   1.635   4.984  15.132  2.3835 -0.5113  2.8201
14893TIP3    H266095   1.547   4.861  15.124  1.3077  0.4527 -1.3800
14894TIP3   OH266096   4.932   4.432   4.390  0.3684  0.0192 -0.4197
14894TIP3    H166097   4.966   4.370   4.454  0.7297 -0.0096 -0.6380
14894TIP3    H266098   4.983   4.416   4.311 -0.0384  0.0951 -0.6984
14895TIP3   OH266099   2.015   4.212  13.210  0.4483  0.0562  0.3522
14895TIP3    H166100   2.075   4.273  13.252  1.0657  0.5820 -1.2633
14895TIP3    H266101   1.937   4.213  13.266  2.0186 -0.8607  2.6382
14896TIP3   OH266102   4.037   3.819  14.747 -0.6318  0.4725 -0.0638
14896TIP3    H166103   4.107   3.763  14.781 -0.5924 -0.0074 -0.9387
14896TIP3    H266104   4.082   3.884  14.693 -0.8299  0.3391 -0.3914
14897TIP3   OH266105   3.675   6.026   4.530  0.1334 -0.3786 -0.0942
14897TIP3    H166106   3.635   6.050   4.614 -0.3756 -0.8310 -0.2024
14897TIP3    H266107   3.604   6.032   4.467  0.5090 -0.0720 -0.4915
14898TIP3   OH266108   0.280   4.346  16.828  0.1718 -0.1707 -0.1678
14898TIP3    H166109   0.375   4.344  16.834  0.1990 -1.9363 -0.8810
14898TIP3    H266110   0.259   4.437  16.809  1.7614  0.1029 -0.6713
14899TIP3   OH266111   1.382   4.885  11.231  0.6767  0.8893 -0.0777
14899TIP3    H166112   1.303   4.934  11.207  0.6754  1.6414  1.4144
14899TIP3    H266113   1.451   4.925  11.178  0.0676  0.2313 -1.3848
14900TIP3   OH266114   3.132   3.731  14.059  0.4071  0.6202  0.2288
14900TIP3    H166115   3.176   3.737  14.144 -1.2253 -0.6360  1.1877
14900TIP3    H266116   3.091   3.817  14.047  4.0149  2.2681 -1.2465
14901TIP3   OH266117   3.192   5.248  15.513  0.5721  0.3175  0.0392
14901TIP3    H166118   3.268   5.205  15.551  0.3280 -0.2105 -0.0751
14901TIP3    H266119   3.118   5.217  15.564  0.0294 -1.6606 -1.8491
14902TIP3   OH266120   0.003   6.118   2.431 -0.0992 -0.5474  0.1661
14902TIP3    H166121   0.015   6.041   2.376 -1.0439 -0.4901 -0.1333
14902TIP3    H266122   0.049   6.188   2.384 -0.1853 -0.6812 -0.1192
14903TIP3   OH266123   0.851   2.638   1.404 -0.3404  0.1038 -0.2314
14903TIP3    H166124   0.812   2.583   1.472  0.0342  1.2248  0.9217
14903TIP3    H266125   0.922   2.585   1.368 -0.2310 -0.3203  0.5905
14904TIP3   OH266126   2.403   2.079  14.643  0.2758  0.1143 -0.0104
14904TIP3    H166127   2.476   2.079  14.580  0.2499  0.4269 -0.0412
14904TIP3    H266128   2.416   2.159  14.694  0.4915 -0.3156  0.6138
14905TIP3   OH266129   3.702   6.246   6.582  0.0792  0.2017  0.5279
14905TIP3    H166130   3.685   6.169   6.635 -2.1959  0.1026 -0.2703
14905TIP3    H266131   3.630   6.306   6.602 -0.1380  0.6676 -1.4709
14906TIP3   OH266132   6.360   4.930   2.630  0.0093  0.0356 -0.0732
14906TIP3    H166133   6.278   4.921   2.679 -0.5952  0.2085 -1.0481
14906TIP3    H266134   6.338   4.908   2.540  0.8656  0.8247 -0.4927
14907TIP3   OH266135   4.884   5.764  14.194  0.0950  0.0305  0.0888
14907TIP3    H166136   4.807   5.728  14.237  0.2580 -0.6593 -0.1924
14907TIP3    H266137   4.916   5.693  14.138  1.6368 -0.1283  1.1145
14908TIP3   OH266138   1.874   0.055   2.268 -0.2938  0.5631 -0.0630
14908TIP3    H166139   1.895   0.110   2.343  2.3633 -0.4288  0.0040
14908TIP3    H266140   1.822  -0.017   2.305 -1.4393  1.5787  0.3147
14909TIP3   OH266141   1.059   0.036  10.523  0.2266 -0.8003 -0.1689
14909TIP3    H166142   0.982   0.042  10.580  1.7962  1.4470  1.8083
14909TIP3    H266143   1.103  -0.043  10.552 -0.7363 -1.5035 -0.5758
14910TIP3   OH266144   5.321   5.058   1.006 -0.1498  0.3918 -0.2148
14910TIP3    H166145   5.282   5.114   1.073 -1.6997 -1.7095  0.6650
14910TIP3    H266146   5.385   5.004   1.053 -0.3063 -0.1868 -0.6602
14911TIP3   OH266147   0.103   2.187  12.520 -0.8387 -0.0664 -0.1214
14911TIP3    H166148   0.174   2.145  12.568 -1.0961  1.2001  1.3987
14911TIP3    H266149   0.028   2.128  12.533 -0.4415 -0.6778 -0.5517
14912TIP3   OH266150   6.770   2.864  15.060 -0.3188 -0.2391  0.0934
14912TIP3    H166151   6.856   2.871  15.018 -0.6112  1.3963 -0.2761
14912TIP3    H266152   6.723   2.799  15.008  0.8942 -1.5827  0.6601
14913TIP3   OH266153   5.816   0.647  12.577 -0.3716 -0.3138 -0.4080
14913TIP3    H166154   5.838   0.735  12.609 -2.3407 -0.1109  0.4453
14913TIP3    H266155   5.853   0.588  12.643 -0.8267 -0.0423  0.0954
14914TIP3   OH266156   0.072   5.258   0.225  0.2125  0.3939  0.3213
14914TIP3    H166157   0.162   5.269   0.255  0.3058 -0.4906  0.3904
14914TIP3    H266158   0.070   5.169   0.188 -0.1569  1.0827 -1.3670
14915TIP3   OH266159   5.529   1.917   2.303 -0.2835 -0.6062 -0.1553
14915TIP3    H166160   5.451   1.939   2.354  2.2574  2.2543  2.7761
14915TIP3    H266161   5.538   1.990   2.241  1.0934  0.1083  0.8558
14916TIP3   OH266162   3.200   1.465  15.689  0.2835  0.2168  0.5823
14916TIP3    H166163   3.159   1.540  15.646  0.6358 -0.7373 -1.4709
14916TIP3    H266164   3.128   1.419  15.732 -0.4827 -0.1459 -1.0434
14917TIP3   OH266165   1.316   4.339  15.212  0.0077  0.2869  0.2145
14917TIP3    H166166   1.338   4.364  15.302 -2.2690  1.6235  0.4325
14917TIP3    H266167   1.363   4.257  15.198  1.7947  0.9434  2.0138
14918TIP3   OH266168   1.320   3.717  14.046  0.0033 -0.1219  0.1193
14918TIP3    H166169   1.397   3.770  14.066 -0.4745  0.8261 -0.4898
14918TIP3    H266170   1.258   3.739  14.116  0.3285 -1.0019  0.6981
14919TIP3   OH266171   4.782   5.894   4.224  0.8242  0.7292  0.1040
14919TIP3    H166172   4.759   5.928   4.310 -0.4849  1.4999 -0.5369
14919TIP3    H266173   4.744   5.806   4.221  0.9214  0.6791  0.3297
14920TIP3   OH266174   5.026   1.349   2.619  0.1843 -0.1725 -0.2857
14920TIP3    H166175   5.041   1.343   2.524 -1.9874 -1.3575 -0.5839
14920TIP3    H266176   4.949   1.404   2.628  0.8797  0.6359  0.8626
14921TIP3   OH266177   6.373   3.752  15.800 -0.4085  0.4512  0.0210
14921TIP3    H166178   6.353   3.843  15.780 -0.4234  0.4317 -0.0519
14921TIP3    H266179   6.468   3.749  15.807 -0.4836  0.7319  1.2862
14922TIP3   OH266180   3.800   0.488  13.523  0.5324 -0.3133 -0.2633
14922TIP3    H166181   3.829   0.404  13.487 -0.6679 -1.2448  0.8945
14922TIP3    H266182   3.839   0.490  13.611 -0.2243 -0.1100  0.0708
14923TIP3   OH266183   2.852   0.177   1.116  0.0419  0.1944 -0.6267
14923TIP3    H166184   2.801   0.258   1.111  1.2695  0.8687 -2.7663
14923TIP3    H266185   2.822   0.125   1.042  0.0289 -0.8861  0.1188
14924TIP3   OH266186   3.163   5.572   1.534  0.4053  0.0118 -0.1996
14924TIP3    H166187   3.181   5.657   1.573 -1.5041  1.1646 -1.7323
14924TIP3    H266188   3.248   5.528   1.531  1.1954  1.3417  1.7778
14925TIP3   OH266189   4.387   2.726   4.158  0.0010  0.2083  0.0175
14925TIP3    H166190   4.307   2.716   4.209  0.5028  0.3442  0.8284
14925TIP3    H266191   4.394   2.645   4.108 -0.8704  0.3707 -0.3808
14926TIP3   OH266192   2.942   1.019   3.839  0.3218 -0.8431  0.3196
14926TIP3    H166193   2.952   0.988   3.929 -0.2819  1.4687  1.2330
14926TIP3    H266194   2.904   1.107   3.848 -0.3634 -0.8266 -2.2139
14927TIP3   OH266195   0.714   1.062   1.263  0.2563  0.0198  0.5258
14927TIP3    H166196   0.635   1.014   1.241  0.2286  0.2123  0.2071
14927TIP3    H266197   0.773   1.049   1.189  0.2190  0.5398  0.4025
14928TIP3   OH266198   2.997   1.510   1.892 -0.6401 -0.1100 -0.0950
14928TIP3    H166199   3.018   1.585   1.947  0.1661 -0.1323 -0.3612
14928TIP3    H266200   2.952   1.449   1.951  1.0164 -0.5132  0.7918
14929TIP3   OH266201   0.507   1.104  12.734 -0.4132  0.1413  0.3758
14929TIP3    H166202   0.423   1.108  12.690 -0.8393 -0.5130  1.1080
14929TIP3    H266203   0.554   1.182  12.705 -0.5774 -0.4117 -1.4266
14930TIP3   OH266204   1.607   0.142   4.316 -0.7371 -0.7571  0.0788
14930TIP3    H166205   1.672   0.134   4.385  1.1797  1.7852 -1.3201
14930TIP3    H266206   1.578   0.053   4.298 -0.2169 -1.5731  3.1418
14931TIP3   OH266207   0.271   1.411   4.389 -0.1830  0.1594  0.8780
14931TIP3    H166208   0.237   1.417   4.300 -1.7173 -1.9148  1.2923
14931TIP3    H266209   0.279   1.502   4.417  2.0962  0.9376 -1.9909
14932TIP3   OH266210   1.130   0.970   5.700  0.0530 -0.4039  0.2765
14932TIP3    H166211   1.075   0.918   5.642 -1.3896  2.4550 -1.0237
14932TIP3    H266212   1.071   1.001   5.769  0.1021  2.0137 -0.6879
14933TIP3   OH266213   5.376   2.576   5.494 -0.0113 -0.3448  0.0272
14933TIP3    H166214   5.347   2.490   5.523 -1.4356 -0.2415 -1.0292
14933TIP3    H266215   5.467   2.563   5.467 -0.0575 -1.3926  0.3534
14934TIP3   OH266216   4.643   1.497  16.613 -0.4124 -0.0116  0.0004
14934TIP3    H166217   4.658   1.559  16.541 -1.0149 -1.6007 -1.5085
14934TIP3    H266218   4.581   1.433  16.577  0.5939 -1.7857  1.3796
14935TIP3   OH266219   4.195   5.634   1.164 -0.2139 -0.0504  0.0103
14935TIP3    H166220   4.239   5.587   1.093  1.3361 -0.7756  1.4233
14935TIP3    H266221   4.256   5.702   1.189 -1.7141  1.6479 -0.8210
14936TIP3   OH266222   5.680   3.064  12.162  0.2065  0.3134 -0.2933
14936TIP3    H166223   5.756   3.056  12.220  0.7833  0.0709 -1.0662
14936TIP3    H266224   5.715   3.109  12.085 -1.1050  2.8983  0.5679
14937TIP3   OH266225   2.171   0.795  13.283  0.6511 -0.3791  0.0647
14937TIP3    H166226   2.149   0.860  13.350 -1.3084 -0.1522 -0.7601
14937TIP3    H266227   2.089   0.748  13.268  1.3472 -1.1680 -1.3818
14938TIP3   OH266228   4.741   5.534   1.552  0.0496  0.2357 -0.3691
14938TIP3    H166229   4.763   5.520   1.644  0.2027  1.3577 -0.2283
14938TIP3    H266230   4.646   5.522   1.547  0.0457  0.1546 -0.0699
14939TIP3   OH266231   2.309   0.979   1.089  0.7502 -0.2164  0.4136
14939TIP3    H166232   2.360   1.042   1.037  0.6095 -1.0632 -0.7721
14939TIP3    H266233   2.367   0.904   1.100 -0.4698 -1.4896 -1.5741
14940TIP3   OH266234   0.784   4.902   1.934 -0.0812  0.5688  0.3356
14940TIP3    H166235   0.763   4.821   1.981  0.8762  1.0961  1.7115
14940TIP3    H266236   0.700   4.948   1.926 -0.7035 -0.7123 -0.8064
14941TIP3   OH266237   1.996   1.723   3.694  0.0424  0.0096  0.1366
14941TIP3    H166238   1.933   1.693   3.759  1.2736 -0.5769  1.0664
14941TIP3    H266239   2.075   1.745   3.744  1.1258 -0.7811 -1.1875
14942TIP3   OH266240   3.741   2.583   3.206 -0.4148 -0.3816 -0.0203
14942TIP3    H166241   3.655   2.618   3.183  1.0848  2.9088 -0.8432
14942TIP3    H266242   3.782   2.560   3.123  0.4581  0.4425  0.1686
14943TIP3   OH266243   1.489   5.536   0.908  0.2693 -0.0592 -0.1788
14943TIP3    H166244   1.574   5.574   0.886  0.7844 -0.7500  0.5952
14943TIP3    H266245   1.503   5.441   0.901 -0.3232 -0.1888  0.3699
14944TIP3   OH266246   0.192   0.763  16.266 -0.0349  0.1747 -0.2495
14944TIP3    H166247   0.211   0.676  16.229  1.3393  0.3692 -0.0283
14944TIP3    H266248   0.259   0.775  16.333  1.2227  2.3657 -1.8222
14945TIP3   OH266249   1.416   6.260   0.545  0.2813  0.0972 -0.4892
14945TIP3    H166250   1.393   6.348   0.575  1.8650  0.9687 -1.7278
14945TIP3    H266251   1.341   6.206   0.568 -0.4938  1.6732  0.7559
14946TIP3   OH266252   1.349   6.357  13.936  0.0762 -0.2527  0.0183
14946TIP3    H166253   1.362   6.303  13.858  1.7302 -0.2517  0.2654
14946TIP3    H266254   1.255   6.369  13.942 -0.1186 -0.8923 -1.5517
14947TIP3   OH266255   4.148   1.898  16.603  0.3036  0.1684  0.4682
14947TIP3    H166256   4.078   1.833  16.595  1.3425 -0.8595 -0.3645
14947TIP3    H266257   4.211   1.858  16.662  1.3502  0.0655 -0.7135
14948TIP3   OH266258   0.926   2.613  12.611 -0.2530 -0.4055 -0.1958
14948TIP3    H166259   0.884   2.589  12.694 -2.0909 -1.3256 -1.3422
14948TIP3    H266260   0.985   2.540  12.591 -0.3390 -0.5149 -0.0454
14949TIP3   OH266261   4.106   3.799  15.908 -0.0286 -0.0626  0.4766
14949TIP3    H166262   4.095   3.827  15.999 -3.0322  0.0938  0.1178
14949TIP3    H266263   4.057   3.864  15.857 -0.0601 -1.2769 -1.0709
14950TIP3   OH266264   6.171   2.551  11.469 -0.1906  0.0771  0.4493
14950TIP3    H166265   6.218   2.611  11.526  0.9326  0.9609 -1.3656
14950TIP3    H266266   6.089   2.596  11.449 -1.0534 -0.6942  2.1922
14951TIP3   OH266267   0.187   2.428  11.785  0.6349 -0.1826  0.1619
14951TIP3    H166268   0.112   2.374  11.761  1.6135 -0.5204 -2.3382
14951TIP3    H266269   0.261   2.367  11.782  1.2464  0.4919  1.0897
14952TIP3   OH266270   3.755   1.579  13.546 -0.6823  0.1098 -0.4711
14952TIP3    H166271   3.687   1.545  13.489 -1.1030 -0.1651  0.1876
14952TIP3    H266272   3.723   1.562  13.635  0.2683 -0.0853 -0.1560
14953TIP3   OH266273   2.078   4.478   2.568 -0.5932 -0.5691  0.3843
14953TIP3    H166274   2.086   4.449   2.477 -0.2411 -0.2111  0.3000
14953TIP3    H266275   2.022   4.555   2.564 -1.1975 -0.9854  0.5636
14954TIP3   OH266276   3.059   4.676   2.925 -0.3753 -0.4960  0.8349
14954TIP3    H166277   2.990   4.627   2.970 -1.1435 -1.9096 -1.8114
14954TIP3    H266278   3.025   4.765   2.918 -0.7890 -0.5623  1.8969
14955TIP3   OH266279   5.650   0.996   4.186  0.0883 -0.1759  0.2588
14955TIP3    H166280   5.624   0.930   4.122  3.5777  1.9135 -3.5849
14955TIP3    H266281   5.585   1.066   4.177  0.0232 -0.3106 -0.3117
14956TIP3   OH266282   2.404   1.660  14.346  0.1833  0.9413  0.3431
14956TIP3    H166283   2.465   1.586  14.356  1.2266  1.6535 -0.6379
14956TIP3    H266284   2.459   1.738  14.355 -0.6116  1.5927 -0.3935
14957TIP3   OH266285   2.209   4.598   5.342 -0.1029 -0.0792  0.0764
14957TIP3    H166286   2.175   4.686   5.356 -0.9210 -0.3744 -0.0287
14957TIP3    H266287   2.301   4.603   5.370 -0.3080  0.6541  0.6416
14958TIP3   OH266288   2.919   1.173  12.001  0.4905 -0.2578 -0.5647
14958TIP3    H166289   2.878   1.093  12.033  1.6470 -0.8382 -0.5179
14958TIP3    H266290   2.896   1.177  11.908 -1.5756  0.6255 -0.0525
14959TIP3   OH266291   1.246   6.018   4.912 -0.0740  0.2835 -0.4226
14959TIP3    H166292   1.168   5.968   4.886 -0.0807  0.4047 -0.6379
14959TIP3    H266293   1.317   5.954   4.912  0.0232  0.3792 -1.2288
14960TIP3   OH266294   5.264   5.164   4.274 -0.1458 -0.0726 -0.3156
14960TIP3    H166295   5.304   5.082   4.305 -2.0066 -0.4918  1.0806
14960TIP3    H266296   5.292   5.171   4.183  1.6347 -1.2633  0.1174
14961TIP3   OH266297   2.005   1.216   4.047  0.4379 -0.5013  0.5876
14961TIP3    H166298   2.043   1.276   3.982  1.4394 -0.9000  0.7937
14961TIP3    H266299   2.019   1.129   4.010 -0.0745 -0.6670  0.7811
14962TIP3   OH266300   4.276   3.026  16.873 -0.3224 -0.4990  0.4908
14962TIP3    H166301   4.251   3.091  16.939  0.6538  1.3115 -0.8703
14962TIP3    H266302   4.206   3.032  16.807 -0.7533 -1.5503  0.8526
14963TIP3   OH266303   3.611   2.138   1.217 -0.5323  0.0849  0.2147
14963TIP3    H166304   3.538   2.096   1.262 -1.3072  0.7602 -0.4042
14963TIP3    H266305   3.688   2.089   1.246 -1.2536 -0.7863  0.6853
14964TIP3   OH266306   3.838   2.488  16.542 -0.1033  0.5448 -0.3237
14964TIP3    H166307   3.913   2.442  16.578 -1.5354 -0.4958  1.3927
14964TIP3    H266308   3.828   2.565  16.598 -0.0244  0.9592 -0.8690
14965TIP3   OH266309   0.412   1.904   4.102 -0.0631  0.1560  0.0175
14965TIP3    H166310   0.379   1.947   4.181  1.6520 -1.4171  1.6060
14965TIP3    H266311   0.377   1.958   4.030 -2.1282  1.2661  1.7887
14966TIP3   OH266312   2.092   4.354  12.593 -0.3501  0.0529  0.1469
14966TIP3    H166313   2.071   4.264  12.569 -0.3861  0.5710 -1.8512
14966TIP3    H266314   2.131   4.347  12.680  0.0344 -1.9354 -0.1590
14967TIP3   OH266315   0.778   2.157  16.977 -0.3226  0.2222 -0.1109
14967TIP3    H166316   0.793   2.243  16.937  1.1524  0.7479  1.4888
14967TIP3    H266317   0.851   2.104  16.947 -0.0180  0.1868  0.6865
14968TIP3   OH266318   2.620   0.876  13.789 -0.2580 -0.0265  0.3069
14968TIP3    H166319   2.669   0.893  13.869 -0.2269 -0.2280  0.3323
14968TIP3    H266320   2.621   0.780  13.780  1.7896  0.1140 -1.2361
14969TIP3   OH266321   0.876   4.122  15.915  0.1250  0.4377 -0.0001
14969TIP3    H166322   0.918   4.120  16.001  0.6607  1.2514 -0.2372
14969TIP3    H266323   0.878   4.214  15.889 -1.7089  0.4734 -0.0792
14970TIP3   OH266324   3.656   5.427  16.510  0.1359 -0.5770  0.1893
14970TIP3    H166325   3.690   5.412  16.421  0.0584 -0.3487  0.1198
14970TIP3    H266326   3.731   5.411  16.567  0.2414 -0.5249  0.0677
14971TIP3   OH266327   0.023   5.450  16.855  0.2767  0.2073 -0.2823
14971TIP3    H166328   0.080   5.419  16.926  2.0289  2.1529 -0.7772
14971TIP3    H266329  -0.013   5.370  16.817  1.7402 -1.0274  0.8380
14972TIP3   OH266330   0.906   5.606   4.625 -0.6181 -0.5381 -0.3191
14972TIP3    H166331   0.915   5.697   4.655 -1.7353 -0.7187  0.5807
14972TIP3    H266332   0.963   5.556   4.682 -0.1611 -0.4355 -0.6813
14973TIP3   OH266333   5.729   2.377  12.502  0.0321  0.0721 -0.0529
14973TIP3    H166334   5.770   2.327  12.432  0.5668  0.3359  0.0688
14973TIP3    H266335   5.721   2.315  12.574  1.1521  0.2914  0.2662
14974TIP3   OH266336   6.609   1.857   4.323 -0.2265  0.4385 -0.0123
14974TIP3    H166337   6.681   1.845   4.261  0.8716 -1.2851  1.5351
14974TIP3    H266338   6.621   1.947   4.356  1.6717 -0.0659  0.7510
14975TIP3   OH266339   1.392   4.801  12.405  0.7223  0.3618 -0.0884
14975TIP3    H166340   1.326   4.828  12.469  2.2986  0.9700  1.3550
14975TIP3    H266341   1.344   4.789  12.323 -1.0407  1.4349  0.7634
14976TIP3   OH266342   6.527   3.842  14.091 -0.2632  0.0390 -0.5793
14976TIP3    H166343   6.583   3.816  14.018  0.8598  1.5670 -0.2840
14976TIP3    H266344   6.438   3.824  14.061  0.1779  0.7432 -2.3841
14977TIP3   OH266345   1.525   0.067   2.415 -1.1991 -0.0351 -0.5756
14977TIP3    H166346   1.498  -0.018   2.449 -0.6211 -0.5659 -1.4132
14977TIP3    H266347   1.515   0.060   2.320 -0.0460  0.4234 -0.7493
14978TIP3   OH266348   6.559   0.350  16.378  0.3510 -0.6547  0.4656
14978TIP3    H166349   6.624   0.280  16.379 -1.6680 -2.6210 -0.4419
14978TIP3    H266350   6.495   0.323  16.312  0.4449  2.9678 -1.2045
14979TIP3   OH266351   1.787   0.352   2.792  0.4136 -0.3901 -0.1309
14979TIP3    H166352   1.724   0.350   2.865 -0.5080  0.1789 -0.8880
14979TIP3    H266353   1.746   0.297   2.725  0.1491  0.9597 -1.0827
14980TIP3   OH266354   0.032   5.612  11.867 -0.1339 -0.4770 -0.6725
14980TIP3    H166355  -0.044   5.668  11.852  0.3885  0.3213 -0.3783
14980TIP3    H266356   0.098   5.643  11.804  0.4027 -0.2914 -0.0275
14981TIP3   OH266357   5.982   4.123   5.869 -0.0863 -0.4111  0.4383
14981TIP3    H166358   5.936   4.083   5.795  0.0391 -1.6375  1.0180
14981TIP3    H266359   6.073   4.129   5.840  0.0029 -1.0957  0.5792
14982TIP3   OH266360   1.864   2.538   6.238 -0.7248 -0.2430 -0.1760
14982TIP3    H166361   1.959   2.545   6.252 -0.9730 -1.3013  2.4027
14982TIP3    H266362   1.853   2.460   6.184 -0.1218 -0.1486 -0.4377
14983TIP3   OH266363   2.849   5.861  12.042 -0.2143 -0.0845  0.6211
14983TIP3    H166364   2.903   5.808  11.983 -0.3719  0.1861  0.2258
14983TIP3    H266365   2.910   5.921  12.084 -0.0987 -0.2848  0.7392
14984TIP3   OH266366   3.284   6.444   0.714 -0.1281 -0.0756  0.3192
14984TIP3    H166367   3.244   6.510   0.658  1.2628 -0.7174 -1.4823
14984TIP3    H266368   3.227   6.368   0.707 -0.1977 -0.0045  0.1340
14985TIP3   OH266369   0.548   1.832  16.366 -0.0172  0.1941  0.0274
14985TIP3    H166370   0.598   1.820  16.447 -0.1948  1.2670  0.3032
14985TIP3    H266371   0.606   1.883  16.309 -0.5484  0.8863  0.1025
14986TIP3   OH266372   3.545   1.314   1.635  0.5480  0.8270  0.7747
14986TIP3    H166373   3.550   1.245   1.700  0.4652 -0.0425 -0.1191
14986TIP3    H266374   3.451   1.334   1.629  0.4242  0.0570  0.0604
14987TIP3   OH266375   1.516   2.622  11.698  0.1617  0.7711  0.1622
14987TIP3    H166376   1.611   2.628  11.711  0.2789 -1.0748  0.3924
14987TIP3    H266377   1.505   2.599  11.606 -0.0737  1.0617  0.1149
14988TIP3   OH266378   6.334   3.330   4.988 -0.0834  0.3019  0.0881
14988TIP3    H166379   6.426   3.308   4.969 -0.5551 -0.8692 -0.9571
14988TIP3    H266380   6.321   3.416   4.948  0.3421  0.1101 -0.4680
14989TIP3   OH266381   4.404   2.680   1.978 -0.3031 -0.0740  0.7293
14989TIP3    H166382   4.373   2.645   2.061  0.9294  0.2949  1.3604
14989TIP3    H266383   4.345   2.753   1.959 -1.0812 -0.6679  0.8724
14990TIP3   OH266384   2.989   3.253  11.799  0.5457  0.1096  0.0606
14990TIP3    H166385   2.972   3.302  11.879  0.7648 -0.1643  0.2770
14990TIP3    H266386   2.962   3.311  11.729 -2.1744 -0.6637  0.4068
14991TIP3   OH266387   1.907   1.063  16.021 -0.6362  0.3745  0.5593
14991TIP3    H166388   1.964   1.099  16.089 -1.1472 -0.6667  1.5376
14991TIP3    H266389   1.821   1.059  16.061 -0.9871 -0.0209 -0.2315
14992TIP3   OH266390   0.725   3.419   3.532  0.1374 -0.1829  0.1595
14992TIP3    H166391   0.746   3.508   3.505 -2.0956  0.2346 -0.3138
14992TIP3    H266392   0.723   3.368   3.451 -4.0765  0.5505 -0.3292
14993TIP3   OH266393   1.791   4.616  11.579 -0.5940 -0.3855  1.0183
14993TIP3    H166394   1.758   4.705  11.591 -1.2099 -0.2126 -1.6469
14993TIP3    H266395   1.860   4.607  11.644  1.6753  3.1568 -0.7318
14994TIP3   OH266396   6.706   1.853   0.088  0.1255  0.3131 -0.2022
14994TIP3    H166397   6.623   1.898   0.078 -0.5925 -0.6277  1.4000
14994TIP3    H266398   6.697   1.802   0.169  1.4133 -1.5760 -1.2034
14995TIP3   OH266399   0.337   4.094  13.940  0.1399  0.0154  0.1871
14995TIP3    H166400   0.258   4.059  13.980  0.1501 -0.3895 -0.1440
14995TIP3    H266401   0.406   4.033  13.963  0.5135  0.7817  1.1282
14996TIP3   OH266402   4.059   3.390  15.906 -0.1286  0.0676  0.3220
14996TIP3    H166403   4.049   3.438  15.989  1.3599 -0.3990  0.7844
14996TIP3    H266404   3.984   3.330  15.904 -0.4911  0.4912  1.0579
14997TIP3   OH266405   4.302   4.894  15.869  0.7516  0.3949  0.7719
14997TIP3    H166406   4.364   4.824  15.885  0.6640  0.2337  0.4189
14997TIP3    H266407   4.230   4.852  15.822  0.5458  0.6505  0.8562
14998TIP3   OH266408   5.359   1.393  12.939  0.2627  0.4780  0.5197
14998TIP3    H166409   5.290   1.408  12.874 -0.1584  1.0003  1.0884
14998TIP3    H266410   5.317   1.342  13.008  1.1546 -1.5800 -0.4298
14999TIP3   OH266411   1.791   6.651   5.843 -0.2586  0.2684  0.2409
14999TIP3    H166412   1.831   6.688   5.921 -2.0451  0.4944  1.0817
14999TIP3    H266413   1.718   6.599   5.876  0.2719 -1.4027 -1.1467
15000TIP3   OH266414   0.695   5.999  13.797 -0.1280 -0.3360 -0.4855
15000TIP3    H166415   0.694   6.078  13.851 -0.7198 -0.3180 -0.5116
15000TIP3    H266416   0.743   6.024  13.718  0.2610 -0.1998 -0.2025
15001TIP3   OH266417   5.675   1.172  10.401  0.3740  0.1743 -0.4852
15001TIP3    H166418   5.681   1.106  10.470  0.3025 -0.0870 -0.7263
15001TIP3    H266419   5.606   1.139  10.343 -0.5891  1.1235  0.1006
15002TIP3   OH266420   4.458   1.056  16.991  0.6173 -0.3051 -0.3168
15002TIP3    H166421   4.443   0.983  16.930 -0.5752 -2.0170  1.9320
15002TIP3    H266422   4.414   1.029  17.071  1.7227  2.1195  1.1545
15003TIP3   OH266423   6.732   6.435  11.351 -0.0617 -0.1033  0.4523
15003TIP3    H166424   6.680   6.500  11.399 -0.1994 -0.7109  1.1463
15003TIP3    H266425   6.790   6.487  11.295  0.3210  0.6431  1.5077
15004TIP3   OH266426   4.651   3.047   5.001  0.8012 -0.1628  0.5979
15004TIP3    H166427   4.697   3.105   5.062  0.1488  0.2134  0.7295
15004TIP3    H266428   4.720   3.012   4.944  1.3393 -0.1153  1.2205
15005TIP3   OH266429   2.455   0.042   0.430  0.3424 -0.0779  0.3405
15005TIP3    H166430   2.403   0.053   0.350  0.5977  2.2547  0.4553
15005TIP3    H266431   2.491   0.129   0.447  2.0020 -1.0318  1.8414
15006TIP3   OH266432   5.493   0.292   6.318  0.4966  0.0560  0.6811
15006TIP3    H166433   5.516   0.215   6.266  0.5798  0.5220  0.0218
15006TIP3    H266434   5.399   0.283   6.334  0.2907  0.3844 -0.3360
15007TIP3   OH266435   3.796   3.878  16.464  0.4361 -0.2590 -0.0467
15007TIP3    H166436   3.820   3.908  16.552  0.3094 -1.3590  0.3665
15007TIP3    H266437   3.847   3.798  16.451  0.2399 -0.2545 -0.8655
15008TIP3   OH266438   0.791   5.557   5.589 -0.3067  0.2580 -0.1787
15008TIP3    H166439   0.817   5.564   5.498  1.1640 -2.2637  0.0098
15008TIP3    H266440   0.734   5.481   5.592  0.3764 -0.2233  1.1488
15009TIP3   OH266441   1.495   2.369  13.686 -0.1097 -0.2385 -0.0655
15009TIP3    H166442   1.561   2.414  13.737  0.0316  1.5194 -1.7619
15009TIP3    H266443   1.423   2.353  13.748  1.2425 -0.7896  1.3878
15010TIP3   OH266444   5.220   0.994   6.072 -0.8726 -0.1180 -0.6162
15010TIP3    H166445   5.258   0.916   6.032 -2.2990 -0.7673 -0.7098
15010TIP3    H266446   5.174   0.961   6.149 -0.1327  0.8398  0.2547
15011TIP3   OH266447   1.719   5.271   3.995  0.4487 -0.3576 -0.0761
15011TIP3    H166448   1.788   5.205   4.007  2.3234  1.4814 -0.5925
15011TIP3    H266449   1.765   5.354   3.993 -1.9210  1.0124  0.6558
15012TIP3   OH266450   1.935   4.670  12.953 -0.2563  0.3272  0.7904
15012TIP3    H166451   1.870   4.739  12.960  0.2480  1.2363 -2.3787
15012TIP3    H266452   1.890   4.599  12.906  1.4309  1.6913 -3.1210
15013TIP3   OH266453   3.290   5.560  11.204  0.4656  0.3712  0.2038
15013TIP3    H166454   3.356   5.589  11.267  1.9750  1.5430 -1.8721
15013TIP3    H266455   3.323   5.476  11.172  0.8904  0.8811 -0.7145
15014TIP3   OH266456   6.371   0.656   1.046  0.0642  0.2157 -0.0685
15014TIP3    H166457   6.419   0.670   1.128  2.0719  0.8066 -1.2864
15014TIP3    H266458   6.347   0.564   1.048  2.7400 -0.5396 -0.1076
15015TIP3   OH266459   6.715   4.543   0.793  0.3224  0.5747 -0.1823
15015TIP3    H166460   6.763   4.504   0.865 -0.5299  0.6545  0.4383
15015TIP3    H266461   6.710   4.636   0.815  0.8359  0.7462 -0.7862
15016TIP3   OH266462   6.074   2.157  14.857 -0.2457  0.1099  0.3737
15016TIP3    H166463   6.027   2.210  14.793 -0.4253  0.2156  0.5913
15016TIP3    H266464   6.166   2.164  14.831 -0.5246 -1.5897 -1.1581
15017TIP3   OH266465   1.511   0.799   1.158  0.0122 -0.1294  0.1370
15017TIP3    H166466   1.553   0.834   1.080 -0.3195 -0.6175 -0.2678
15017TIP3    H266467   1.421   0.782   1.131 -0.1073 -0.2789  0.6313
15018TIP3   OH266468   1.922   5.273   2.771 -0.9754 -0.0308  0.3243
15018TIP3    H166469   1.865   5.212   2.819 -2.8514 -0.9985 -2.9785
15018TIP3    H266470   1.914   5.355   2.819 -1.4411 -1.3470  2.6254
15019TIP3   OH266471   3.242   2.953   5.612 -0.3110 -0.5183  0.0725
15019TIP3    H166472   3.328   2.921   5.638 -0.7363 -1.4448  0.3708
15019TIP3    H266473   3.180   2.898   5.661 -1.0670  0.2866  0.0338
15020TIP3   OH266474   0.920   1.119  14.110 -0.2668 -0.5969 -0.8082
15020TIP3    H166475   1.003   1.160  14.086 -0.0612 -0.7724 -0.4069
15020TIP3    H266476   0.945   1.038  14.156 -0.6475 -0.2268  0.0707
15021TIP3   OH266477   5.357   0.304  12.316 -0.2348 -0.2592 -0.0820
15021TIP3    H166478   5.436   0.272  12.360  0.7774  0.5700 -1.2738
15021TIP3    H266479   5.346   0.393  12.350 -0.0450  0.0056 -0.7078
15022TIP3   OH266480   4.130   2.648  13.287 -0.2125 -0.6587  0.0849
15022TIP3    H166481   4.120   2.711  13.359  0.8124 -0.7110  0.2767
15022TIP3    H266482   4.206   2.678  13.238 -1.0923 -0.4451 -1.1799
15023TIP3   OH266483   2.263   2.840   0.213 -0.0884  0.1535  0.4756
15023TIP3    H166484   2.262   2.749   0.244 -0.6977  0.1897  0.5871
15023TIP3    H266485   2.339   2.879   0.256 -0.4529 -0.0170  1.3086
15024TIP3   OH266486   4.912   5.728  16.626 -0.0410 -0.1319  0.1069
15024TIP3    H166487   4.847   5.704  16.692  0.1920 -0.7822  0.1015
15024TIP3    H266488   4.996   5.722  16.672  0.0216  0.6622  0.1010
15025TIP3   OH266489   4.723   5.814   1.978  0.2608 -0.1933  0.1186
15025TIP3    H166490   4.633   5.816   2.010  0.0172 -2.7286 -0.3683
15025TIP3    H266491   4.719   5.761   1.899  2.2799 -0.6964  0.3487
15026TIP3   OH266492   3.717   1.892   0.975 -0.0783 -0.7490  0.3474
15026TIP3    H166493   3.739   1.809   1.017 -0.5076 -1.0173  0.0416
15026TIP3    H266494   3.747   1.883   0.885 -1.7262 -1.2527 -0.1720
15027TIP3   OH266495   0.315   5.345   2.087  0.2011 -0.5379  0.5032
15027TIP3    H166496   0.299   5.411   2.020  1.0386  1.0274  1.8098
15027TIP3    H266497   0.233   5.297   2.092  0.1592 -0.7436 -1.6943
15028TIP3   OH266498   3.674   5.296  11.065  0.4916 -0.1334  0.5214
15028TIP3    H166499   3.721   5.294  10.981 -1.1911  0.7830 -0.4715
15028TIP3    H266500   3.593   5.249  11.047 -0.1162  0.5371  1.5093
15029TIP3   OH266501   0.520   5.694  11.847  0.2333 -0.6280 -0.6297
15029TIP3    H166502   0.598   5.688  11.903  0.0060  2.6510  0.1064
15029TIP3    H266503   0.553   5.727  11.764 -0.3143  0.4149 -0.4345
15030TIP3   OH266504   0.737   1.897  10.651 -0.2700  0.4471 -0.1163
15030TIP3    H166505   0.685   1.836  10.598 -0.5151  1.4142 -0.9874
15030TIP3    H266506   0.732   1.980  10.605  1.1534  0.8195  0.3770
15031TIP3   OH266507   5.656   4.324   2.317  0.5614 -0.2589  0.0372
15031TIP3    H166508   5.658   4.364   2.404 -0.3005 -1.2932  0.5520
15031TIP3    H266509   5.667   4.230   2.334 -1.1747 -0.6503 -0.8269
15032TIP3   OH266510   4.078   0.608  11.871 -0.5760 -0.3640 -0.1222
15032TIP3    H166511   4.011   0.674  11.889 -1.1622 -0.9821 -0.0252
15032TIP3    H266512   4.038   0.525  11.896  0.2380 -0.7381 -0.0349
15033TIP3   OH266513   4.121   4.989   3.483  0.2235  0.5104  0.0019
15033TIP3    H166514   4.161   4.908   3.514 -0.0664  0.6634  0.7875
15033TIP3    H266515   4.186   5.057   3.501 -0.5771  0.8368  1.7559
15034TIP3   OH266516   0.792   6.730   2.889 -0.5046  0.1493  0.7065
15034TIP3    H166517   0.758   6.731   2.978  0.7220  2.9245  1.1738
15034TIP3    H266518   0.869   6.786   2.891  0.1135 -0.5305 -1.8843
15035TIP3   OH266519   0.641   2.718   6.190 -0.1956 -0.5615  0.1784
15035TIP3    H166520   0.678   2.699   6.276 -2.2655 -0.2674  1.1640
15035TIP3    H266521   0.554   2.679   6.192 -0.9828  1.0452 -1.0921
15036TIP3   OH266522   3.157   3.425   2.267 -0.0757  0.2732  0.2089
15036TIP3    H166523   3.217   3.499   2.261  1.2424 -0.7347  0.7597
15036TIP3    H266524   3.153   3.390   2.178  0.9547 -0.2815  0.3799
15037TIP3   OH266525   4.121   1.322   1.351  0.5730  0.7319  0.6849
15037TIP3    H166526   4.128   1.417   1.341 -0.2795  0.7860  0.5403
15037TIP3    H266527   4.032   1.308   1.385  0.1362 -0.1236 -0.7876
15038TIP3   OH266528   1.295   2.886   4.710 -0.0540  0.1864  0.5230
15038TIP3    H166529   1.385   2.881   4.743 -0.2723  0.7422  1.2106
15038TIP3    H266530   1.295   2.964   4.654  0.0862 -0.2486 -0.0875
15039TIP3   OH266531   6.747   4.860   4.632  0.0218  0.0081 -0.1954
15039TIP3    H166532   6.687   4.933   4.647  0.8094  0.5616  0.2924
15039TIP3    H266533   6.700   4.803   4.571 -1.0486  0.3634  0.2890
15040TIP3   OH266534   5.717   3.120   3.189  0.4775  0.0359  0.1702
15040TIP3    H166535   5.681   3.174   3.119 -0.5523 -1.9475 -0.8707
15040TIP3    H266536   5.736   3.182   3.260 -3.9119  1.3527  0.3526
15041TIP3   OH266537   1.462   2.935  11.076 -0.3539 -0.0739  0.4300
15041TIP3    H166538   1.547   2.914  11.114 -1.4246 -0.1483  2.8420
15041TIP3    H266539   1.450   3.028  11.094 -2.0856 -0.7196  2.7807
15042TIP3   OH266540   4.754   0.703   1.485  0.4009 -0.2711  0.1217
15042TIP3    H166541   4.662   0.700   1.511  0.3084 -0.6810 -0.2598
15042TIP3    H266542   4.788   0.616   1.506  0.5057 -0.3737 -0.4609
15043TIP3   OH266543   6.236   3.678   5.668 -0.2077  0.2301 -0.3922
15043TIP3    H166544   6.309   3.638   5.716 -0.4619  2.0696  1.6347
15043TIP3    H266545   6.158   3.650   5.716 -0.4693  2.0946  0.3016
15044TIP3   OH266546   3.743   6.443  11.614  0.0695  0.4603  0.3614
15044TIP3    H166547   3.726   6.374  11.550 -1.7513  0.8421  0.3942
15044TIP3    H266548   3.719   6.404  11.698  0.5232  0.6189  0.5623
15045TIP3   OH266549   0.161   1.518   1.774 -0.0154 -0.3165  0.4550
15045TIP3    H166550   0.102   1.574   1.825 -1.7408 -1.7621  0.1224
15045TIP3    H266551   0.102   1.458   1.728  1.6965 -1.2211 -0.6047
15046TIP3   OH266552   4.954   5.920  16.171  0.0899  0.0979 -0.0019
15046TIP3    H166553   4.918   5.844  16.125  0.7114 -0.6810  0.7844
15046TIP3    H266554   5.047   5.921  16.148  0.1853  0.3268  0.3777
15047TIP3   OH266555   1.916   1.829   2.252  0.2830  0.2432  0.3862
15047TIP3    H166556   1.942   1.902   2.307  1.6179  0.6946 -0.8123
15047TIP3    H266557   1.852   1.867   2.190  0.2182  0.1659  0.4053
15048TIP3   OH266558   1.482   4.496  16.180 -0.0708 -0.4128  0.7922
15048TIP3    H166559   1.476   4.503  16.275 -1.3739  0.0140  0.6838
15048TIP3    H266560   1.561   4.444  16.165 -0.6621 -1.7363  2.1476
15049TIP3   OH266561   3.095   2.063  11.492  0.3037  0.3879 -0.0832
15049TIP3    H166562   3.113   1.975  11.461 -2.5375 -0.8665  1.6598
15049TIP3    H266563   3.000   2.073  11.482  0.5559  3.1760 -0.0602
15050TIP3   OH266564   0.698   5.420  16.509 -0.4613  0.3353  0.1621
15050TIP3    H166565   0.742   5.505  16.512 -1.6438  0.9748 -0.0473
15050TIP3    H266566   0.698   5.390  16.599  0.8422  0.0902  0.0875
15051TIP3   OH266567   3.156   1.931   0.992  0.3466  0.2754  0.1700
15051TIP3    H166568   3.249   1.927   1.015  0.3338  0.5974  0.2912
15051TIP3    H266569   3.116   1.980   1.065  0.4677  2.2209 -1.0465
15052TIP3   OH266570   2.768   6.029   1.256 -0.0068 -0.4060 -0.5800
15052TIP3    H166571   2.800   6.079   1.182  0.3940 -1.2644 -0.9958
15052TIP3    H266572   2.690   5.984   1.224 -2.5687  2.7984  0.8311
15053TIP3   OH266573   2.090   5.407  11.629  0.0658  0.2057  0.6366
15053TIP3    H166574   2.123   5.325  11.666  1.7511  1.1525  1.2588
15053TIP3    H266575   2.100   5.397  11.535  2.7268  0.7113  0.8356
15054TIP3   OH266576   1.292   1.955  11.546  0.4441 -0.3383  0.6351
15054TIP3    H166577   1.378   1.915  11.555  0.8777  0.6543  0.9538
15054TIP3    H266578   1.275   1.954  11.452  0.5415 -1.0869  0.6275
15055TIP3   OH266579   2.051   2.691  13.854 -0.7209 -0.3059 -0.1024
15055TIP3    H166580   2.130   2.744  13.848 -1.2533  0.3954 -1.1468
15055TIP3    H266581   2.083   2.601  13.861  0.1801  0.0907  0.9585
15056TIP3   OH266582   0.804   5.583  11.040  0.4750 -0.0504 -0.0466
15056TIP3    H166583   0.802   5.549  11.129  2.4021  0.1040  0.0833
15056TIP3    H266584   0.843   5.513  10.988  0.0937  0.1583 -0.6188
15057TIP3   OH266585   4.510   0.219   4.463 -0.6460  0.6423  0.0026
15057TIP3    H166586   4.545   0.235   4.551  0.6614  0.0451 -0.3935
15057TIP3    H266587   4.479   0.304   4.433 -0.4874  0.9786  0.7823
15058TIP3   OH266588   4.253   5.609   2.417 -0.4464 -0.6490  0.2279
15058TIP3    H166589   4.238   5.579   2.327 -0.2788  0.4905 -0.1881
15058TIP3    H266590   4.165   5.624   2.452 -0.4743  1.3791 -0.6139
15059TIP3   OH266591   6.747   5.357  16.525 -0.6451 -0.4846 -0.5686
15059TIP3    H166592   6.799   5.402  16.459 -0.1526 -0.6958 -0.3237
15059TIP3    H266593   6.774   5.266  16.519 -0.1397 -0.3984  0.3588
15060TIP3   OH266594   0.897   4.842  14.168  0.6788  0.1745 -1.0375
15060TIP3    H166595   0.991   4.838  14.148  0.6642 -0.8941 -0.9093
15060TIP3    H266596   0.865   4.754  14.149 -0.1740  0.3547 -0.4334
15061TIP3   OH266597   2.181   0.908  12.167  0.0161  0.3800  0.4466
15061TIP3    H166598   2.118   0.866  12.225 -0.6866  1.3185  0.3612
15061TIP3    H266599   2.169   0.864  12.083 -0.9047  0.9276  0.2894
15062TIP3   OH266600   3.187   2.302  16.009 -0.6201  0.4849  0.0611
15062TIP3    H166601   3.234   2.220  15.994  3.7881  2.3905  2.5196
15062TIP3    H266602   3.118   2.279  16.072  2.3791 -0.8734  2.9838
15063TIP3   OH266603   6.157   2.256   3.092 -0.2016  0.7812  0.4466
15063TIP3    H166604   6.176   2.289   3.004  0.3425  1.3979  0.7923
15063TIP3    H266605   6.066   2.228   3.088  0.4084 -1.1794 -0.9196
15064TIP3   OH266606   0.084   6.058   3.167  0.0096  0.2670  0.1465
15064TIP3    H166607   0.156   6.106   3.125 -0.9956  0.3234 -1.5578
15064TIP3    H266608   0.012   6.064   3.105 -0.6237 -2.1331  0.5879
15065TIP3   OH266609   2.343   0.925   5.311  0.1336  0.3746 -0.2837
15065TIP3    H166610   2.314   0.876   5.387 -1.6258  0.9301 -0.5848
15065TIP3    H266611   2.431   0.892   5.293  0.4226 -0.0014  1.7698
15066TIP3   OH266612   0.440   5.621   5.459 -0.1577  1.0781  0.6975
15066TIP3    H166613   0.374   5.670   5.410 -1.1841  1.3113  2.2687
15066TIP3    H266614   0.427   5.647   5.550 -0.6505 -1.9851  1.5802
15067TIP3   OH266615   5.212   6.376   0.431  0.2843 -0.3001  0.2492
15067TIP3    H166616   5.160   6.299   0.411 -0.4889  0.1308  0.5998
15067TIP3    H266617   5.186   6.440   0.364 -0.0642  0.1106  0.7788
15068TIP3   OH266618   5.109   3.367   5.112 -0.3071  0.2417  0.1520
15068TIP3    H166619   5.130   3.279   5.081 -2.1822 -0.3491  0.4859
15068TIP3    H266620   5.081   3.355   5.202  2.1049  1.5695  1.1303
15069TIP3   OH266621   0.988   4.783  11.228 -0.1547 -0.4208 -0.1032
15069TIP3    H166622   0.936   4.757  11.152 -0.9658  1.1605 -0.1184
15069TIP3    H266623   0.928   4.838  11.279  1.3196  0.9259  0.1961
15070TIP3   OH266624   3.428   3.359  13.592 -0.5079  0.6246  0.0412
15070TIP3    H166625   3.426   3.298  13.666 -1.9386 -1.0932 -1.3708
15070TIP3    H266626   3.447   3.304  13.516 -3.8189  1.5788 -1.5815
15071TIP3   OH266627   1.829   3.329  14.600 -0.2435  0.6837 -0.0633
15071TIP3    H166628   1.842   3.423  14.614  0.3048  0.7644 -1.0380
15071TIP3    H266629   1.760   3.325  14.533 -1.5301  0.3485  1.2483
15072TIP3   OH266630   0.883   1.942  16.851  0.2955 -0.2656 -0.6019
15072TIP3    H166631   0.790   1.930  16.831  0.0762 -0.0948  0.3266
15072TIP3    H266632   0.926   1.867  16.808  0.0549  1.0889 -3.3172
15073TIP3   OH266633   3.854   4.104   1.361  0.4258  0.6241  0.6581
15073TIP3    H166634   3.912   4.057   1.301  0.6300 -0.2272  1.5172
15073TIP3    H266635   3.892   4.192   1.367  1.1127  0.3371  0.5172
15074TIP3   OH266636   0.953   0.316   2.012 -0.0471  0.8076 -0.3038
15074TIP3    H166637   0.979   0.334   2.102 -1.3776  2.9631 -0.3253
15074TIP3    H266638   0.882   0.251   2.020  0.2392  0.5488  0.1603
15075TIP3   OH266639   3.189   5.984   3.590  0.0522 -0.1960  0.4547
15075TIP3    H166640   3.268   6.038   3.592  0.5646 -0.9561  1.0600
15075TIP3    H266641   3.171   5.970   3.497  0.5282  0.1088  0.3172
15076TIP3   OH266642   0.747   2.679   0.608 -0.4714  0.2459 -0.0817
15076TIP3    H166643   0.683   2.695   0.538 -0.7517  1.0564  0.3548
15076TIP3    H266644   0.699   2.630   0.674 -1.0113  1.9028  0.7974
15077TIP3   OH266645   2.576   1.023  12.431  0.2793 -0.4065 -0.7607
15077TIP3    H166646   2.483   1.040  12.414  0.1063  0.7927  1.2246
15077TIP3    H266647   2.622   1.085  12.375 -0.1329 -0.0249 -0.6773
15078TIP3   OH266648   0.670   6.674  11.561 -0.4547  0.0182 -0.1716
15078TIP3    H166649   0.619   6.740  11.515  1.2182 -0.8493 -3.4600
15078TIP3    H266650   0.761   6.697  11.541  0.3356 -0.5714  2.5523
15079TIP3   OH266651   5.318   3.156  12.785  0.3968  0.0991 -0.4046
15079TIP3    H166652   5.393   3.172  12.727  1.0538 -1.9830 -0.1562
15079TIP3    H266653   5.344   3.080  12.838 -1.0864  0.6017  1.0880
15080TIP3   OH266654   5.393   5.522   2.573  0.1556 -0.5584 -0.3653
15080TIP3    H166655   5.329   5.576   2.526  0.5158  0.0116 -0.2043
15080TIP3    H266656   5.441   5.477   2.503  0.4192 -0.0255 -0.5255
15081TIP3   OH266657   6.753   6.398  16.675 -0.2354  0.0918  0.3519
15081TIP3    H166658   6.732   6.312  16.713 -1.3599  0.2470  0.0752
15081TIP3    H266659   6.673   6.448  16.683  0.2247  0.9070 -0.1140
15082TIP3   OH266660   3.934   6.094   1.070 -0.3395 -0.2061 -0.2802
15082TIP3    H166661   3.996   6.051   1.010  4.4156  2.1363  2.6411
15082TIP3    H266662   3.937   6.186   1.046 -0.0171  0.4469  2.1307
15083TIP3   OH266663   6.262   1.835   2.130 -0.6045  0.2419 -0.3643
15083TIP3    H166664   6.277   1.789   2.048  0.4154 -1.3709  0.7083
15083TIP3    H266665   6.176   1.805   2.160 -0.5753  0.1452 -0.3791
15084TIP3   OH266666   3.515   4.360   6.228  0.1546  0.4663  0.4566
15084TIP3    H166667   3.525   4.424   6.298 -3.0272  0.8954  0.5668
15084TIP3    H266668   3.454   4.295   6.263  0.6485 -0.7884 -0.9383
15085TIP3   OH266669   3.674   5.992   1.077 -0.3844 -0.6075 -0.2034
15085TIP3    H166670   3.641   6.052   1.009  0.3903 -0.9064 -0.8506
15085TIP3    H266671   3.762   6.025   1.096 -0.0013 -1.4760 -0.4779
15086TIP3   OH266672   0.873   2.048   4.020 -0.3509 -0.0187  0.1272
15086TIP3    H166673   0.918   2.125   3.985 -0.2693  0.1211  0.5375
15086TIP3    H266674   0.939   2.003   4.073 -1.2603  1.2976  2.4190
15087TIP3   OH266675   2.406   1.385  12.530  0.0155  0.5315 -0.0664
15087TIP3    H166676   2.394   1.355  12.439 -0.1590  1.4278 -0.3430
15087TIP3    H266677   2.330   1.352  12.576 -0.4452  0.9865 -0.4882
15088TIP3   OH266678   1.534   0.346   6.043 -0.7418  0.2383  0.0582
15088TIP3    H166679   1.591   0.276   6.074 -1.5537  0.3421  1.8013
15088TIP3    H266680   1.580   0.427   6.066 -0.8386  0.3077  0.0100
15089TIP3   OH266681   5.548   0.801   3.593  0.6332  0.2974 -0.0104
15089TIP3    H166682   5.540   0.830   3.502  1.8451  3.6774  0.8650
15089TIP3    H266683   5.460   0.811   3.630  0.4576  0.3607 -0.4453
15090TIP3   OH266684   4.328   1.613   5.933 -0.2677 -0.0034 -0.2969
15090TIP3    H166685   4.393   1.605   6.003 -1.4765  0.1474  0.8570
15090TIP3    H266686   4.343   1.701   5.898  0.9233 -0.4035 -0.8285
15091TIP3   OH266687   4.304   1.225  14.927 -0.4521 -0.1709 -0.0842
15091TIP3    H166688   4.243   1.154  14.949  0.2247 -0.4677  0.8745
15091TIP3    H266689   4.248   1.295  14.894 -1.2611 -0.6585  0.2293
15092TIP3   OH266690   3.231   5.930   1.172  0.9854 -0.3162  0.2910
15092TIP3    H166691   3.178   5.878   1.232 -0.0963 -0.5758 -0.8617
15092TIP3    H266692   3.317   5.934   1.213  0.5715 -1.4395  1.2938
15093TIP3   OH266693   4.035   4.855   0.681 -0.8190  0.2695  0.0638
15093TIP3    H166694   4.129   4.848   0.692 -0.6441  1.7694 -0.2528
15093TIP3    H266695   3.999   4.772   0.713  0.6211 -0.4079 -0.0731
15094TIP3   OH266696   1.143   6.489   2.128  0.3833 -0.4889 -0.5876
15094TIP3    H166697   1.227   6.443   2.125  0.6668 -0.1378  1.2474
15094TIP3    H266698   1.089   6.444   2.064  0.8438 -3.0246  0.7374
15095TIP3   OH266699   1.935   5.088  13.281  0.2087 -0.0650 -0.4768
15095TIP3    H166700   2.022   5.048  13.286  0.6716  1.0739  1.2214
15095TIP3    H266701   1.917   5.117  13.371 -1.9816 -0.3912 -0.7697
15096TIP3   OH266702   3.888   5.837  16.935 -0.5267 -0.3714 -0.4514
15096TIP3    H166703   3.903   5.764  16.996  2.3337  0.0878 -0.5323
15096TIP3    H266704   3.834   5.899  16.985 -0.4538 -1.1944  0.6738
15097TIP3   OH266705   6.061   1.884  16.378  0.7788 -0.0324 -0.1422
15097TIP3    H166706   6.066   1.864  16.472  0.3345 -0.4193 -0.2038
15097TIP3    H266707   6.129   1.829  16.339  0.3740 -0.5290 -0.1554
15098TIP3   OH266708   3.065   2.835  12.252  0.0703  0.0447 -0.6798
15098TIP3    H166709   3.076   2.794  12.166 -0.6219 -0.9630 -0.2878
15098TIP3    H266710   2.971   2.834  12.267  0.3352 -1.8410  1.0706
15099TIP3   OH266711   1.957   6.306   5.439  0.7189  0.6332 -0.1625
15099TIP3    H166712   1.889   6.238   5.441  0.7033  0.6562  0.1802
15099TIP3    H266713   1.938   6.360   5.516  1.0262  0.7382 -0.1607
15100TIP3   OH266714   6.464   5.916   0.380 -0.4448 -0.0883 -0.3397
15100TIP3    H166715   6.502   5.916   0.292 -1.6846  0.0098 -0.8875
15100TIP3    H266716   6.424   6.002   0.388  0.5938  0.3051  0.7443
15101TIP3   OH266717   3.486   2.649   0.507 -0.0125  0.4400  0.5446
15101TIP3    H166718   3.398   2.617   0.528 -0.2008  0.5534 -0.0468
15101TIP3    H266719   3.545   2.584   0.546 -0.3858 -0.3954 -0.2595
15102TIP3   OH266720   1.580   4.873   0.447 -0.3253  0.2216  0.5873
15102TIP3    H166721   1.522   4.932   0.497  1.2050  0.9541  1.5380
15102TIP3    H266722   1.613   4.928   0.375  0.0269  0.1297  0.6774
15103TIP3   OH266723   3.485   3.611  11.216 -0.5151  0.2749 -0.2290
15103TIP3    H166724   3.521   3.694  11.185  0.0106  0.3563  0.5914
15103TIP3    H266725   3.483   3.620  11.311  0.0467 -0.8562 -0.1012
15104TIP3   OH266726   4.825   4.318   4.632 -0.0805  0.4598  0.2495
15104TIP3    H166727   4.731   4.312   4.614  0.0095 -1.5658  0.3400
15104TIP3    H266728   4.859   4.375   4.563 -0.6926 -2.4137 -2.5512
15105TIP3   OH266729   4.534   4.563  15.622 -0.0496 -0.6779  0.1557
15105TIP3    H166730   4.469   4.566  15.691  0.3509  1.4620  0.4730
15105TIP3    H266731   4.495   4.508  15.554 -1.8847 -0.0074  0.6384
15106TIP3   OH266732   0.010   2.093   1.763  0.2149 -0.5170 -0.6217
15106TIP3    H166733  -0.054   2.025   1.780  0.0923 -0.3259 -0.3141
15106TIP3    H266734   0.093   2.046   1.753  0.0180 -0.7669 -1.0811
15107TIP3   OH266735   0.706   1.758  11.893 -0.5399  0.3773  0.0814
15107TIP3    H166736   0.628   1.786  11.845  0.2020  0.6798 -0.9658
15107TIP3    H266737   0.767   1.831  11.884  0.4758 -0.5268 -0.5438
15108TIP3   OH266738   0.750   5.592  12.229  0.2953  0.0004 -0.1746
15108TIP3    H166739   0.808   5.591  12.304 -0.6257 -0.6337  0.5496
15108TIP3    H266740   0.662   5.580  12.266 -0.1780 -0.2600 -1.3351
15109TIP3   OH266741   3.965   5.750   3.172  0.3990 -0.2220  0.0550
15109TIP3    H166742   3.967   5.721   3.263 -1.2444 -2.0217 -0.4584
15109TIP3    H266743   3.923   5.836   3.174 -1.2295 -1.0267  0.8109
15110TIP3   OH266744   1.550   0.889  15.047  0.0671  0.4362  0.1186
15110TIP3    H166745   1.618   0.870  15.112  1.9897  1.0402 -1.6520
15110TIP3    H266746   1.542   0.984  15.047 -0.6917  0.3751  0.2267
15111TIP3   OH266747   2.976   3.918  11.817 -0.2420 -0.4318  0.3474
15111TIP3    H166748   2.940   4.006  11.809  1.2392  0.3245  1.7261
15111TIP3    H266749   2.925   3.878  11.887  0.1534 -0.0907  0.8391
15112TIP3   OH266750   3.860   5.028  15.555  0.0834  0.6584 -0.5716
15112TIP3    H166751   3.909   5.106  15.528 -0.2489  1.0552 -0.0282
15112TIP3    H266752   3.897   5.004  15.639  1.3490 -0.7813 -1.5087
15113TIP3   OH266753   2.001   3.731  14.987 -0.9986 -0.6817  0.3262
15113TIP3    H166754   1.970   3.668  15.052 -0.0196 -1.0786  0.4092
15113TIP3    H266755   1.958   3.813  15.011 -1.1604 -0.9811  1.0759
15114TIP3   OH266756   4.268   2.402   0.844 -0.9276  0.1084 -0.5516
15114TIP3    H166757   4.321   2.448   0.779 -0.1938 -0.2240 -0.1924
15114TIP3    H266758   4.330   2.345   0.890 -1.9757 -1.8742 -1.5457
15115TIP3   OH266759   2.248   1.409  13.268 -0.1285  0.4216  0.1647
15115TIP3    H166760   2.259   1.495  13.229  0.8427 -0.0161 -0.5620
15115TIP3    H266761   2.334   1.367  13.257 -0.1080 -0.0421  1.9659
15116TIP3   OH266762   3.260   0.726   3.937  0.2265  0.4052  0.1077
15116TIP3    H166763   3.298   0.813   3.922  3.1063 -0.7266  0.5454
15116TIP3    H266764   3.305   0.693   4.014 -0.3620 -1.7576 -0.4360
15117TIP3   OH266765   1.776   6.637  14.341 -0.0170  0.8313 -0.1414
15117TIP3    H166766   1.786   6.628  14.436  1.9027  1.5938 -0.2472
15117TIP3    H266767   1.850   6.588  14.305 -0.1511  1.4035 -1.2103
15118TIP3   OH266768   4.322   0.879  12.021 -0.3427 -0.1766 -0.4988
15118TIP3    H166769   4.339   0.785  12.030 -0.7184 -0.3253 -1.3381
15118TIP3    H266770   4.353   0.901  11.933  0.1816  0.5874 -0.1273
15119TIP3   OH266771   1.151   2.819  12.492  0.3933  0.2112  0.2866
15119TIP3    H166772   1.075   2.877  12.485  0.4710  0.4265  1.2521
15119TIP3    H266773   1.120   2.744  12.542  0.5630 -0.1484 -0.1403
15120TIP3   OH266774   4.347   3.526   4.101  0.1903  0.5202 -0.2897
15120TIP3    H166775   4.383   3.613   4.119 -1.6913  1.4192 -0.6489
15120TIP3    H266776   4.306   3.535   4.015 -0.2256 -0.6628 -0.2213
15121TIP3   OH266777   4.485   5.824   4.232 -0.8703  0.4555  0.3675
15121TIP3    H166778   4.460   5.760   4.165 -3.4236 -0.4922  2.1313
15121TIP3    H266779   4.518   5.771   4.305  1.2684  1.4346  0.1403
15122TIP3   OH266780   4.853   4.737  11.247 -0.2527 -0.2212 -0.5201
15122TIP3    H166781   4.822   4.762  11.335  0.2164  0.4212 -0.5304
15122TIP3    H266782   4.781   4.763  11.189  0.0539  0.7390 -0.4826
15123TIP3   OH266783   4.901   4.504  16.275 -0.3900  0.1114  0.2830
15123TIP3    H166784   4.943   4.456  16.203  0.5398 -0.9159  1.4773
15123TIP3    H266785   4.947   4.474  16.353 -0.9101  1.7544  1.2347
15124TIP3   OH266786   1.656   6.559  11.006  0.4108 -0.0933  0.2324
15124TIP3    H166787   1.685   6.544  10.916 -0.4824 -1.7125  0.1800
15124TIP3    H266788   1.563   6.534  11.006 -0.5448  3.2401  0.8009
15125TIP3   OH266789   6.456   0.719  13.882  0.0829 -0.1386 -0.2783
15125TIP3    H166790   6.529   0.698  13.824  1.3047  0.2309  1.0902
15125TIP3    H266791   6.387   0.656  13.858  1.0505 -0.8632 -1.1981
15126TIP3   OH266792   5.694   2.905   6.152 -0.3768  0.3563  0.0065
15126TIP3    H166793   5.782   2.918   6.187  1.0152  1.4362 -3.6553
15126TIP3    H266794   5.698   2.822   6.105 -1.4733  0.1221  0.3049
15127TIP3   OH266795   6.281   1.109   3.935  0.3210  0.4909  0.2061
15127TIP3    H166796   6.313   1.194   3.907 -1.3722  1.3377  0.8121
15127TIP3    H266797   6.264   1.118   4.029  0.4937 -0.6262  0.3584
15128TIP3   OH266798   2.037   2.255   2.253 -0.1608  0.6817 -0.5713
15128TIP3    H166799   2.118   2.304   2.238  0.9402 -0.1141  2.3776
15128TIP3    H266800   1.985   2.311   2.311  0.0873 -0.5615  0.8882
15129TIP3   OH266801   0.419   0.480   3.137  0.1222  0.1771 -0.2694
15129TIP3    H166802   0.443   0.486   3.230  1.6574  0.4554 -0.6708
15129TIP3    H266803   0.372   0.561   3.119 -1.4293 -0.4928  0.5960
15130TIP3   OH266804   1.257   6.768   1.119  0.2414  0.5851 -0.1099
15130TIP3    H166805   1.257   6.861   1.098 -0.6974  1.0194  1.6986
15130TIP3    H266806   1.346   6.750   1.150  0.4443  0.8456 -0.5337
15131TIP3   OH266807   6.544   3.842   4.652 -0.2386 -0.1604 -0.1260
15131TIP3    H166808   6.590   3.827   4.569 -0.8312 -1.7406 -0.1759
15131TIP3    H266809   6.614   3.845   4.717 -0.0696 -2.9225 -0.1568
15132TIP3   OH266810   5.495   5.468  15.951  0.1788  0.0094  0.0995
15132TIP3    H166811   5.480   5.405  16.021 -0.5761 -1.8497 -1.6976
15132TIP3    H266812   5.432   5.538  15.967 -0.3551 -0.6666  0.9503
15133TIP3   OH266813   1.744   1.985   1.946  0.0105  0.2110 -0.4137
15133TIP3    H166814   1.754   1.988   1.851  0.2318 -0.7953 -0.4311
15133TIP3    H266815   1.826   2.022   1.980  0.2358 -0.0991 -0.6146
15134TIP3   OH266816   1.299   2.571   3.411 -0.0204  0.3086  0.4391
15134TIP3    H166817   1.388   2.580   3.378  0.8969 -0.0573  2.7037
15134TIP3    H266818   1.277   2.479   3.397  0.1588  0.2820  0.3366
15135TIP3   OH266819   5.597   6.264  15.355 -0.0306 -0.4544  0.1745
15135TIP3    H166820   5.526   6.234  15.298 -0.6057  0.2117  0.5330
15135TIP3    H266821   5.669   6.204  15.337 -0.2261 -0.2915 -1.2139
15136TIP3   OH266822   1.635   4.501  14.224  0.2855 -0.0891  0.4812
15136TIP3    H166823   1.682   4.477  14.303 -0.4698  1.4914  1.4350
15136TIP3    H266824   1.691   4.565  14.181 -1.4353  2.6157  2.1731
15137TIP3   OH266825   1.766   2.454  16.369  0.2592 -0.3738  0.6466
15137TIP3    H166826   1.691   2.482  16.316  2.4775  1.5404 -1.6123
15137TIP3    H266827   1.787   2.531  16.422  1.8196 -0.2165 -0.1752
15138TIP3   OH266828   4.026   2.481   2.103 -0.1895  0.2005  0.1595
15138TIP3    H166829   3.947   2.505   2.055 -0.2640 -0.3743 -0.0131
15138TIP3    H266830   4.085   2.447   2.036 -0.3025 -0.6272  0.4608
15139TIP3   OH266831   0.612   3.363   4.761 -0.3079 -0.1483 -0.2052
15139TIP3    H166832   0.551   3.331   4.828 -2.3359 -0.7870 -2.2957
15139TIP3    H266833   0.682   3.297   4.758 -2.1844 -2.1623 -1.3689
15140TIP3   OH266834   1.362   0.628  13.447  0.5470 -0.2317 -0.0611
15140TIP3    H166835   1.334   0.675  13.525 -0.8209 -0.3393 -0.4838
15140TIP3    H266836   1.378   0.697  13.382 -0.7684 -0.3038 -0.4623
15141TIP3   OH266837   3.333   2.437  17.042 -0.7123  0.0206  0.5054
15141TIP3    H166838   3.352   2.517  17.091  0.1798  1.0722 -1.4899
15141TIP3    H266839   3.339   2.367  17.107 -1.9415  1.6082  2.3685
15142TIP3   OH266840   1.003   1.416  16.827 -0.2761 -0.4316 -0.4392
15142TIP3    H166841   1.042   1.329  16.814  0.5975 -0.0227 -0.5952
15142TIP3    H266842   0.910   1.403  16.808 -0.1803 -1.3647 -0.3247
15143TIP3   OH266843   5.125   4.143   4.623 -0.7126 -0.6335 -0.7020
15143TIP3    H166844   5.093   4.056   4.648 -0.5752 -0.1844  1.1354
15143TIP3    H266845   5.209   4.127   4.581  1.0980 -1.1871  2.9242
15144TIP3   OH266846   6.764   4.755  14.821  0.4634  0.2645  0.2143
15144TIP3    H166847   6.794   4.771  14.910 -2.1245  1.4362  0.9545
15144TIP3    H266848   6.753   4.843  14.783  0.8835 -0.1995 -1.0255
15145TIP3   OH266849   6.499   6.519  16.634  0.2120  0.0380 -0.2467
15145TIP3    H166850   6.405   6.520  16.613  0.5013  0.6234 -1.5596
15145TIP3    H266851   6.542   6.522  16.549  1.4341 -1.1673  0.3241
15146TIP3   OH266852   1.860   4.348   1.897  0.3397  0.2037  0.0527
15146TIP3    H166853   1.918   4.319   1.827  0.1537 -2.0413  0.7806
15146TIP3    H266854   1.909   4.416   1.943  1.0990  0.5693 -1.2791
15147TIP3   OH266855   2.838   2.523  13.308 -0.2264 -0.1739 -0.5320
15147TIP3    H166856   2.910   2.564  13.356 -0.2265  0.3827 -1.0122
15147TIP3    H266857   2.767   2.516  13.373  0.8090 -2.2610  0.4149
15148TIP3   OH266858   4.567   5.566   5.841  0.4016  0.2158 -0.1531
15148TIP3    H166859   4.553   5.652   5.880  0.3852  0.6275 -1.0544
15148TIP3    H266860   4.600   5.585   5.753  0.5217 -0.6969 -0.3073
15149TIP3   OH266861   1.394   5.324   0.612  0.5324  0.2359  0.0736
15149TIP3    H166862   1.332   5.387   0.648  2.4706  1.5807  1.1429
15149TIP3    H266863   1.468   5.377   0.581  2.1354 -1.4829  0.8462
15150TIP3   OH266864   1.885   6.177  17.085 -0.0236 -0.0929 -0.2391
15150TIP3    H166865   1.817   6.124  17.043  1.2562 -1.0673 -1.1103
15150TIP3    H266866   1.921   6.120  17.153 -0.6759  0.7442  0.8208
15151TIP3   OH266867   5.061   1.172   1.872 -0.3991 -0.6506  0.3407
15151TIP3    H166868   5.007   1.237   1.917  0.4469  0.4547 -0.2162
15151TIP3    H266869   5.025   1.168   1.784  0.3515  0.0351 -0.0109
15152TIP3   OH266870   6.451   6.294   3.138 -0.7691  0.3856  0.3506
15152TIP3    H166871   6.392   6.223   3.164 -0.1397 -0.6568 -1.0133
15152TIP3    H266872   6.536   6.252   3.129 -0.2951  1.4205 -0.0228
15153TIP3   OH266873   1.199   2.772  12.062 -0.1080 -0.4773 -0.0410
15153TIP3    H166874   1.266   2.772  12.130  0.4967 -2.3006 -0.6195
15153TIP3    H266875   1.225   2.702  12.003 -0.8178  0.8354 -1.9757
15154TIP3   OH266876   0.019   1.391   1.354 -0.9073 -0.5485 -0.7492
15154TIP3    H166877  -0.008   1.470   1.401 -0.4273 -0.3577 -0.7948
15154TIP3    H266878   0.039   1.422   1.266  1.0855 -0.4032 -0.2693
15155TIP3   OH266879   3.178   2.411  14.574  0.3036 -0.3274  0.1397
15155TIP3    H166880   3.089   2.401  14.610 -0.4366 -0.5442 -1.6769
15155TIP3    H266881   3.167   2.469  14.499  1.9420  0.7080  0.6712
15156TIP3   OH266882   1.118   3.079   0.332 -0.1227 -0.4810  0.7741
15156TIP3    H166883   1.193   3.049   0.383  0.7989 -0.4174 -0.5256
15156TIP3    H266884   1.128   3.035   0.247 -1.6591 -0.6271  0.6618
15157TIP3   OH266885   5.804   3.686  14.572 -0.1523 -0.0398 -0.4866
15157TIP3    H166886   5.719   3.721  14.597  0.0389 -0.8206  1.2820
15157TIP3    H266887   5.808   3.700  14.477 -2.1891  0.1244 -0.5755
15158TIP3   OH266888   5.392   1.264   5.499  0.1088  0.9764  0.0251
15158TIP3    H166889   5.445   1.305   5.431  0.9357  1.0871  0.7198
15158TIP3    H266890   5.451   1.199   5.538 -0.7791  0.0172 -0.2298
15159TIP3   OH266891   0.483   2.101   1.673 -0.2717  0.1775 -0.7491
15159TIP3    H166892   0.471   2.095   1.579  1.9038 -3.2319 -0.8960
15159TIP3    H266893   0.576   2.120   1.685 -0.2924 -0.5348  0.7187
15160TIP3   OH266894   0.066   3.075  15.536 -0.4025  0.1569 -0.4599
15160TIP3    H166895   0.020   3.001  15.497 -0.2165  0.6218 -1.5745
15160TIP3    H266896  -0.004   3.129  15.573 -0.7594  0.7574 -1.9667
15161TIP3   OH266897   6.744   6.042  10.571 -0.9261 -0.3341 -0.5257
15161TIP3    H166898   6.801   5.980  10.526  0.6502  0.0036  0.9504
15161TIP3    H266899   6.666   6.047  10.516 -0.2796 -2.1634 -1.6518
15162TIP3   OH266900   0.388   1.361  11.754  0.1705 -0.7508 -0.4924
15162TIP3    H166901   0.348   1.427  11.810 -0.1077 -0.0838 -1.4751
15162TIP3    H266902   0.332   1.284  11.763 -0.3260 -0.3894 -0.4737
15163TIP3   OH266903   5.405   2.637   3.484  0.7048  0.2444 -0.2063
15163TIP3    H166904   5.414   2.679   3.569  2.7527  1.0365 -0.7771
15163TIP3    H266905   5.352   2.697   3.432  1.1888  0.7401 -0.1253
15164TIP3   OH266906   4.890   1.540  12.001  0.2175 -0.8435  0.5469
15164TIP3    H166907   4.862   1.594  12.075 -0.6756 -0.8323  0.2063
15164TIP3    H266908   4.923   1.460  12.041 -0.1998 -0.8127  0.9572
15165TIP3   OH266909   4.573   6.347   4.053  0.4742  0.6006  0.3997
15165TIP3    H166910   4.600   6.351   3.961 -1.7742 -0.9708 -0.3652
15165TIP3    H266911   4.519   6.426   4.066 -0.3704  0.0970 -0.0286
15166TIP3   OH266912   3.650   2.432   0.221  0.6089 -0.0508 -0.1679
15166TIP3    H166913   3.669   2.474   0.138  1.5493 -1.0213 -0.4595
15166TIP3    H266914   3.733   2.432   0.268  0.8923 -2.4321 -0.5899
15167TIP3   OH266915   5.808   6.235   1.715 -0.4003 -0.0123  0.4309
15167TIP3    H166916   5.768   6.203   1.634 -0.1335 -1.6736  0.9372
15167TIP3    H266917   5.895   6.265   1.687 -0.7465  0.5314 -0.0917
15168TIP3   OH266918   5.482   6.358   3.012  0.8791 -0.2200 -0.5318
15168TIP3    H166919   5.483   6.263   3.002  0.8506 -0.4052  1.1502
15168TIP3    H266920   5.546   6.376   3.081 -1.3681  0.6988  1.3942
15169TIP3   OH266921   3.740   3.738   2.142  0.3167 -0.0157 -0.4120
15169TIP3    H166922   3.687   3.671   2.099 -0.4202  0.5616 -0.4136
15169TIP3    H266923   3.771   3.794   2.070 -2.3245  1.9666 -0.1014
15170TIP3   OH266924   5.534   5.691   1.766 -0.1848  0.1786 -0.3650
15170TIP3    H166925   5.509   5.611   1.812  1.3879  0.5375  1.1476
15170TIP3    H266926   5.458   5.712   1.712 -1.0267 -1.7305  0.0400
15171TIP3   OH266927   3.296   1.575  12.428 -0.5820  0.2642  0.2929
15171TIP3    H166928   3.262   1.553  12.514 -1.8069 -1.0732 -0.5113
15171TIP3    H266929   3.251   1.656  12.404  0.8643  1.4610  1.5113
15172TIP3   OH266930   0.362   4.512  14.053 -0.2491  0.0608  0.7751
15172TIP3    H166931   0.405   4.459  13.986 -0.5019  0.9523 -0.1005
15172TIP3    H266932   0.398   4.599  14.041 -1.1856  0.4875  1.0048
15173TIP3   OH266933   1.242   4.337  14.530  0.0069  0.1275  0.4699
15173TIP3    H166934   1.146   4.337  14.535  0.0039  0.3086  0.4244
15173TIP3    H266935   1.261   4.348  14.437  0.0728  0.9286  0.5711
15174TIP3   OH266936   0.388   5.804   4.439  0.3156 -0.2622  0.8359
15174TIP3    H166937   0.457   5.817   4.504  0.0076  0.7950  0.9603
15174TIP3    H266938   0.395   5.712   4.415  2.4356  0.0588  0.1103
15175TIP3   OH266939   2.666   4.396  15.542 -0.3213 -0.3882 -0.3021
15175TIP3    H166940   2.590   4.403  15.484 -2.3237 -0.4687  2.2473
15175TIP3    H266941   2.677   4.301  15.555  0.3343 -0.3836 -0.7396
15176TIP3   OH266942   3.520   0.709   1.367  0.1127 -0.3748  0.4134
15176TIP3    H166943   3.461   0.752   1.429 -0.2404  1.7776 -1.3725
15176TIP3    H266944   3.472   0.631   1.339 -2.2562  1.7458 -1.6018
15177TIP3   OH266945   4.891   0.584  11.542  0.0366 -0.2775 -0.3876
15177TIP3    H166946   4.874   0.490  11.532 -1.7458  0.2362 -2.6436
15177TIP3    H266947   4.952   0.604  11.471 -2.3485  0.8999 -2.1913
15178TIP3   OH266948   4.347   3.689  15.925  0.2686  0.0722 -0.1839
15178TIP3    H166949   4.356   3.679  15.830  0.2710 -0.9178 -0.0828
15178TIP3    H266950   4.273   3.749  15.936  0.0720 -0.0536 -0.8017
15179TIP3   OH266951   0.756   6.693  16.676  0.1207 -0.0551 -0.4419
15179TIP3    H166952   0.774   6.717  16.767 -1.0601  1.9453 -0.7223
15179TIP3    H266953   0.799   6.608  16.666 -0.2631 -0.6231  2.1553
15180TIP3   OH266954   5.873   0.179   3.784  0.3031 -0.1130  0.1609
15180TIP3    H166955   5.787   0.151   3.817  0.7348 -0.9348  0.6198
15180TIP3    H266956   5.898   0.110   3.722  0.9484 -0.2497  0.5680
15181TIP3   OH266957   2.254   2.773   6.123  1.2119 -0.2405 -0.2326
15181TIP3    H166958   2.303   2.741   6.047  1.2383 -1.5544  0.3080
15181TIP3    H266959   2.187   2.706   6.137  0.2814  0.7439  0.0028
15182TIP3   OH266960   4.510   1.207   6.168 -0.1225  0.0415  0.2903
15182TIP3    H166961   4.585   1.225   6.225 -0.5464 -2.4828  1.7404
15182TIP3    H266962   4.436   1.250   6.211  0.1202  0.7850 -0.0343
15183TIP3   OH266963   2.035   5.006  12.472  0.3485 -0.0211 -0.4173
15183TIP3    H166964   2.108   4.963  12.517  0.6126  0.2138 -0.6157
15183TIP3    H266965   2.072   5.089  12.441 -0.3096  0.5847  0.4244
15184TIP3   OH266966   3.842   2.076   2.942  0.2624 -0.2240  0.0146
15184TIP3    H166967   3.864   2.167   2.962 -2.5913  0.1196  1.9072
15184TIP3    H266968   3.893   2.025   3.005  0.1406  0.2176  0.4768
15185TIP3   OH266969   6.640   5.786   3.130  0.6041  0.2788  0.1232
15185TIP3    H166970   6.730   5.782   3.161  0.6653  2.8935  0.4444
15185TIP3    H266971   6.648   5.795   3.035  0.8190  3.1889  0.3751
15186TIP3   OH266972   0.138   5.667  15.426 -0.1301 -0.0681  0.0115
15186TIP3    H166973   0.146   5.607  15.499 -0.9283  0.5120  0.5888
15186TIP3    H266974   0.103   5.748  15.465 -1.1245  0.0510 -1.0918
15187TIP3   OH266975   6.654   4.081  12.104  0.3486 -0.2588  0.0654
15187TIP3    H166976   6.692   4.033  12.031  1.5238 -0.4693  0.8034
15187TIP3    H266977   6.568   4.109  12.072  1.1174  0.2365 -1.6306
15188TIP3   OH266978   6.053   0.993   4.402  0.4876 -0.4426 -0.3516
15188TIP3    H166979   6.047   1.043   4.483 -2.0772 -0.9801 -0.1389
15188TIP3    H266980   6.019   1.052   4.335  2.5318 -0.0249 -1.0374
15189TIP3   OH266981   4.835   5.403  14.276  0.4027 -0.1243  0.1725
15189TIP3    H166982   4.909   5.396  14.336  0.1714 -2.2474  0.2481
15189TIP3    H266983   4.875   5.422  14.190  0.9102  0.2834  0.4932
15190TIP3   OH266984   0.281   0.754   3.885  0.3140 -0.1814  0.7161
15190TIP3    H166985   0.303   0.666   3.918 -0.3460 -0.6580 -0.0962
15190TIP3    H266986   0.200   0.777   3.931 -1.7395 -1.7025 -2.0140
15191TIP3   OH266987   0.532   1.504   0.279  0.2193 -0.2298 -0.3215
15191TIP3    H166988   0.521   1.591   0.316  0.9342 -0.5077  0.5582
15191TIP3    H266989   0.501   1.512   0.189 -1.1907  0.5418  0.2205
15192TIP3   OH266990   0.523   1.163   1.575  0.1559 -0.5265  0.5867
15192TIP3    H166991   0.528   1.122   1.489 -0.2565 -0.9016  0.7394
15192TIP3    H266992   0.430   1.183   1.587  0.3009  0.1286  0.6670
15193TIP3   OH266993   6.064   6.578   4.095  0.9883  0.0013  0.5202
15193TIP3    H166994   5.999   6.524   4.139  2.2433 -0.2635  2.1054
15193TIP3    H266995   6.025   6.665   4.091 -0.0587 -0.4858  0.1288
15194TIP3   OH266996   3.131   0.518   4.411 -0.5236 -0.5277  0.2868
15194TIP3    H166997   3.225   0.501   4.408 -0.3357  0.3653  1.2961
15194TIP3    H266998   3.097   0.455   4.474 -0.6136 -0.8375 -0.0636
15195TIP3   OH266999   5.421   5.838   3.562  0.0700 -0.2362 -0.4351
15195TIP3    H167000   5.476   5.778   3.612 -0.5223 -1.7646 -1.5708
15195TIP3    H267001   5.370   5.781   3.504 -0.5758  1.3611 -1.4777
15196TIP3   OH267002   2.780   5.868   2.355 -0.3192 -0.0986  0.3094
15196TIP3    H167003   2.695   5.901   2.326 -0.6644 -1.1296  0.1411
15196TIP3    H267004   2.758   5.798   2.416  0.4027 -1.8017 -1.3625
15197TIP3   OH267005   4.504   6.192   0.195 -0.1875 -0.4981 -0.6443
15197TIP3    H167006   4.589   6.233   0.180  0.5229 -1.3477  0.9488
15197TIP3    H267007   4.508   6.109   0.148 -0.0721 -0.6108 -0.4353
15198TIP3   OH267008   0.088   5.341  15.453 -0.3374 -0.1244  0.1103
15198TIP3    H167009   0.073   5.294  15.534  0.3723 -1.7685 -0.6872
15198TIP3    H267010   0.153   5.289  15.406 -0.8584  0.6926 -1.5888
15199TIP3   OH267011   2.020   6.305   3.440  0.1694 -0.4546  0.0193
15199TIP3    H167012   2.010   6.320   3.346 -2.8605  1.1316  0.5350
15199TIP3    H267013   1.955   6.236   3.461  0.7998 -0.7790  0.9540
15200TIP3   OH267014   5.234   2.569  15.162  0.7049 -0.1118 -0.1501
15200TIP3    H167015   5.167   2.636  15.176  0.9396 -0.0808  0.8577
15200TIP3    H267016   5.202   2.493  15.210  0.3666 -0.7695 -1.4243
15201TIP3   OH267017   1.112   2.016  16.662 -0.2980 -0.5283 -0.3569
15201TIP3    H167018   1.148   1.928  16.655 -0.3750 -0.6916  1.0550
15201TIP3    H267019   1.078   2.021  16.751 -0.6849  0.7826 -0.5592
15202TIP3   OH267020   5.920   0.669   4.476 -0.0488 -0.4268 -0.2822
15202TIP3    H167021   5.837   0.705   4.444 -0.0513 -0.5659 -0.4297
15202TIP3    H267022   5.931   0.709   4.562 -0.1593 -0.2356 -0.3561
15203TIP3   OH267023   4.964   0.084  12.549 -0.4248 -0.1073 -0.9651
15203TIP3    H167024   5.055   0.072  12.522 -0.0533 -0.2673  0.3185
15203TIP3    H267025   4.961   0.052  12.639 -1.6956  0.1402 -0.9055
15204TIP3   OH267026   1.347   3.349   2.252 -0.1244 -0.4930 -0.2860
15204TIP3    H167027   1.261   3.368   2.288 -0.6404  0.6185 -2.0588
15204TIP3    H267028   1.388   3.292   2.318 -1.6909  0.0299  1.1940
15205TIP3   OH267029   0.951   4.385   6.559 -0.2933  0.2064  0.0756
15205TIP3    H167030   0.931   4.474   6.532 -2.0351 -0.1759  0.0962
15205TIP3    H267031   1.046   4.384   6.570 -0.0869  1.6136 -1.5037
15206TIP3   OH267032   3.976   2.716  14.746 -0.6108  0.2556 -0.0106
15206TIP3    H167033   3.933   2.768  14.679  0.1082  0.4069 -0.3672
15206TIP3    H267034   4.017   2.780  14.804  1.4112  0.0940 -1.2081
15207TIP3   OH267035   4.133   3.421  11.710  0.0853 -0.2766  0.5595
15207TIP3    H167036   4.077   3.466  11.772  1.8604  0.9643  1.3021
15207TIP3    H267037   4.166   3.345  11.758 -0.9773 -1.0404  0.1035
15208TIP3   OH267038   3.008   0.582   4.130  0.1061  0.0602  0.4805
15208TIP3    H167039   3.075   0.616   4.070 -1.1622 -1.1011 -1.6757
15208TIP3    H267040   3.053   0.573   4.214  1.9035  1.8754 -0.2377
15209TIP3   OH267041   4.048   4.805  14.193 -0.2122 -0.0073 -0.0509
15209TIP3    H167042   4.082   4.723  14.157  2.4120  0.8628  0.3493
15209TIP3    H267043   4.050   4.792  14.288 -1.4257 -0.0904 -0.0268
15210TIP3   OH267044   0.584   3.060   3.116 -0.2514 -0.0040  0.5722
15210TIP3    H167045   0.527   3.080   3.042  1.6149 -1.1463 -1.2132
15210TIP3    H267046   0.524   3.041   3.188 -2.1015 -0.3342 -1.0295
15211TIP3   OH267047   1.332   5.744  15.739  0.4770  0.1362 -0.1481
15211TIP3    H167048   1.296   5.819  15.691  1.0989  0.9086  0.5769
15211TIP3    H267049   1.260   5.715  15.795  0.6310  1.0237  0.5277
15212TIP3   OH267050   0.968   2.713   4.527  0.7830  0.3087  0.6031
15212TIP3    H167051   0.873   2.723   4.526  0.5802 -1.4273 -1.9258
15212TIP3    H267052   0.983   2.637   4.582  0.4546 -1.2213 -1.3622
15213TIP3   OH267053   6.274   5.046   3.228  0.0854  0.2789 -0.0531
15213TIP3    H167054   6.228   5.042   3.144  0.0607 -0.3128 -0.0158
15213TIP3    H267055   6.234   5.120   3.274 -0.8666 -0.2609 -0.0024
15214TIP3   OH267056   2.600   0.717  13.444 -0.1002 -0.3278 -0.3696
15214TIP3    H167057   2.552   0.795  13.415  0.9326  0.2827 -0.4408
15214TIP3    H267058   2.601   0.660  13.366 -0.5219 -0.2544 -0.4317
15215TIP3   OH267059   2.725   0.867  16.612  0.2140  0.1614 -0.3950
15215TIP3    H167060   2.756   0.800  16.551 -0.0794 -0.3442  0.0053
15215TIP3    H267061   2.797   0.930  16.617 -0.1638  0.7472 -2.0424
15216TIP3   OH267062   0.025   5.351  14.313 -0.1240 -0.6653  0.1727
15216TIP3    H167063   0.054   5.343  14.404  3.5859  1.1732 -0.7658
15216TIP3    H267064   0.063   5.275  14.269  1.2641  0.4091 -0.5458
15217TIP3   OH267065   3.826   1.990  12.878  0.4152  0.7764  0.0063
15217TIP3    H167066   3.785   2.076  12.874  0.7327  0.9065 -0.6586
15217TIP3    H267067   3.809   1.959  12.966  0.8329  1.7947  0.4549
15218TIP3   OH267068   1.754   6.183  15.358 -0.3961  0.3778  0.4455
15218TIP3    H167069   1.744   6.148  15.269 -0.2209 -1.7973  1.2448
15218TIP3    H267070   1.809   6.260  15.347 -3.0695  2.1056 -1.7511
15219TIP3   OH267071   5.259   6.575  12.380  0.0482  0.0721 -0.0147
15219TIP3    H167072   5.326   6.539  12.438 -1.3299 -1.8730  0.4284
15219TIP3    H267073   5.306   6.635  12.322  1.6804  0.9536  2.1707
15220TIP3   OH267074   2.650   2.843   3.468 -0.1132 -0.2000  0.6234
15220TIP3    H167075   2.640   2.905   3.540 -2.3097 -0.6002  0.7021
15220TIP3    H267076   2.693   2.893   3.399  0.4453  0.6666  1.5855
15221TIP3   OH267077   4.238   1.020   0.681  0.3756  0.5196 -1.0276
15221TIP3    H167078   4.246   1.075   0.760  0.3906 -1.4317  0.3555
15221TIP3    H267079   4.196   0.940   0.712 -1.1867  0.4060 -3.3556
15222TIP3   OH267080   3.700   5.778  15.016 -0.1950  0.3036 -0.1568
15222TIP3    H167081   3.627   5.813  14.964  0.7037  0.3289 -1.4386
15222TIP3    H267082   3.713   5.690  14.982  0.4132  0.3275  0.0240
15223TIP3   OH267083   3.553   5.301  17.194  0.2482 -0.2272 -0.0588
15223TIP3    H167084   3.572   5.393  17.211 -1.2111 -0.1889  1.5536
15223TIP3    H267085   3.473   5.283  17.244 -0.1564 -2.0585 -1.2904
15224TIP3   OH267086   1.736   5.541  14.065  0.1638  0.7308 -0.1436
15224TIP3    H167087   1.678   5.617  14.075  0.1795  0.8169 -0.6797
15224TIP3    H267088   1.680   5.472  14.031  0.3759  0.8266 -0.7063
15225TIP3   OH267089   0.256   2.776  14.261 -0.6861 -0.9305  0.1366
15225TIP3    H167090   0.161   2.768  14.256 -0.9558  1.0247  1.6434
15225TIP3    H267091   0.276   2.855  14.211 -0.0173 -0.5999  0.9060
15226TIP3   OH267092   0.459   1.813  15.713  0.1171 -0.6929 -0.6747
15226TIP3    H167093   0.479   1.904  15.738 -2.8186 -0.4854  1.0397
15226TIP3    H267094   0.534   1.763  15.745  0.1878  0.6739  1.3819
15227TIP3   OH267095   1.485   4.202  16.982 -0.4558  0.1579 -0.4153
15227TIP3    H167096   1.553   4.166  16.926 -0.6692  0.7653 -1.0774
15227TIP3    H267097   1.458   4.283  16.938  0.2662  1.3074  1.2328
15228TIP3   OH267098   0.594   5.245   0.307 -0.2066  0.3969  0.7081
15228TIP3    H167099   0.499   5.233   0.305 -0.5018  2.6209  0.5900
15228TIP3    H267100   0.628   5.159   0.334 -2.2850 -0.1995  1.5551
15229TIP3   OH267101   6.174   4.117  14.395  0.9533  0.2674  0.0607
15229TIP3    H167102   6.083   4.136  14.376  1.7680  2.0639 -2.2302
15229TIP3    H267103   6.198   4.048  14.332  1.5076  0.6757 -0.1814
15230TIP3   OH267104   0.589   4.297  16.051  0.1046 -0.5884  0.0636
15230TIP3    H167105   0.639   4.239  15.993  3.0281  1.2960  0.5968
15230TIP3    H267106   0.530   4.344  15.993  0.7994 -0.9638 -0.9580
15231TIP3   OH267107   4.486   2.836   4.589 -0.1034  0.1385 -0.8954
15231TIP3    H167108   4.429   2.895   4.539  1.0282  0.8280 -1.3781
15231TIP3    H267109   4.575   2.862   4.566  0.4576  0.5549  1.5654
15232TIP3   OH267110   0.745   6.014  16.724  0.2826  0.2760  0.2828
15232TIP3    H167111   0.797   5.992  16.647 -0.9597 -1.2890 -0.1300
15232TIP3    H267112   0.683   5.942  16.733 -0.6517  1.2345  1.8094
15233TIP3   OH267113   3.916   2.769   1.979 -0.2512 -0.3544  0.6058
15233TIP3    H167114   3.910   2.680   2.012  0.3294 -0.5135  0.2837
15233TIP3    H267115   3.923   2.759   1.884 -0.8406  0.0590  0.5146
15234TIP3   OH267116   1.184   3.518  13.912  0.5076 -0.6361  0.7066
15234TIP3    H167117   1.199   3.611  13.933 -1.7604  0.1166 -0.8581
15234TIP3    H267118   1.252   3.497  13.848 -0.5720  0.6936 -0.8954
15235TIP3   OH267119   3.202   4.793   1.223 -0.0239  0.0510  0.3278
15235TIP3    H167120   3.109   4.816   1.220 -0.2909 -1.1606 -2.1193
15235TIP3    H267121   3.247   4.877   1.230 -1.2033  0.9300 -1.9363
15236TIP3   OH267122   3.160   0.387   6.211  0.1393 -0.1697  0.2715
15236TIP3    H167123   3.246   0.423   6.235  0.1629 -0.5388  0.7655
15236TIP3    H267124   3.109   0.463   6.183  0.0956  0.2939  1.5646
15237TIP3   OH267125   5.140   3.002  14.381 -0.1861 -0.2119 -0.1935
15237TIP3    H167126   5.047   2.996  14.357 -0.4429  1.7417  0.2523
15237TIP3    H267127   5.186   2.966  14.306 -1.2860 -0.7131 -0.6406
15238TIP3   OH267128   6.417   4.187  13.787 -0.2562 -0.3804 -0.4118
15238TIP3    H167129   6.324   4.170  13.769 -0.4533  1.0119 -0.7889
15238TIP3    H267130   6.422   4.197  13.882 -0.7476  0.9171 -0.5096
15239TIP3   OH267131   1.839   6.368   2.514 -0.0449 -0.4531 -0.0383
15239TIP3    H167132   1.822   6.405   2.601  1.4180 -1.3404  0.6531
15239TIP3    H267133   1.756   6.327   2.489 -0.2807 -0.7911  1.2498
15240TIP3   OH267134   1.043   4.539   3.258 -0.4897 -0.3982 -0.2862
15240TIP3    H167135   0.968   4.573   3.210 -2.0867 -0.5793  2.0103
15240TIP3    H267136   1.104   4.612   3.262 -0.5576 -0.2124 -2.0552
15241TIP3   OH267137   6.479   5.989   2.774  0.3642 -0.5412  1.0139
15241TIP3    H167138   6.495   5.909   2.723 -1.9045 -0.0605 -0.5518
15241TIP3    H267139   6.505   6.060   2.715 -0.8224 -0.0287  1.0956
15242TIP3   OH267140   5.084   2.398   3.259  0.1517  0.0377 -0.1912
15242TIP3    H167141   5.176   2.425   3.252 -0.2073  0.8493 -1.8917
15242TIP3    H267142   5.055   2.388   3.169 -1.1079 -1.4140  0.3451
15243TIP3   OH267143   5.632   3.069  16.789  0.6855 -0.0256  0.8341
15243TIP3    H167144   5.553   3.022  16.813  1.5267 -1.5677  0.6268
15243TIP3    H267145   5.604   3.160  16.782 -0.9832 -0.4984  1.1198
15244TIP3   OH267146   6.258   5.942   2.926 -0.1583  0.5219 -0.2030
15244TIP3    H167147   6.277   5.880   2.997  0.5593  0.4119 -0.4878
15244TIP3    H267148   6.339   5.945   2.874 -0.3119  1.4213 -0.4025
15245TIP3   OH267149   3.917   3.628   4.751 -0.5200  0.4182  0.3099
15245TIP3    H167150   3.935   3.721   4.757 -3.6622  1.1912 -1.2589
15245TIP3    H267151   3.954   3.600   4.668  0.3612  0.2604  0.7487
15246TIP3   OH267152   0.862   2.024  13.105  0.6543  1.0442 -0.0489
15246TIP3    H167153   0.839   1.948  13.052  1.8819  0.9415 -0.4498
15246TIP3    H267154   0.957   2.033  13.095  0.4090  3.1732 -0.7507
15247TIP3   OH267155   3.569   1.501  15.941 -0.0379  0.2552 -0.0165
15247TIP3    H167156   3.658   1.501  15.976  0.6022 -0.4349 -1.5767
15247TIP3    H267157   3.557   1.412  15.908 -1.8320 -0.0602  1.4497
15248TIP3   OH267158   5.088   5.132   5.507 -0.2491 -0.0576  0.3065
15248TIP3    H167159   5.113   5.168   5.592  1.4408  0.4059 -0.3613
15248TIP3    H267160   5.118   5.041   5.510 -0.5110 -0.1407  0.3515
15249TIP3   OH267161   5.113   0.916  15.034  0.1404 -0.1361  0.3253
15249TIP3    H167162   5.109   0.947  14.944  0.2077 -1.2192 -0.0593
15249TIP3    H267163   5.023   0.924  15.066  0.1787  0.5496  0.2709
15250TIP3   OH267164   5.611   3.913   2.194  0.6034  0.2730 -0.3921
15250TIP3    H167165   5.645   3.977   2.257 -1.2583  0.2988  0.6096
15250TIP3    H267166   5.647   3.830   2.223  0.5833  0.4341  0.0982
15251TIP3   OH267167   6.490   5.522   2.251  0.1153  0.0822 -0.5231
15251TIP3    H167168   6.396   5.513   2.237 -0.4035 -1.0011  3.1657
15251TIP3    H267169   6.504   5.616   2.260 -0.4507  0.3110 -1.8856
15252TIP3   OH267170   4.584   2.916  11.183 -0.0035 -0.3467  0.8320
15252TIP3    H167171   4.489   2.916  11.194 -0.1693  3.0464 -0.1413
15252TIP3    H267172   4.597   2.927  11.089  1.3372  0.1069  1.0586
15253TIP3   OH267173   3.245   3.620   2.039 -0.5429  0.7651 -0.5040
15253TIP3    H167174   3.335   3.588   2.048 -0.7018  0.4621  0.0833
15253TIP3    H267175   3.254   3.715   2.032 -0.0637  0.6030 -2.2558
15254TIP3   OH267176   4.854   2.614  13.864  0.4686  0.5600 -0.0734
15254TIP3    H167177   4.860   2.687  13.802  1.7641  0.7069  0.2105
15254TIP3    H267178   4.942   2.577  13.866  0.0260 -0.4913  0.4285
15255TIP3   OH267179   2.839   5.330  15.939 -0.6695 -0.0305  0.1321
15255TIP3    H167180   2.844   5.426  15.932  0.2279  0.0702  1.7933
15255TIP3    H267181   2.845   5.313  16.033 -0.6426 -1.7371 -0.1652
15256TIP3   OH267182   0.325   5.844  11.003  0.8079  0.1321  0.0380
15256TIP3    H167183   0.394   5.778  11.010 -0.8715 -1.4154  3.0601
15256TIP3    H267184   0.269   5.813  10.931  0.5193 -1.2959  0.8614
15257TIP3   OH267185   1.587   4.985   5.648 -0.3957  0.4215 -0.1628
15257TIP3    H167186   1.523   4.975   5.719 -1.4958 -0.5295 -1.2535
15257TIP3    H267187   1.585   4.901   5.602  1.4414  0.4885 -0.3916
15258TIP3   OH267188   1.711   1.831   5.162 -0.5373  0.0493  0.4708
15258TIP3    H167189   1.641   1.782   5.119 -0.4846  0.8003 -0.4847
15258TIP3    H267190   1.703   1.920   5.128  0.9633  0.1052  0.2496
15259TIP3   OH267191   5.144   5.428  13.162  0.1587  0.3062 -0.3421
15259TIP3    H167192   5.054   5.451  13.142  0.6572  1.3347 -1.4538
15259TIP3    H267193   5.152   5.439  13.257 -0.4379  1.7941 -0.4551
15260TIP3   OH267194   6.556   0.807   4.012  0.3551 -0.1084  0.6289
15260TIP3    H167195   6.463   0.815   3.993  0.4589  1.5362  0.7240
15260TIP3    H267196   6.579   0.717   3.987 -0.6957  0.2798 -1.8096
15261TIP3   OH267197   2.332   4.307  11.324 -0.1301  0.0239 -0.0446
15261TIP3    H167198   2.414   4.262  11.343 -0.8397  0.1307  3.5280
15261TIP3    H267199   2.277   4.240  11.283  0.5507 -0.9889  0.6705
15262TIP3   OH267200   0.152   4.569  14.678 -0.1444  0.0729  0.0175
15262TIP3    H167201   0.234   4.616  14.663  0.6572 -1.2059  0.3151
15262TIP3    H267202   0.102   4.625  14.738 -0.0247  1.4453 -1.1325
15263TIP3   OH267203   6.273   1.170  11.723 -0.1993 -0.5094 -0.0009
15263TIP3    H167204   6.315   1.229  11.661 -0.0017  0.4327  1.0089
15263TIP3    H267205   6.256   1.090  11.673 -0.4756  0.4027 -1.3708
15264TIP3   OH267206   4.889   5.555  12.858 -0.0037 -0.8638 -0.6345
15264TIP3    H167207   4.881   5.535  12.952  0.0181 -0.1825 -0.4839
15264TIP3    H267208   4.831   5.630  12.845 -0.1345 -1.0668 -1.2019
15265TIP3   OH267209   0.208   1.769   3.560  0.1153  0.0288  0.3301
15265TIP3    H167210   0.151   1.719   3.501  1.6927 -1.0332 -0.3301
15265TIP3    H267211   0.264   1.703   3.601  0.4197  0.9838  1.4856
15266TIP3   OH267212   3.883   2.360   1.331  0.1508 -0.1718  0.2011
15266TIP3    H167213   3.964   2.308   1.339  0.1314 -0.0010  1.7060
15266TIP3    H267214   3.825   2.305   1.278  1.0136 -0.5958 -0.3226
15267TIP3   OH267215   4.670   2.184   1.094 -0.7917 -0.4207 -0.4949
15267TIP3    H167216   4.686   2.248   1.163 -0.0111 -0.0105 -1.0521
15267TIP3    H267217   4.739   2.199   1.030 -1.2440 -1.0950 -1.1573
15268TIP3   OH267218   5.795   3.621   0.090 -0.0964  0.3120 -0.0322
15268TIP3    H167219   5.838   3.675   0.157  0.1859 -0.5382  0.4827
15268TIP3    H267220   5.704   3.614   0.120  0.0591 -0.1726  0.3370
15269TIP3   OH267221   6.481   2.780   3.371 -0.4298  0.5768  0.5020
15269TIP3    H167222   6.500   2.854   3.314  0.5118  0.4234  0.6186
15269TIP3    H267223   6.455   2.819   3.454 -1.1595  0.7913  0.1738
15270TIP3   OH267224   0.640   0.858   2.270  0.2195 -0.1539 -0.0576
15270TIP3    H167225   0.699   0.877   2.343  2.4214  0.9746 -2.0779
15270TIP3    H267226   0.557   0.898   2.296  0.1752 -2.0209  2.9513
15271TIP3   OH267227   0.350   1.400  10.642 -0.0436 -0.0329  0.0442
15271TIP3    H167228   0.441   1.429  10.629 -0.2590  0.3288 -0.6601
15271TIP3    H267229   0.349   1.310  10.609  0.5428 -0.7649  1.9202
15272TIP3   OH267230   1.582   1.281  16.735 -0.2208 -0.9387 -0.0272
15272TIP3    H167231   1.630   1.206  16.771  0.5309 -1.2295 -1.6090
15272TIP3    H267232   1.546   1.249  16.653 -0.8705  0.1114 -0.1608
15273TIP3   OH267233   0.125   3.977  12.284  0.2996 -0.4053  0.2812
15273TIP3    H167234   0.046   3.922  12.281  0.7350 -0.9703 -1.6812
15273TIP3    H267235   0.183   3.938  12.218  1.5604  1.0098  0.5403
15274TIP3   OH267236   2.816   4.895  15.289 -0.5636 -0.0417 -0.7323
15274TIP3    H167237   2.772   4.978  15.270  0.0266 -0.1132 -2.4923
15274TIP3    H267238   2.816   4.849  15.205 -1.2445 -1.9920  0.3240
15275TIP3   OH267239   2.557   3.864   0.619  0.0294  0.6828 -0.1929
15275TIP3    H167240   2.632   3.882   0.562  1.4476  1.0473  1.7625
15275TIP3    H267241   2.528   3.950   0.648  0.0442  0.4274  0.5774
15276TIP3   OH267242   3.101   5.334   3.721  0.2214 -0.0694  0.0284
15276TIP3    H167243   3.160   5.299   3.787 -0.7541 -1.0385  0.4086
15276TIP3    H267244   3.083   5.423   3.750 -0.5415 -0.6242  1.3209
15277TIP3   OH267245   5.685   5.503   0.977 -0.0257  0.1104 -0.0370
15277TIP3    H167246   5.660   5.474   0.889 -0.1246  1.2617 -0.3935
15277TIP3    H267247   5.696   5.421   1.026 -1.8753 -0.5085 -0.5820
15278TIP3   OH267248   1.630   6.074  16.991  0.5788 -0.7639 -0.1046
15278TIP3    H167249   1.571   6.126  16.937  3.3641  1.6369 -0.9928
15278TIP3    H267250   1.666   6.009  16.931  1.8117  0.3343 -0.5870
15279TIP3   OH267251   4.110   0.477  15.616  0.1191 -0.2445  0.4805
15279TIP3    H167252   4.143   0.395  15.577 -0.5335  0.4866 -1.7018
15279TIP3    H267253   4.128   0.468  15.709  3.2565 -1.3879 -0.1675
15280TIP3   OH267254   2.042   3.441   5.595 -0.5552 -0.3514 -0.0163
15280TIP3    H167255   2.000   3.456   5.510 -0.8290  0.6536  0.2893
15280TIP3    H267256   1.971   3.449   5.659 -0.0042  0.8818  0.4614
15281TIP3   OH267257   0.115   5.016  14.881 -0.0887 -0.1598  0.2923
15281TIP3    H167258   0.208   5.034  14.892 -0.3573  1.1128  0.6832
15281TIP3    H267259   0.082   5.009  14.971 -0.6941  1.2569  0.1943
15282TIP3   OH267260   5.504   5.796  12.118 -0.5665 -0.0116 -0.3754
15282TIP3    H167261   5.477   5.792  12.209 -1.5040 -1.0500 -0.6850
15282TIP3    H267262   5.433   5.844  12.074  0.4460  1.5323 -0.3651
15283TIP3   OH267263   6.204   1.332   4.923  0.2353 -0.4001  0.6984
15283TIP3    H167264   6.134   1.372   4.870  2.1047  2.1681  0.1137
15283TIP3    H267265   6.244   1.268   4.864  1.1344  1.1684 -0.4144
15284TIP3   OH267266   4.382   4.993  15.635 -0.1143 -0.5317 -0.0477
15284TIP3    H167267   4.389   4.903  15.602  2.6179 -0.4759  0.3190
15284TIP3    H267268   4.352   4.982  15.726  2.1432 -1.2159  0.6465
15285TIP3   OH267269   0.710   4.299  16.752  0.0885 -0.0670 -0.3298
15285TIP3    H167270   0.733   4.311  16.660 -1.6628  1.1561 -0.6343
15285TIP3    H267271   0.794   4.301  16.798  0.9776 -0.6823 -1.8787
15286TIP3   OH267272   3.485   6.473  14.260  0.2827  0.1245  0.3676
15286TIP3    H167273   3.411   6.497  14.204  0.1528 -0.5484  0.2391
15286TIP3    H267274   3.559   6.523  14.226 -0.1023  0.7472  0.4505
15287TIP3   OH267275   2.957   3.324   0.600  0.5013 -0.5089 -0.4293
15287TIP3    H167276   2.863   3.339   0.610  0.4480 -0.3804 -1.1423
15287TIP3    H267277   2.997   3.410   0.617  0.3725 -0.1612 -1.8307
15288TIP3   OH267278   2.160   4.084   4.599 -0.0386 -0.2221 -0.0581
15288TIP3    H167279   2.082   4.124   4.637 -1.0735 -1.7248 -0.5382
15288TIP3    H267280   2.159   4.113   4.508  0.9717  1.2128  0.3705
15289TIP3   OH267281   3.821   1.447  16.980  0.0137 -0.4032 -0.1187
15289TIP3    H167282   3.779   1.470  17.063  1.1737 -0.1559  0.4129
15289TIP3    H267283   3.834   1.353  16.985 -0.6046 -0.4991 -0.3418
15290TIP3   OH267284   6.190   5.232   5.092  0.2296  0.6430  0.5895
15290TIP3    H167285   6.284   5.250   5.081  0.2163  1.1146  1.2381
15290TIP3    H267286   6.178   5.145   5.054  1.0494  0.3210  1.0658
15291TIP3   OH267287   5.880   3.784   5.920 -0.3840  0.5319  0.1584
15291TIP3    H167288   5.837   3.758   6.002 -0.9165 -1.8049 -0.8356
15291TIP3    H267289   5.945   3.716   5.905  0.9048  1.8935 -0.4764
15292TIP3   OH267290   0.881   1.650   1.016 -0.7444  0.2389  0.5610
15292TIP3    H167291   0.844   1.629   0.930  0.4688 -1.4483  0.4269
15292TIP3    H267292   0.969   1.682   0.997 -1.4566  2.5474  1.0023
15293TIP3   OH267293   0.956   1.716  13.747 -0.4711 -0.2268 -0.3312
15293TIP3    H167294   0.966   1.722  13.842 -0.0198  1.7805 -0.4653
15293TIP3    H267295   0.962   1.623  13.728  0.4562 -0.5807  1.5101
15294TIP3   OH267296   1.565   4.305   1.120  0.0708  0.3568  0.3069
15294TIP3    H167297   1.644   4.287   1.171  0.1861  0.6782  0.2460
15294TIP3    H267298   1.597   4.336   1.036 -0.1166  0.7853  0.3899
15295TIP3   OH267299   3.707   6.701  16.429  0.7260 -0.2344 -0.4207
15295TIP3    H167300   3.658   6.706  16.512 -0.7061  1.4890 -1.3536
15295TIP3    H267301   3.683   6.615  16.393  0.7950 -0.6890  0.5800
15296TIP3   OH267302   5.568   1.054  14.058 -0.2695 -0.1548  1.0645
15296TIP3    H167303   5.655   1.064  14.020 -0.3250 -0.8845  0.7259
15296TIP3    H267304   5.511   1.036  13.983 -0.9433  1.6407  1.1323
15297TIP3   OH267305   6.192   3.064   2.029 -0.0374 -0.1065  0.3402
15297TIP3    H167306   6.141   3.139   2.060  2.7244  1.9111  0.2273
15297TIP3    H267307   6.159   2.990   2.080 -2.8080  1.1588  0.4796
15298TIP3   OH267308   5.047   6.558   3.305  0.0860  0.1714  0.3180
15298TIP3    H167309   5.116   6.520   3.250 -0.4938  0.6850 -0.7660
15298TIP3    H267310   5.028   6.489   3.370  0.2922 -0.7069 -0.5388
15299TIP3   OH267311   3.024   5.493  11.219  0.6196 -0.0792  0.2376
15299TIP3    H167312   3.031   5.432  11.293  0.2422 -1.1276 -0.5909
15299TIP3    H267313   3.109   5.537  11.216  1.9754 -2.6880 -0.9954
15300TIP3   OH267314   3.142   3.720   2.916  0.0831  0.0330 -0.3175
15300TIP3    H167315   3.154   3.638   2.869  1.3993 -0.2479  0.4854
15300TIP3    H267316   3.222   3.731   2.967 -1.6313 -0.0882  2.5284
15301TIP3   OH267317   1.018   0.231  13.493  0.3954 -0.2622  0.0236
15301TIP3    H167318   1.066   0.312  13.477  0.7861 -0.4179  0.3969
15301TIP3    H267319   1.001   0.195  13.406 -0.4772  0.6222 -0.1822
15302TIP3   OH267320   1.645   1.479  17.157 -0.1280  0.0992 -0.3068
15302TIP3    H167321   1.559   1.437  17.161  0.0413 -0.2907 -0.6813
15302TIP3    H267322   1.660   1.493  17.063  0.3557 -0.1302 -0.2660
15303TIP3   OH267323   3.453   1.931  12.786 -0.2555  0.2135 -0.0078
15303TIP3    H167324   3.457   1.981  12.867  0.2621  0.7583 -0.3724
15303TIP3    H267325   3.513   1.975  12.726  0.7401 -1.2504 -0.1086
15304TIP3   OH267326   6.780   6.293   1.161  0.1144  0.3518  0.3413
15304TIP3    H167327   6.792   6.387   1.151  1.1878  0.2629  0.7515
15304TIP3    H267328   6.753   6.263   1.074  2.2979  0.6517 -0.4625
15305TIP3   OH267329   6.665   4.193   3.784  0.0951  0.1495  0.2027
15305TIP3    H167330   6.613   4.211   3.863 -1.7720 -0.7291 -0.7881
15305TIP3    H267331   6.750   4.166   3.818 -1.2208 -1.9418  2.0347
15306TIP3   OH267332   5.772   5.417  15.883 -0.0843 -0.0090 -0.4576
15306TIP3    H167333   5.795   5.408  15.976  0.9681  1.3741 -0.5649
15306TIP3    H267334   5.678   5.437  15.883  0.1566  1.1378  0.3735
15307TIP3   OH267335   5.582   3.060  11.846 -0.1347  0.1622  0.3478
15307TIP3    H167336   5.661   3.096  11.887  0.1682  0.0963 -0.1783
15307TIP3    H267337   5.510   3.105  11.890  0.1440 -0.7008  1.7245
15308TIP3   OH267338   5.213   4.797   4.337  0.4608 -0.2579  0.1025
15308TIP3    H167339   5.291   4.844   4.366 -0.4242  1.1376  0.2919
15308TIP3    H267340   5.174   4.763   4.418  0.7644 -0.7951  0.0258
15309TIP3   OH267341   0.454   6.266   4.329 -0.6292 -0.0137 -0.2713
15309TIP3    H167342   0.438   6.344   4.383  0.1395 -0.7581  1.0542
15309TIP3    H267343   0.418   6.289   4.244 -0.7750  1.6547  0.2099
15310TIP3   OH267344   4.907   2.565   0.958 -0.5607 -0.4263 -0.4557
15310TIP3    H167345   4.944   2.619   1.028 -0.4307 -1.6422  0.4246
15310TIP3    H267346   4.931   2.611   0.878 -1.2304  1.2974  0.3077
15311TIP3   OH267347   0.920   1.335  11.891 -0.3846 -0.2972  0.3754
15311TIP3    H167348   0.850   1.393  11.861  1.2416  0.4315 -2.2289
15311TIP3    H267349   0.890   1.247  11.868  0.5731  0.1978 -3.1088
15312TIP3   OH267350   3.221   1.805  13.012  0.1496 -0.1760  0.4282
15312TIP3    H167351   3.233   1.900  13.004  2.0946 -0.4267  0.0653
15312TIP3    H267352   3.232   1.787  13.105  1.0125 -0.1817  0.3330
15313TIP3   OH267353   4.382   4.171   4.312  0.0427 -0.3522  0.2505
15313TIP3    H167354   4.362   4.091   4.360  1.1353 -1.1649 -0.6348
15313TIP3    H267355   4.463   4.152   4.266 -0.5534  0.6963 -1.2708
15314TIP3   OH267356   4.980   4.136   1.945  0.6282  0.1965  0.4805
15314TIP3    H167357   5.053   4.074   1.957  0.7467  0.1187 -0.5839
15314TIP3    H267358   4.904   4.091   1.982  0.5481 -0.9354 -1.0224
15315TIP3   OH267359   5.433   6.753  16.921 -0.0170 -0.5777  0.4732
15315TIP3    H167360   5.440   6.757  17.016  0.2118 -1.6390  0.5020
15315TIP3    H267361   5.498   6.816  16.889 -1.2069  0.9628  1.0432
15316TIP3   OH267362   4.758   5.561  12.095 -0.1500 -0.5609 -0.1548
15316TIP3    H167363   4.848   5.592  12.107  0.4224 -2.0672 -0.5240
15316TIP3    H267364   4.730   5.532  12.182  0.3021 -1.6352 -0.3664
15317TIP3   OH267365   3.758   0.962   1.909  0.0469  0.1381 -0.5882
15317TIP3    H167366   3.715   0.931   1.988 -1.0488 -0.1050 -1.2660
15317TIP3    H267367   3.756   1.057   1.917 -0.5732  0.1303 -0.5746
15318TIP3   OH267368   4.691   0.076  16.539  0.6519  0.7270 -0.7025
15318TIP3    H167369   4.692   0.020  16.617 -2.6892  0.3458 -0.8226
15318TIP3    H267370   4.758   0.039  16.482 -0.1478 -2.0162  0.0473
15319TIP3   OH267371   2.970   5.814  12.539 -0.2965  0.0567  0.1675
15319TIP3    H167372   2.967   5.732  12.489 -0.9780  0.8964 -1.1964
15319TIP3    H267373   3.061   5.822  12.567  0.0559 -0.5172 -0.7906
15320TIP3   OH267374   2.692   4.263   1.990 -0.2598 -0.4111 -0.1349
15320TIP3    H167375   2.693   4.170   1.966 -0.8734  0.2339 -2.8200
15320TIP3    H267376   2.740   4.306   1.920  0.6719  1.2459  1.4858
15321TIP3   OH267377   1.604   4.883   2.323 -0.2418 -0.1125 -0.3250
15321TIP3    H167378   1.695   4.856   2.331 -0.5400 -1.1165 -0.2487
15321TIP3    H267379   1.572   4.839   2.245 -0.8769 -0.3983  0.0884
15322TIP3   OH267380   0.068   3.118  10.930  0.5189 -0.4277 -0.0039
15322TIP3    H167381   0.152   3.158  10.909  0.3594 -0.9285 -1.7127
15322TIP3    H267382   0.004   3.189  10.923  0.5603 -0.4442 -0.5370
15323TIP3   OH267383   6.686   6.148   1.441 -0.1514  0.4710  0.1036
15323TIP3    H167384   6.642   6.081   1.387 -0.5556  0.8546 -0.0496
15323TIP3    H267385   6.772   6.159   1.401 -0.7876  1.4251 -1.0358
15324TIP3   OH267386   5.056   6.477   4.967 -0.6071 -0.0604  0.4962
15324TIP3    H167387   4.963   6.462   4.984 -0.7402 -1.9374 -1.7795
15324TIP3    H267388   5.064   6.573   4.964 -2.1985  0.1497  1.9757
15325TIP3   OH267389   4.090   3.667  13.096 -0.0923 -0.4717 -0.1842
15325TIP3    H167390   4.132   3.753  13.105 -0.7713 -0.0890 -0.6056
15325TIP3    H267391   4.051   3.669  13.009 -4.0822  0.5811  1.5156
15326TIP3   OH267392   2.490   0.616   4.491 -0.5241 -0.2876  0.0426
15326TIP3    H167393   2.471   0.697   4.538  1.5052  0.0013  0.3932
15326TIP3    H267394   2.509   0.644   4.402  0.0749 -0.3858  0.1383
15327TIP3   OH267395   4.404   6.585  11.277  0.1168 -0.0750 -0.5540
15327TIP3    H167396   4.468   6.577  11.207  1.2767 -0.4151  0.5296
15327TIP3    H267397   4.426   6.666  11.321  0.6999 -0.9096  0.7094
15328TIP3   OH267398   5.444   1.687  13.635  0.0081  0.1798 -0.1005
15328TIP3    H167399   5.533   1.722  13.635 -0.0286  0.2944 -2.1182
15328TIP3    H267400   5.454   1.594  13.617 -0.0606 -0.4949  3.0722
15329TIP3   OH267401   5.098   4.070   5.779  0.0099  0.4922  0.0573
15329TIP3    H167402   5.138   4.156   5.763  0.8087 -0.0057 -0.6652
15329TIP3    H267403   5.115   4.020   5.700  2.0042 -1.2477  1.5120
15330TIP3   OH267404   1.342   3.084  12.484  0.0041 -0.2271 -0.5753
15330TIP3    H167405   1.281   3.080  12.410  0.7264 -0.3977 -1.1748
15330TIP3    H267406   1.331   3.000  12.529  1.2688 -1.1274 -1.8946
15331TIP3   OH267407   2.848   2.030  11.788  0.1623  0.7269  0.1590
15331TIP3    H167408   2.892   2.086  11.724  1.1999  0.1023  0.3093
15331TIP3    H267409   2.755   2.038  11.767  0.4448  1.0142 -1.0393
15332TIP3   OH267410   3.702   3.376   3.346  0.2130  0.4128  0.7542
15332TIP3    H167411   3.685   3.396   3.254 -0.1505 -0.0776  0.7105
15332TIP3    H267412   3.685   3.282   3.353  0.4971  0.4003  1.2645
15333TIP3   OH267413   4.338   1.240   1.181 -0.5570 -0.6188  0.0210
15333TIP3    H167414   4.382   1.186   1.247  1.3040  1.0474  0.1929
15333TIP3    H267415   4.267   1.282   1.229  1.3817  1.3430  1.2649
15334TIP3   OH267416   2.305   2.169   3.931  0.2062 -0.1166 -0.0264
15334TIP3    H167417   2.376   2.134   3.985  0.1228  0.6526  0.5920
15334TIP3    H267418   2.322   2.263   3.926 -0.1788 -0.0866 -0.7591
15335TIP3   OH267419   4.545   1.103   5.007  0.1903 -0.2246 -0.2152
15335TIP3    H167420   4.637   1.082   4.990  0.3429 -1.3858  1.9098
15335TIP3    H267421   4.544   1.139   5.095 -1.1118  1.9414 -1.0782
15336TIP3   OH267422   0.795   0.341  11.220 -0.0396  0.3674 -0.1598
15336TIP3    H167423   0.751   0.262  11.250  0.6601 -0.3425 -0.9534
15336TIP3    H267424   0.725   0.398  11.188 -0.4798 -0.2350 -0.2710
15337TIP3   OH267425   0.995   4.718  13.725 -0.1846  0.1537  0.2470
15337TIP3    H167426   0.902   4.714  13.751 -0.3276  5.0666  0.9044
15337TIP3    H267427   0.993   4.723  13.629 -0.8787  3.4311  0.3654
15338TIP3   OH267428   2.691   3.848  11.167 -0.1610  0.2291  0.4638
15338TIP3    H167429   2.719   3.939  11.171 -1.5992  0.7160 -0.3572
15338TIP3    H267430   2.633   3.844  11.091  1.4031 -1.7981 -0.6638
15339TIP3   OH267431   5.266   5.790   5.678 -0.2596 -0.3640 -0.2304
15339TIP3    H167432   5.352   5.822   5.651  0.9447 -1.7039  1.9181
15339TIP3    H267433   5.228   5.863   5.728  0.3027 -0.3556  0.1854
15340TIP3   OH267434   3.502   5.534   6.071  0.6059 -0.5919 -0.8497
15340TIP3    H167435   3.515   5.629   6.070 -0.5717 -0.3341  1.9841
15340TIP3    H267436   3.587   5.499   6.099  0.9853 -0.3548 -1.7064
15341TIP3   OH267437   5.392   5.390   2.225  0.2351 -0.1030  0.0720
15341TIP3    H167438   5.301   5.400   2.254 -0.0633  0.5391 -1.0394
15341TIP3    H267439   5.438   5.356   2.302 -0.2319  2.8734  1.7898
15342TIP3   OH267440   3.563   1.878  13.984 -0.5624  0.5825  0.8368
15342TIP3    H167441   3.653   1.844  13.980 -0.3689  1.1825 -0.1062
15342TIP3    H267442   3.514   1.810  14.029 -0.1986 -1.0342 -1.1224
15343TIP3   OH267443   3.494   5.786  11.121 -0.2920  0.5121  0.7736
15343TIP3    H167444   3.483   5.783  11.216  0.6357  0.8500  0.8946
15343TIP3    H267445   3.448   5.866  11.094 -0.2346  0.6145  0.9792
15344TIP3   OH267446   4.857   6.397  11.556  0.3686  0.4840 -0.2167
15344TIP3    H167447   4.838   6.470  11.616 -0.5171  1.3941 -1.5936
15344TIP3    H267448   4.809   6.418  11.477  0.5373 -1.3627 -0.8147
15345TIP3   OH267449   1.735   4.544  15.015 -0.1905  0.8165  0.3296
15345TIP3    H167450   1.698   4.629  14.995 -1.0303  0.2081 -0.7561
15345TIP3    H267451   1.659   4.487  15.030  0.2013 -0.7335 -3.0946
15346TIP3   OH267452   3.326   4.337   3.115  0.1091  0.2140 -0.6376
15346TIP3    H167453   3.314   4.248   3.081 -0.2936  0.1555 -0.3424
15346TIP3    H267454   3.395   4.374   3.060  0.8595 -0.5605 -0.2336
15347TIP3   OH267455   3.899   2.841  15.592 -0.4485 -0.0227 -0.2637
15347TIP3    H167456   3.846   2.775  15.636 -0.1998  1.4747  2.3850
15347TIP3    H267457   3.984   2.799  15.580 -0.8886 -0.8716 -0.5050
15348TIP3   OH267458   0.164   2.500  13.403  0.0782 -0.8509 -0.0217
15348TIP3    H167459   0.084   2.549  13.389 -0.2310 -1.8704 -2.0413
15348TIP3    H267460   0.136   2.409  13.415  0.7743 -0.8628  1.7737
15349TIP3   OH267461   5.079   2.073   2.559 -0.0310 -0.0065  0.3798
15349TIP3    H167462   5.108   2.064   2.650 -0.6152 -1.8080  0.4086
15349TIP3    H267463   4.984   2.083   2.565 -0.1434 -0.7802 -0.0551
15350TIP3   OH267464   0.432   4.295  12.516 -0.2614 -0.8577 -0.4038
15350TIP3    H167465   0.526   4.286  12.530 -0.0259  1.7200  0.0008
15350TIP3    H267466   0.419   4.277  12.423  0.7027 -0.8809 -0.5369
15351TIP3   OH267467   6.113   3.683   0.199 -0.3878  0.9012 -0.3794
15351TIP3    H167468   6.102   3.755   0.136 -0.1396  1.3496  0.0801
15351TIP3    H267469   6.190   3.636   0.168  0.0208  1.4051 -0.1562
15352TIP3   OH267470   2.827   2.935  10.511 -0.1302 -0.2782 -0.0491
15352TIP3    H167471   2.886   2.885  10.568  0.5933 -0.0371 -0.5894
15352TIP3    H267472   2.795   2.871  10.448 -0.0861 -0.3100 -0.0396
15353TIP3   OH267473   1.309   3.712  17.058  0.1249  0.3448 -0.0027
15353TIP3    H167474   1.295   3.727  16.964  0.8918 -0.8176 -0.3038
15353TIP3    H267475   1.257   3.634  17.078  0.6847  0.0683  0.3589
15354TIP3   OH267476   3.919   3.579   3.729  0.1324  0.0676  0.2422
15354TIP3    H167477   3.910   3.612   3.818  0.1234  0.4383  0.1038
15354TIP3    H267478   3.956   3.491   3.740  1.1421  0.5233  0.5661
15355TIP3   OH267479   0.530   3.126   6.038  0.5839 -0.1684 -0.0981
15355TIP3    H167480   0.517   3.109   6.131 -1.5568 -1.0525 -0.5503
15355TIP3    H267481   0.473   3.200   6.019 -0.3596 -1.1466 -1.1006
15356TIP3   OH267482   3.580   1.760  12.498 -0.1462  0.2108  0.3461
15356TIP3    H167483   3.517   1.832  12.493 -0.5989 -0.1896  0.2507
15356TIP3    H267484   3.643   1.788  12.565 -0.4909  0.5645  0.5246
15357TIP3   OH267485   2.056   1.931  14.420 -0.1148  0.1827  0.8527
15357TIP3    H167486   2.141   1.909  14.457 -0.4155 -0.7520  1.0111
15357TIP3    H267487   2.074   2.001  14.357  0.9367 -0.7800  0.0627
15358TIP3   OH267488   4.457   1.484   2.930  0.5788  0.3475 -0.0953
15358TIP3    H167489   4.552   1.483   2.939  0.7092  2.3944 -0.9461
15358TIP3    H267490   4.438   1.567   2.885 -1.7948  1.0599  2.1114
15359TIP3   OH267491   4.874   1.382  16.338  0.4839  0.0586 -0.7414
15359TIP3    H167492   4.853   1.394  16.430  3.5611  0.0733  0.0094
15359TIP3    H267493   4.814   1.441  16.292 -2.6244 -1.5884  1.0285
15360TIP3   OH267494   0.118   0.057   4.902 -0.1863 -0.4285  0.0292
15360TIP3    H167495   0.038   0.052   4.955 -0.6533 -1.8060 -0.7749
15360TIP3    H267496   0.152  -0.032   4.902  0.5926 -0.1340 -0.7864
15361TIP3   OH267497   2.151   2.171  16.515 -0.3730  0.1992 -0.3411
15361TIP3    H167498   2.161   2.265  16.531  2.4605 -0.1462  0.2758
15361TIP3    H267499   2.104   2.139  16.592 -1.1936  1.0774 -0.4649
15362TIP3   OH267500   1.713   6.392   4.844 -0.1418 -0.6055  0.0447
15362TIP3    H167501   1.762   6.385   4.762  0.4343  0.4112  0.2886
15362TIP3    H267502   1.638   6.448   4.823 -0.8285 -1.5889 -0.1557
15363TIP3   OH267503   6.552   3.672   2.995 -0.4231  0.2232  0.3070
15363TIP3    H167504   6.626   3.678   2.934  1.1928  1.0198  2.2872
15363TIP3    H267505   6.515   3.760   2.996  0.5362  0.6309  1.6308
15364TIP3   OH267506   1.457   5.326  16.868 -0.4824 -0.1559 -0.1431
15364TIP3    H167507   1.491   5.407  16.830  2.4300 -1.3202 -0.2125
15364TIP3    H267508   1.440   5.270  16.792 -0.9030 -0.1814 -0.0298
15365TIP3   OH267509   3.023   5.738   0.204  0.0773  0.0619  0.3732
15365TIP3    H167510   2.948   5.684   0.180 -0.3881  0.0462  1.7847
15365TIP3    H267511   2.985   5.812   0.251  0.8604  0.6488  0.0966
15366TIP3   OH267512   5.426   6.578   2.815 -0.2613 -0.0344  0.0863
15366TIP3    H167513   5.411   6.554   2.907 -1.2781 -1.1547 -0.3508
15366TIP3    H267514   5.387   6.506   2.765 -1.0375  1.2785 -1.2567
15367TIP3   OH267515   0.864   3.032  11.579 -0.4708  0.0134  0.4380
15367TIP3    H167516   0.911   2.949  11.589 -0.3111  0.1971  1.2080
15367TIP3    H267517   0.860   3.069  11.667 -0.4897  0.8530  0.0959
15368TIP3   OH267518   6.430   0.343   0.413 -0.3689  0.2304 -0.6365
15368TIP3    H167519   6.364   0.411   0.431 -1.2331 -0.7225 -0.1926
15368TIP3    H267520   6.384   0.279   0.359 -0.2197 -1.1525  0.8488
15369TIP3   OH267521   3.264   1.816   3.622  0.0006 -0.3679 -0.2978
15369TIP3    H167522   3.268   1.747   3.555  0.0402 -0.3803 -0.2835
15369TIP3    H267523   3.220   1.889   3.580 -0.3806 -0.5361 -0.1942
15370TIP3   OH267524   3.418   1.179  16.819 -0.0972 -0.0758  0.3367
15370TIP3    H167525   3.428   1.230  16.900  0.9263  1.1339 -0.5260
15370TIP3    H267526   3.325   1.182  16.800  0.0562  2.2361 -0.1639
15371TIP3   OH267527   3.943   3.660   0.179 -0.4405 -0.2576  0.2364
15371TIP3    H167528   3.968   3.568   0.184 -0.0178 -0.1918 -0.5641
15371TIP3    H267529   3.880   3.672   0.249  0.2485 -0.9263  0.9827
15372TIP3   OH267530   2.771   2.915   2.050  0.0023 -0.2328 -0.3224
15372TIP3    H167531   2.802   2.989   2.102 -1.6046  0.9326 -0.9821
15372TIP3    H267532   2.683   2.940   2.022  0.6797 -0.9785 -3.3240
15373TIP3   OH267533   4.364   5.050  15.029  0.0717 -0.2729  0.1825
15373TIP3    H167534   4.349   5.143  15.010  3.1011  0.2319  0.0257
15373TIP3    H267535   4.418   5.050  15.108 -2.8084 -2.0496  2.2205
15374TIP3   OH267536   0.860   5.399   4.331  0.5243 -0.5157 -0.0982
15374TIP3    H167537   0.947   5.405   4.369  0.6228 -0.0440 -0.4087
15374TIP3    H267538   0.874   5.363   4.244  0.5780  1.2647 -0.8354
15375TIP3   OH267539   2.994   5.896  13.134 -0.2300 -0.2278 -0.0387
15375TIP3    H167540   2.973   5.811  13.172  0.9502 -0.6419 -0.2891
15375TIP3    H267541   3.068   5.927  13.186 -0.2709  0.3746 -0.3353
15376TIP3   OH267542   5.412   1.716  15.940 -0.1579 -0.0822  0.0877
15376TIP3    H167543   5.442   1.740  15.852  0.1104  1.6745  0.6404
15376TIP3    H267544   5.488   1.676  15.981 -0.4414 -1.4108 -0.6520
15377TIP3   OH267545   1.654   0.795  11.764 -0.4921  0.0361 -0.1214
15377TIP3    H167546   1.678   0.868  11.821 -1.2928  2.2932 -2.5575
15377TIP3    H267547   1.560   0.784  11.777 -0.3629 -0.6020  0.2806
15378TIP3   OH267548   4.266   0.649  16.375  0.0876  0.1639 -0.4647
15378TIP3    H167549   4.360   0.670  16.373  0.3745 -0.8232  1.0495
15378TIP3    H267550   4.263   0.557  16.401 -1.3063  0.1252 -0.7269
15379TIP3   OH267551   5.956   2.777   5.846 -0.0820  0.2494  0.1798
15379TIP3    H167552   5.984   2.794   5.935 -0.4402  0.4486  0.2570
15379TIP3    H267553   5.863   2.802   5.844 -0.7840 -2.1287  0.4451
15380TIP3   OH267554   1.697   5.301  13.938 -0.0628  0.0180 -0.1372
15380TIP3    H167555   1.609   5.269  13.919 -0.3367  0.7894 -0.1915
15380TIP3    H267556   1.751   5.222  13.942 -0.5495 -0.3770 -1.1920
15381TIP3   OH267557   1.731   5.066  11.986  0.9937 -0.2357  0.0429
15381TIP3    H167558   1.768   5.028  12.066  0.2841 -0.5930  0.2058
15381TIP3    H267559   1.801   5.059  11.921  0.8102 -1.9659  0.0306
15382TIP3   OH267560   5.514   3.839  14.276 -0.1244  0.2645 -0.4048
15382TIP3    H167561   5.444   3.904  14.272 -0.7019 -0.4445 -1.8235
15382TIP3    H267562   5.491   3.784  14.351  0.9269  2.3048  1.4797
15383TIP3   OH267563   5.703   4.365  13.455  0.2616  0.1858  0.2094
15383TIP3    H167564   5.707   4.391  13.363 -0.6319 -1.9093 -0.4464
15383TIP3    H267565   5.653   4.435  13.497  0.2755  0.9327 -0.9815
15384TIP3   OH267566   5.374   2.272   5.277  0.1613  0.3480 -0.2382
15384TIP3    H167567   5.454   2.252   5.326 -0.1005  0.1202  0.0924
15384TIP3    H267568   5.319   2.195   5.288 -0.5366  0.9382  0.3974
15385TIP3   OH267569   5.029   2.238   4.586 -0.5933  0.1675  0.6621
15385TIP3    H167570   5.019   2.324   4.627  0.7186  1.2783 -1.3079
15385TIP3    H267571   4.958   2.233   4.522 -0.5800 -0.1709  0.6713
15386TIP3   OH267572   4.810   6.459   4.614 -0.1945 -0.4294  0.2091
15386TIP3    H167573   4.770   6.454   4.527  0.2439  1.3251 -0.1130
15386TIP3    H267574   4.885   6.400   4.608  0.1382  0.0668 -0.7868
15387TIP3   OH267575   0.581   3.786   2.718  0.4445 -0.2235 -0.9838
15387TIP3    H167576   0.599   3.797   2.625 -0.8602 -0.3506 -1.2650
15387TIP3    H267577   0.582   3.691   2.732  2.5115 -0.1495 -0.4644
15388TIP3   OH267578   5.754   6.452  11.065 -0.7811 -0.0335  0.4175
15388TIP3    H167579   5.772   6.546  11.068 -1.4521  0.0924  0.7005
15388TIP3    H267580   5.685   6.443  10.999  1.3530 -0.6801 -1.7869
15389TIP3   OH267581   1.458   4.574  11.401 -0.0154 -0.2560 -0.3547
15389TIP3    H167582   1.496   4.661  11.388  1.6374 -1.1424 -1.7109
15389TIP3    H267583   1.524   4.526  11.452 -1.5178 -0.3177  1.5763
15390TIP3   OH267584   1.213   1.973  14.087 -0.2720  0.0613  0.6859
15390TIP3    H167585   1.215   2.058  14.042  0.0193  0.0121  0.6063
15390TIP3    H267586   1.283   1.979  14.152 -0.2653 -0.1124  0.6932
15391TIP3   OH267587   0.052   2.929  11.935  0.4553 -0.4130 -0.2848
15391TIP3    H167588   0.059   2.833  11.943 -0.3526 -0.8446 -3.6092
15391TIP3    H267589   0.113   2.951  11.864  0.0257  1.4332 -0.0996
15392TIP3   OH267590   1.309   2.757  14.192 -0.3066 -0.5965  0.3704
15392TIP3    H167591   1.364   2.819  14.145 -0.4082  1.1650  2.4596
15392TIP3    H267592   1.219   2.781  14.166 -0.2887 -0.6377  0.2717
15393TIP3   OH267593   2.302   4.318  13.177 -0.1143  0.2335 -0.1780
15393TIP3    H167594   2.248   4.380  13.226 -0.3658 -1.5374  1.8078
15393TIP3    H267595   2.392   4.349  13.191 -0.2191  0.0048  1.0046
15394TIP3   OH267596   6.233   3.048   1.081  0.1546 -0.5726 -0.3885
15394TIP3    H167597   6.297   3.103   1.037  1.5557 -0.5492  1.6236
15394TIP3    H267598   6.235   2.965   1.033  2.7091 -1.0465  0.4192
15395TIP3   OH267599   2.959   2.024   4.952 -0.3460  0.3723  0.6899
15395TIP3    H167600   2.995   1.938   4.930 -0.5454  1.3571 -3.9302
15395TIP3    H267601   2.868   2.006   4.976 -0.0954 -0.8140  0.8039
15396TIP3   OH267602   3.810   5.483  16.757  0.1505  0.0880 -0.0084
15396TIP3    H167603   3.872   5.410  16.748  0.5964  0.4666 -0.0180
15396TIP3    H267604   3.843   5.534  16.830  0.5218  0.9492 -0.7726
15397TIP3   OH267605   1.414   2.940   1.548  0.1560  0.7156  0.4311
15397TIP3    H167606   1.355   2.872   1.517  0.4318  1.1216 -1.0129
15397TIP3    H267607   1.427   2.920   1.641 -1.0164 -0.2686  0.3942
15398TIP3   OH267608   4.720   5.853  14.425 -0.2722 -0.1508  0.5520
15398TIP3    H167609   4.789   5.890  14.370  0.0336 -1.8880 -0.2874
15398TIP3    H267610   4.738   5.887  14.512  1.0781  0.2130  0.1508
15399TIP3   OH267611   0.071   0.514   1.775 -0.2368 -0.4898  0.5254
15399TIP3    H167612   0.146   0.455   1.781 -0.2878 -0.6633 -0.5906
15399TIP3    H267613   0.050   0.534   1.867  1.2019 -0.3814  0.8363
15400TIP3   OH267614   6.048   1.086  12.294  0.5924 -0.3769  0.0733
15400TIP3    H167615   6.037   0.991  12.287  0.7319 -0.5096  1.4989
15400TIP3    H267616   5.961   1.122  12.278  0.5242 -0.7464 -0.3873
15401TIP3   OH267617   3.309   4.637  15.159  0.2105 -0.0223  0.3760
15401TIP3    H167618   3.383   4.582  15.186 -0.8958 -0.9919  1.4787
15401TIP3    H267619   3.235   4.604  15.209 -0.8281  1.4275 -0.1705
15402TIP3   OH267620   4.459   1.702  11.346 -0.2089 -0.0725 -0.6674
15402TIP3    H167621   4.462   1.779  11.402  1.5213  0.5669 -1.5823
15402TIP3    H267622   4.410   1.730  11.269 -0.9710 -0.3798 -0.2963
15403TIP3   OH267623   4.253   5.520  16.994  0.5015  1.1095 -0.0882
15403TIP3    H167624   4.331   5.574  16.984  0.4826  0.8555 -1.7780
15403TIP3    H267625   4.193   5.552  16.926  0.3783 -0.8092 -0.9358
15404TIP3   OH267626   0.380   4.754   3.988 -0.6370  0.2999 -0.3959
15404TIP3    H167627   0.337   4.808   3.922 -1.0928  1.6250  0.9383
15404TIP3    H267628   0.473   4.761   3.967 -0.6958  1.5779 -0.3085
15405TIP3   OH267629   3.960   4.710  12.398  0.6895 -0.2442  0.1306
15405TIP3    H167630   3.995   4.639  12.343 -1.9264  0.0833 -2.0266
15405TIP3    H267631   3.955   4.785  12.340 -2.1978  0.1080  0.7912
15406TIP3   OH267632   4.575   1.303   4.738  0.3211 -0.2653  0.1171
15406TIP3    H167633   4.535   1.338   4.659 -0.1922  0.7354  0.8122
15406TIP3    H267634   4.502   1.267   4.789  0.2493  1.7658  1.4858
15407TIP3   OH267635   3.855   3.999   0.927 -0.0113  0.1478  0.0569
15407TIP3    H167636   3.784   3.962   0.980 -0.8395  0.7405 -0.6227
15407TIP3    H267637   3.882   3.926   0.871 -0.1532 -0.0506  0.2423
15408TIP3   OH267638   4.306   3.791  12.388 -0.4767 -0.1396  0.6150
15408TIP3    H167639   4.276   3.869  12.341  2.1514  1.2426  1.1414
15408TIP3    H267640   4.400   3.790  12.376 -0.1431 -1.7219  2.9029
15409TIP3   OH267641   5.380   4.884   1.258 -0.2700 -0.5183 -0.0629
15409TIP3    H167642   5.295   4.910   1.294  0.0750  0.0226  0.3695
15409TIP3    H267643   5.439   4.956   1.281  0.4536 -1.1843  0.1795
15410TIP3   OH267644   2.917   3.120  15.602 -0.5553 -0.2330 -0.6279
15410TIP3    H167645   2.830   3.126  15.641  0.4691 -1.8839  2.0867
15410TIP3    H267646   2.918   3.034  15.560  0.4134 -1.0847  1.0980
15411TIP3   OH267647   0.849   0.868   3.215 -0.0742  0.2005  0.2936
15411TIP3    H167648   0.814   0.793   3.264 -1.1210  0.5542  0.0864
15411TIP3    H267649   0.893   0.922   3.281 -0.6986  0.2179  0.6938
15412TIP3   OH267650   5.035   1.696  10.750  0.0025  0.1342  0.0907
15412TIP3    H167651   5.107   1.747  10.713 -1.8208  1.7215 -1.3554
15412TIP3    H267652   5.021   1.626  10.687 -0.9830  0.9639 -0.6259
15413TIP3   OH267653   6.267   5.759  12.551  0.0835 -0.0025 -0.2288
15413TIP3    H167654   6.197   5.818  12.581 -0.6062 -0.8654 -0.1285
15413TIP3    H267655   6.347   5.812  12.557 -0.4087  0.6507  0.6850
15414TIP3   OH267656   0.703   5.230  11.861 -0.0656  0.2463 -0.5823
15414TIP3    H167657   0.617   5.269  11.875 -1.2084 -1.9020 -1.3055
15414TIP3    H267658   0.747   5.288  11.799 -0.9500  1.4007 -0.1443
15415TIP3   OH267659   2.684   0.777  17.211 -0.1860 -0.1800 -0.7743
15415TIP3    H167660   2.729   0.834  17.274 -0.4146 -0.1918 -0.5995
15415TIP3    H267661   2.747   0.707  17.194 -1.0033 -1.4426  1.2439
15416TIP3   OH267662   0.623   5.037   5.250  0.8405 -0.1363  0.8701
15416TIP3    H167663   0.650   4.946   5.250  1.1689 -0.0433  0.4462
15416TIP3    H267664   0.622   5.062   5.342  2.9523  0.0584  0.8810
15417TIP3   OH267665   3.310   1.476   0.359  0.1038  0.2163  0.1215
15417TIP3    H167666   3.364   1.407   0.320  1.4333  0.7478  0.9752
15417TIP3    H267667   3.346   1.488   0.447  0.9688  3.0934 -0.5533
15418TIP3   OH267668   1.824   5.788  15.474  0.6358 -0.3393 -0.1877
15418TIP3    H167669   1.818   5.765  15.382 -2.0855 -1.3298  0.1961
15418TIP3    H267670   1.738   5.766  15.510  0.6537  2.7171  1.9684
15419TIP3   OH267671   6.115   6.339  14.052  0.1738 -0.0225 -0.4006
15419TIP3    H167672   6.117   6.256  14.005 -1.4147 -0.2609 -0.0742
15419TIP3    H267673   6.093   6.317  14.142 -0.6061  0.7711 -0.3845
15420TIP3   OH267674   6.234   0.410  11.668  0.0679 -0.0060 -0.2336
15420TIP3    H167675   6.170   0.480  11.668 -0.4231 -0.4381 -1.7265
15420TIP3    H267676   6.185   0.332  11.695 -0.2042 -0.4752 -2.0613
15421TIP3   OH267677   5.563   1.313  13.381 -0.2935  0.2180  0.4640
15421TIP3    H167678   5.606   1.228  13.376  0.8235  0.7682  0.2965
15421TIP3    H267679   5.573   1.350  13.293  0.6060  1.1559  0.9432
15422TIP3   OH267680   1.489   3.339   1.928 -0.0889 -0.8101  0.3095
15422TIP3    H167681   1.567   3.291   1.899  0.8391 -0.1507  1.6634
15422TIP3    H267682   1.483   3.321   2.022  0.0716  1.4276  0.7789
15423TIP3   OH267683   2.577   6.411  15.230  0.5882  0.1841  0.0928
15423TIP3    H167684   2.536   6.331  15.199  0.7935 -0.0692  0.4719
15423TIP3    H267685   2.505   6.472  15.242  0.4567  0.1268 -0.4096
15424TIP3   OH267686   0.355   0.563  14.324 -0.2720 -0.1367 -0.1830
15424TIP3    H167687   0.282   0.619  14.297 -0.9875  0.2681  2.4317
15424TIP3    H267688   0.314   0.486  14.363  0.6952 -0.4616  0.2291
15425TIP3   OH267689   6.132   2.211  12.014 -0.2274  0.3897 -0.0042
15425TIP3    H167690   6.171   2.243  12.096  1.1213  0.1340 -0.5364
15425TIP3    H267691   6.064   2.149  12.043  0.7263 -0.2495  0.9124
15426TIP3   OH267692   2.120   1.002  16.472  0.0766 -0.1066  0.2860
15426TIP3    H167693   2.194   1.048  16.512  1.2448 -0.1512 -1.7191
15426TIP3    H267694   2.052   1.003  16.539  1.7190  0.3754  2.0042
15427TIP3   OH267695   1.720   2.254   3.953  0.0120  0.4657 -0.5202
15427TIP3    H167696   1.749   2.163   3.960 -0.6629  0.2741 -0.1930
15427TIP3    H267697   1.801   2.305   3.952  0.3728 -0.1013 -0.1322
15428TIP3   OH267698   5.305   2.300  13.959 -0.0152 -0.2087 -0.5789
15428TIP3    H167699   5.358   2.346  13.894 -0.7755  0.7537 -0.5181
15428TIP3    H267700   5.243   2.365  13.991 -0.3200 -0.9522  0.3753
15429TIP3   OH267701   1.493   3.324   0.871  0.5736 -0.1710 -0.0419
15429TIP3    H167702   1.453   3.291   0.952  0.5359  0.6368  0.2777
15429TIP3    H267703   1.581   3.287   0.870 -0.1709 -1.9740 -0.7496
15430TIP3   OH267704   0.479   0.171  13.938 -0.1035  0.7101 -0.2004
15430TIP3    H167705   0.558   0.158  13.886  1.0873  3.8427  0.7125
15430TIP3    H267706   0.412   0.197  13.874  0.7536  2.2526 -0.5088
15431TIP3   OH267707   1.483   5.243   0.898 -0.5617 -0.5023 -0.3815
15431TIP3    H167708   1.548   5.203   0.840 -0.7450 -1.8645  0.3203
15431TIP3    H267709   1.400   5.236   0.851 -0.7179 -1.6487  0.0309
15432TIP3   OH267710   3.986   0.053  14.098 -0.1770  0.0829 -0.0636
15432TIP3    H167711   4.001  -0.033  14.137  1.2089  0.5824  0.5200
15432TIP3    H267712   3.912   0.088  14.148 -0.0365 -0.3111  0.4281
15433TIP3   OH267713   3.534   1.020  11.178  0.8679  0.4152  0.9947
15433TIP3    H167714   3.568   0.939  11.141  1.4559  1.5137 -0.9428
15433TIP3    H267715   3.470   1.051  11.113  0.6084  1.4544  1.7291
15434TIP3   OH267716   5.647   3.947  13.125  0.0728 -0.1548 -0.1768
15434TIP3    H167717   5.585   3.937  13.052  0.5395  2.4672 -0.9687
15434TIP3    H267718   5.592   3.969  13.200 -0.3822 -2.5866  0.2441
15435TIP3   OH267719   1.642   5.964  11.638 -0.1527 -0.7270  0.0395
15435TIP3    H167720   1.649   5.948  11.733 -0.6843 -1.2271 -0.0006
15435TIP3    H267721   1.673   6.053  11.626 -0.2068 -0.6157  0.7057
15436TIP3   OH267722   4.315   4.158  11.433 -0.2844  0.1479 -0.0984
15436TIP3    H167723   4.329   4.089  11.498  0.3114 -1.4495 -1.8864
15436TIP3    H267724   4.365   4.232  11.467  0.3431 -0.7794  1.0721
15437TIP3   OH267725   4.461   3.005   1.231  0.3318  0.4085  0.2065
15437TIP3    H167726   4.546   2.970   1.205  0.3197  1.2113 -0.9655
15437TIP3    H267727   4.467   3.015   1.326  0.7145 -1.6941  0.4272
15438TIP3   OH267728   1.150   1.222   2.313  0.9634  0.1374 -0.0755
15438TIP3    H167729   1.109   1.136   2.307 -1.1656  1.1382 -0.3000
15438TIP3    H267730   1.185   1.226   2.402 -1.1070 -0.0174  0.7633
15439TIP3   OH267731   1.208   2.816   5.666  0.2902 -0.7916 -0.4866
15439TIP3    H167732   1.191   2.822   5.760  1.3588  0.4160 -0.3601
15439TIP3    H267733   1.145   2.751   5.635 -1.0872 -0.0996  0.8018
15440TIP3   OH267734   0.845   5.068   4.237  0.3486  0.3448 -0.9497
15440TIP3    H167735   0.792   5.147   4.244  0.4638  0.1491  3.3439
15440TIP3    H267736   0.781   4.998   4.221 -0.1963  0.7092 -0.3851
15441TIP3   OH267737   5.566   2.832  14.034  0.0543  0.1949  0.2362
15441TIP3    H167738   5.514   2.773  14.087  0.8470 -0.2903  0.4834
15441TIP3    H267739   5.655   2.826  14.070 -0.0863  2.4354  1.0340
15442TIP3   OH267740   1.819   3.843  12.012 -0.3868  0.2073 -0.5846
15442TIP3    H167741   1.765   3.778  12.056 -1.4241  0.7598 -1.0230
15442TIP3    H267742   1.820   3.918  12.071  1.5934 -0.5112  0.3692
15443TIP3   OH267743   3.727   3.316   5.517 -0.1949  0.5031  0.3756
15443TIP3    H167744   3.822   3.309   5.505 -0.2046 -3.5135  1.7499
15443TIP3    H267745   3.715   3.317   5.612 -1.5785 -1.0131  0.2449
15444TIP3   OH267746   5.353   4.346  14.280  0.3878  0.1485 -0.0179
15444TIP3    H167747   5.274   4.320  14.328  1.3765 -0.6779  1.2052
15444TIP3    H267748   5.323   4.412  14.218 -1.2611 -0.1377  0.4523
15445TIP3   OH267749   5.673   3.584   2.093  0.5262 -0.2081  0.8793
15445TIP3    H167750   5.722   3.560   2.172 -0.3744 -0.3482  1.4017
15445TIP3    H267751   5.589   3.540   2.102  0.2902  0.0473 -0.0043
15446TIP3   OH267752   2.076   1.065  13.870 -0.0954 -0.3596  0.1724
15446TIP3    H167753   2.030   1.146  13.848 -1.5577 -0.8645  1.3314
15446TIP3    H267754   2.159   1.094  13.907 -0.0817  0.5856 -0.5745
15447TIP3   OH267755   6.488   3.831  11.469  0.1984  0.0828 -0.2776
15447TIP3    H167756   6.514   3.923  11.470  1.0542 -0.1127 -2.0673
15447TIP3    H267757   6.556   3.786  11.518 -0.9034  0.5505  1.7261
15448TIP3   OH267758   5.234   3.875  14.207 -0.4094  0.0086  0.5880
15448TIP3    H167759   5.233   3.948  14.145 -1.3522 -0.0157  0.5658
15448TIP3    H267760   5.160   3.821  14.181 -0.0366 -0.6774  0.9390
15449TIP3   OH267761   5.081   3.263  11.498 -0.7703  0.4211 -0.2203
15449TIP3    H167762   5.034   3.207  11.436 -2.1931  0.7671  0.5454
15449TIP3    H267763   5.121   3.202  11.560 -2.5683  0.2338  0.7933
15450TIP3   OH267764   5.000   1.361  11.112 -0.1507  0.4492 -0.3907
15450TIP3    H167765   5.091   1.375  11.136  0.0407 -0.2764 -0.6938
15450TIP3    H267766   4.951   1.370  11.194  0.5024 -2.0900  0.3182
15451TIP3   OH267767   4.708   6.603   1.480 -0.5612 -0.0708  0.1541
15451TIP3    H167768   4.734   6.655   1.556 -0.7975 -0.6343  0.6264
15451TIP3    H267769   4.613   6.611   1.476 -0.5856 -0.3495  0.1451
15452TIP3   OH267770   4.597   3.471  13.165 -0.8598 -0.1691 -0.0941
15452TIP3    H167771   4.662   3.401  13.157 -1.9576 -1.2470  0.2544
15452TIP3    H267772   4.625   3.537  13.103 -0.2827 -1.3060 -1.0721
15453TIP3   OH267773   2.911   2.894   1.820  0.2800  0.1572 -0.0501
15453TIP3    H167774   2.835   2.854   1.776 -0.9352  0.1871  1.9739
15453TIP3    H267775   2.875   2.934   1.899  2.3880  0.3569  0.8397
15454TIP3   OH267776   3.763   5.559   5.813 -0.1378 -0.1177  0.2381
15454TIP3    H167777   3.726   5.593   5.731 -1.0243  1.1189  1.1223
15454TIP3    H267778   3.805   5.635   5.853  2.6741 -1.3136 -0.3339
15455TIP3   OH267779   0.688   6.492   5.144  0.3476 -0.4344 -0.3285
15455TIP3    H167780   0.678   6.434   5.219  0.4866 -0.8161 -0.5981
15455TIP3    H267781   0.669   6.580   5.177 -1.8076 -0.8674 -0.3517
15456TIP3   OH267782   0.738   0.658  17.137 -0.0748 -0.0124 -0.0792
15456TIP3    H167783   0.748   0.704  17.220 -0.9989  1.1245 -0.5880
15456TIP3    H267784   0.822   0.672  17.092 -0.7742  2.1950 -0.7232
15457TIP3   OH267785   4.414   3.927   5.597  0.3280  0.2030  0.4304
15457TIP3    H167786   4.427   4.010   5.643  0.3346 -0.1541  1.0783
15457TIP3    H267787   4.438   3.946   5.506 -2.0152  1.5482  0.0525
15458TIP3   OH267788   4.187   4.705   3.251  0.5470  0.0610 -0.0130
15458TIP3    H167789   4.232   4.738   3.328  0.3108  0.6248 -0.1141
15458TIP3    H267790   4.113   4.764   3.239  0.1569 -0.4622 -0.2385
15459TIP3   OH267791   5.929   0.071   4.058  0.5676 -0.2176 -0.1630
15459TIP3    H167792   5.918   0.127   3.981 -0.9393  2.0367  1.6095
15459TIP3    H267793   5.974   0.127   4.122  0.0918 -1.4147  1.2400
15460TIP3   OH267794   2.667   0.527  16.721  0.2963  0.7380 -0.3560
15460TIP3    H167795   2.681   0.550  16.629 -0.5649 -1.3866 -1.0512
15460TIP3    H267796   2.625   0.604  16.759 -0.4635  1.1902 -2.0497
15461TIP3   OH267797   0.696   3.896  15.051  0.6028  0.3163  0.4944
15461TIP3    H167798   0.668   3.805  15.039 -2.0466  0.8927  1.9395
15461TIP3    H267799   0.769   3.907  14.990  0.6454 -2.6232 -0.0625
15462TIP3   OH267800   5.789   5.414  10.755  0.8558  0.7301  0.7051
15462TIP3    H167801   5.852   5.373  10.815  1.0713 -0.6832 -0.4563
15462TIP3    H267802   5.753   5.341  10.705  2.8805  2.1157 -2.9811
15463TIP3   OH267803   5.029   4.484  16.845  0.0717 -0.2907 -0.7780
15463TIP3    H167804   5.022   4.564  16.896  3.2618 -1.3214  1.4209
15463TIP3    H267805   4.939   4.450  16.841 -1.0292  2.4336 -0.2413
15464TIP3   OH267806   1.440   6.640  11.786 -0.4364 -0.1462 -0.0173
15464TIP3    H167807   1.473   6.725  11.755  0.8718 -0.3885  0.6629
15464TIP3    H267808   1.365   6.621  11.729  0.3704  0.6133 -1.3700
15465TIP3   OH267809   1.052   3.368   4.018 -0.0959 -0.3083 -0.4802
15465TIP3    H167810   1.063   3.289   3.965 -1.2722 -1.4591  0.9321
15465TIP3    H267811   0.967   3.403   3.990 -0.3090 -0.4306  0.0040
15466TIP3   OH267812   0.225   3.601   3.158 -0.9967  0.3014 -0.4909
15466TIP3    H167813   0.299   3.661   3.168  0.3526 -1.4577  0.3356
15466TIP3    H267814   0.181   3.603   3.243 -0.8391 -0.0141 -0.4006
15467TIP3   OH267815   2.719   2.213   0.417  0.6006 -0.1067 -1.0085
15467TIP3    H167816   2.751   2.124   0.431 -0.5934 -0.2077  1.3523
15467TIP3    H267817   2.682   2.212   0.329  1.9113 -1.5291 -1.5662
15468TIP3   OH267818   5.191   0.888   3.611  0.4954 -0.4788 -0.1611
15468TIP3    H167819   5.112   0.941   3.615  0.1385 -0.9668 -0.7737
15468TIP3    H267820   5.217   0.876   3.703  0.1328  0.0824  0.0117
15469TIP3   OH267821   6.026   0.262   0.309  0.3873  0.2122 -0.6568
15469TIP3    H167822   5.965   0.230   0.242 -0.7953 -0.8169  0.8823
15469TIP3    H267823   6.018   0.200   0.381  1.2534  1.5923  0.6624
15470TIP3   OH267824   2.090   3.294  11.995  0.0842  0.0255  0.0402
15470TIP3    H167825   2.007   3.304  11.950  0.1731 -0.6016 -0.2765
15470TIP3    H267826   2.156   3.320  11.930  0.0665  1.7768  0.7184
15471TIP3   OH267827   0.892   2.120  14.342 -0.2200 -0.0538  0.4543
15471TIP3    H167828   0.959   2.053  14.351  0.2923  0.2572 -1.0248
15471TIP3    H267829   0.810   2.075  14.365 -0.0753 -1.5840 -1.9022
15472TIP3   OH267830   0.568   6.173  11.477 -0.2039 -0.4796 -0.9582
15472TIP3    H167831   0.501   6.129  11.424 -0.0207 -2.4902  0.3973
15472TIP3    H267832   0.519   6.210  11.551 -0.1308  0.2144 -1.2495
15473TIP3   OH267833   1.416   5.895   1.315  0.5036  0.0863  0.4405
15473TIP3    H167834   1.481   5.943   1.366 -0.8243  0.6570  1.6481
15473TIP3    H267835   1.347   5.959   1.298 -1.6920 -1.5167  2.7774
15474TIP3   OH267836   5.635   2.091  14.207  0.3781  0.2120  0.2936
15474TIP3    H167837   5.727   2.100  14.181 -0.3783  1.0033 -2.1675
15474TIP3    H267838   5.586   2.087  14.125 -1.8336  0.0279  1.5672
15475TIP3   OH267839   3.648   1.668   1.689 -0.8473 -0.1344  0.7002
15475TIP3    H167840   3.709   1.594   1.702  0.6736  0.8620 -0.5138
15475TIP3    H267841   3.576   1.630   1.638 -1.2340 -1.3154  2.0794
15476TIP3   OH267842   6.098   6.370  15.414 -0.2605 -0.1898 -0.1591
15476TIP3    H167843   6.154   6.320  15.355  1.7250  3.3008 -1.3812
15476TIP3    H267844   6.106   6.460  15.384 -2.9192  1.0520  2.5777
15477TIP3   OH267845   3.304   4.411  15.495 -0.0904 -0.3564  0.7020
15477TIP3    H167846   3.260   4.492  15.521 -1.4425 -0.3243 -1.5983
15477TIP3    H267847   3.333   4.427  15.405 -1.2588 -2.7880 -0.1514
15478TIP3   OH267848   0.930   5.081  16.712 -0.5335 -0.2379 -0.5587
15478TIP3    H167849   0.997   5.019  16.740 -0.4156 -0.6666 -1.7469
15478TIP3    H267850   0.895   5.118  16.793 -0.8921 -2.1629  0.1675
15479TIP3   OH267851   1.662   0.796   5.276 -0.1242 -0.0284  0.3368
15479TIP3    H167852   1.588   0.814   5.219  0.1461  1.4216  0.4291
15479TIP3    H267853   1.732   0.852   5.243  0.4707 -0.2534  1.1957
15480TIP3   OH267854   2.393   0.494  13.861 -0.2595  0.2750  0.4061
15480TIP3    H167855   2.408   0.470  13.769  0.3507  0.2919  0.5001
15480TIP3    H267856   2.411   0.588  13.864 -2.5718  0.7585  0.0530
15481TIP3   OH267857   5.545   1.034  17.059 -0.2638 -0.3520 -0.6157
15481TIP3    H167858   5.534   0.939  17.060  1.2234 -0.5979 -2.9164
15481TIP3    H267859   5.576   1.055  17.147  1.2935 -2.2723 -0.6616
15482TIP3   OH267860   4.092   1.066  15.974  0.0176  0.5562  0.0993
15482TIP3    H167861   4.012   1.048  16.024  1.9651  0.3448  3.3142
15482TIP3    H267862   4.100   1.161  15.977 -0.1750  0.5881 -0.3528
15483TIP3   OH267863   6.015   3.906   4.303 -0.0775  0.0218 -0.4041
15483TIP3    H167864   5.982   3.894   4.214 -0.1983  1.3208 -0.5412
15483TIP3    H267865   5.941   3.886   4.360  0.1431 -1.3152 -0.5688
15484TIP3   OH267866   3.242   4.509  11.918  0.3002 -0.9939  0.2432
15484TIP3    H167867   3.210   4.497  12.007  3.3536  1.1090  1.7439
15484TIP3    H267868   3.211   4.596  11.893 -2.7560 -2.6304 -1.8067
15485TIP3   OH267869   4.025   3.138  16.788 -0.5346 -0.2254  0.5279
15485TIP3    H167870   3.988   3.176  16.708 -0.1743  0.7591  0.8249
15485TIP3    H267871   4.056   3.213  16.838 -0.5932 -0.8493  1.5165
15486TIP3   OH267872   5.155   6.354  16.847 -0.0975 -0.0143 -0.1995
15486TIP3    H167873   5.084   6.303  16.808  0.5366 -1.1376  0.0924
15486TIP3    H267874   5.159   6.325  16.938 -0.2692  1.1673  0.1933
15487TIP3   OH267875   3.112   1.653  14.788  0.0129  0.3482  0.6632
15487TIP3    H167876   3.075   1.725  14.839 -2.0475  0.1577 -0.5329
15487TIP3    H267877   3.052   1.580  14.803  1.4689 -0.8027  0.9608
15488TIP3   OH267878   5.917   1.567  13.277 -0.6394 -0.1490  0.0408
15488TIP3    H167879   5.823   1.580  13.289 -0.5773  0.0185  0.3231
15488TIP3    H267880   5.935   1.607  13.191 -0.0917  3.3666  1.7159
15489TIP3   OH267881   0.240   5.318  11.607 -0.5122  0.3828 -0.4990
15489TIP3    H167882   0.290   5.379  11.553 -0.8428  0.6784 -0.4788
15489TIP3    H267883   0.305   5.276  11.663 -0.3137  0.9051 -0.3347
15490TIP3   OH267884   4.812   1.199   5.812  0.1653  0.5008 -0.6384
15490TIP3    H167885   4.866   1.218   5.735  1.5341  3.0314  0.8721
15490TIP3    H267886   4.870   1.148   5.870 -0.5238 -0.5268 -0.8414
15491TIP3   OH267887   4.230   0.484  14.457 -0.3067  0.0512  0.5589
15491TIP3    H167888   4.170   0.558  14.468  0.1539  0.6111 -0.6475
15491TIP3    H267889   4.308   0.509  14.508 -0.8708 -0.4455  1.6924
15492TIP3   OH267890   5.876   4.887  16.547  0.6435 -0.0091  0.5240
15492TIP3    H167891   5.925   4.837  16.481  0.4439 -1.6913  1.6311
15492TIP3    H267892   5.937   4.896  16.620  0.4485  0.8311  0.5896
15493TIP3   OH267893   2.294   5.700  15.203  0.1452 -0.5325  0.1126
15493TIP3    H167894   2.371   5.700  15.147  1.0594 -0.9921  1.3490
15493TIP3    H267895   2.302   5.780  15.255 -0.8016 -0.0056 -0.5334
15494TIP3   OH267896   0.050   0.384  11.966  0.3090 -0.2722  0.0593
15494TIP3    H167897   0.015   0.295  11.960  0.3444 -0.2900  0.1133
15494TIP3    H267898   0.067   0.409  11.875  2.0832 -1.0469  0.1599
15495TIP3   OH267899   3.097   2.761  13.929  0.2831  0.3853 -0.0517
15495TIP3    H167900   3.027   2.798  13.875  0.4161 -0.6443 -0.9365
15495TIP3    H267901   3.165   2.828  13.930  0.8484 -0.1105 -2.2748
15496TIP3   OH267902   4.989   2.149   0.364  0.1695 -0.2792 -0.0143
15496TIP3    H167903   4.974   2.092   0.289 -1.5681  0.5593 -0.3315
15496TIP3    H267904   5.048   2.099   0.421 -0.5621 -1.9776 -0.7269
15497TIP3   OH267905   0.380   4.534   3.668 -0.0505 -0.1575 -0.4401
15497TIP3    H167906   0.418   4.499   3.588  1.5124 -1.4816  0.8647
15497TIP3    H267907   0.298   4.485   3.679  0.6326 -1.2643 -0.2467
15498TIP3   OH267908   1.468   4.669   5.990 -0.8060 -0.2865  0.7257
15498TIP3    H167909   1.501   4.758   6.004  0.1653 -0.7922  1.7044
15498TIP3    H267910   1.528   4.632   5.925 -1.9647  0.1876 -0.6291
15499TIP3   OH267911   2.477   1.792  15.235 -0.2962 -0.0513 -0.3504
15499TIP3    H167912   2.536   1.789  15.159 -2.0930 -0.5530 -1.7640
15499TIP3    H267913   2.389   1.782  15.197 -1.3228  1.1379  1.6795
15500TIP3   OH267914   0.594   4.033  12.439 -0.0171 -0.0211  0.1574
15500TIP3    H167915   0.641   3.977  12.378  0.3055 -1.9543  2.1467
15500TIP3    H267916   0.501   4.021  12.417  0.1911  0.9275 -1.3068
15501TIP3   OH267917   5.230   6.378  13.281 -0.3162 -0.3177  0.5843
15501TIP3    H167918   5.310   6.376  13.230 -1.0037 -0.0329 -0.5214
15501TIP3    H267919   5.160   6.368  13.217 -1.1551 -0.8140  1.5587
15502TIP3   OH267920   3.874   3.951  15.555  0.2793  0.0194  0.3380
15502TIP3    H167921   3.915   3.867  15.535 -1.0038 -0.4261 -0.4825
15502TIP3    H267922   3.947   4.006  15.585  1.6110 -0.5064 -1.8119
15503TIP3   OH267923   5.795   5.392   4.995 -0.0064 -0.1971  0.0274
15503TIP3    H167924   5.803   5.308   4.950 -1.1778 -0.5198  0.4062
15503TIP3    H267925   5.878   5.401   5.043  1.2847  0.1911 -2.1994
15504TIP3   OH267926   1.919   0.620  11.082  0.4213  0.1376 -0.0577
15504TIP3    H167927   1.968   0.538  11.086 -1.5901 -1.0043  2.3569
15504TIP3    H267928   1.829   0.594  11.061 -0.6172  1.4725  2.4041
15505TIP3   OH267929   2.335   4.626   0.170 -0.1210 -0.1265 -0.3118
15505TIP3    H167930   2.316   4.539   0.204 -0.2265 -0.8655 -2.2295
15505TIP3    H267931   2.255   4.676   0.188  0.1299 -0.2568  1.2535
15506TIP3   OH267932   1.509   1.298  12.210  0.4112 -0.1303 -0.1069
15506TIP3    H167933   1.493   1.252  12.127 -0.5293 -1.3122  0.7113
15506TIP3    H267934   1.425   1.337  12.233  0.9086  0.9877 -0.1802
15507TIP3   OH267935   1.683   5.001  13.187  0.5582 -0.2380 -0.0605
15507TIP3    H167936   1.665   5.077  13.243 -0.3897 -1.0091  0.7018
15507TIP3    H267937   1.777   4.989  13.191  0.4678 -0.4774  1.6477
15508TIP3   OH267938   0.749   5.339   4.608 -0.2347 -0.5884 -0.3851
15508TIP3    H167939   0.824   5.281   4.591 -0.7625 -1.2315 -0.5467
15508TIP3    H267940   0.689   5.285   4.660 -0.0531  0.3143  0.7756
15509TIP3   OH267941   4.417   4.106  15.142 -0.0404  0.0128  0.0877
15509TIP3    H167942   4.477   4.040  15.177 -0.9584 -0.6596  0.3939
15509TIP3    H267943   4.468   4.149  15.073  0.3834 -1.3819 -0.4884
15510TIP3   OH267944   6.731   0.869   4.791 -0.1168  0.1597  0.1320
15510TIP3    H167945   6.790   0.917   4.849 -0.7897  4.2769 -2.3720
15510TIP3    H267946   6.644   0.902   4.812 -0.7924 -0.9977 -0.7502
15511TIP3   OH267947   5.155   4.143  16.936  0.2826 -0.0607  0.5509
15511TIP3    H167948   5.083   4.139  16.999  1.0568  0.2195  1.4515
15511TIP3    H267949   5.219   4.080  16.968  1.2026  0.9385  0.7005
15512TIP3   OH267950   1.360   0.942  17.054 -0.2102  0.0416  0.1338
15512TIP3    H167951   1.304   1.014  17.022  1.7564  2.1339  1.2798
15512TIP3    H267952   1.299   0.870  17.069 -2.1294  1.1722 -1.8606
15513TIP3   OH267953   1.394   0.337  12.362 -0.6601 -0.2034  0.6333
15513TIP3    H167954   1.462   0.334  12.295  0.6174 -1.4194  1.9393
15513TIP3    H267955   1.442   0.347  12.445 -2.2519  2.1267  1.3000
15514TIP3   OH267956   1.027   5.863  14.610  0.0474 -0.3766 -0.7821
15514TIP3    H167957   0.933   5.881  14.621  0.4717  1.7886 -0.4082
15514TIP3    H267958   1.031   5.798  14.539 -1.7825 -1.3150 -0.0613
15515TIP3   OH267959   5.245   5.903  13.550  0.6908 -0.3834  0.3156
15515TIP3    H167960   5.254   5.997  13.534 -0.9351 -0.6980 -2.8125
15515TIP3    H267961   5.326   5.866  13.514 -0.7791 -0.5847 -3.0015
15516TIP3   OH267962   6.016   0.964   3.126 -0.5135  0.4697  0.2251
15516TIP3    H167963   5.941   0.905   3.118 -1.2153  1.4150 -0.3382
15516TIP3    H267964   5.977   1.051   3.131  0.5457  0.9607  0.0483
15517TIP3   OH267965   0.536   0.704  15.114 -0.1685 -0.2364 -0.2312
15517TIP3    H167966   0.538   0.618  15.072 -1.5821  0.3539 -1.5369
15517TIP3    H267967   0.448   0.710  15.152 -0.0535  0.6154 -0.0882
15518TIP3   OH267968   1.902   4.596  16.047 -0.2517 -0.0980 -0.7537
15518TIP3    H167969   1.931   4.668  15.990  1.8832 -0.0428  0.3978
15518TIP3    H267970   1.865   4.532  15.986  0.8099  0.5404 -2.1056
15519TIP3   OH267971   2.672   0.777   0.427  0.0380 -0.6663 -0.5781
15519TIP3    H167972   2.625   0.787   0.510  2.1707  0.0150  0.5873
15519TIP3    H267973   2.633   0.844   0.370 -0.3006 -0.0037  0.4125
15520TIP3   OH267974   3.074   6.110  13.445  0.2959 -0.2753 -0.2751
15520TIP3    H167975   3.018   6.167  13.394  0.6998 -1.0033 -1.5434
15520TIP3    H267976   3.153   6.098  13.391  0.3674 -1.7355  0.1243
15521TIP3   OH267977   3.084   2.545  13.697 -0.4818  0.2558 -0.1635
15521TIP3    H167978   3.103   2.612  13.764 -0.8329 -0.4565  0.6589
15521TIP3    H267979   3.026   2.590  13.635 -0.8355  0.6739  0.4632
15522TIP3   OH267980   3.948   3.115   1.191 -0.1486  0.1792 -0.2483
15522TIP3    H167981   4.033   3.071   1.195  0.9741  2.2973  0.0934
15522TIP3    H267982   3.904   3.089   1.272  0.0219 -1.2135 -0.5924
15523TIP3   OH267983   2.991   5.435   1.960  0.1058 -0.2399  0.6243
15523TIP3    H167984   3.063   5.497   1.971  0.9909 -1.2466  0.6271
15523TIP3    H267985   2.940   5.441   2.041  1.3880 -1.0289  1.5084
15524TIP3   OH267986   4.921   0.077  15.415 -0.3886  0.5788  0.0491
15524TIP3    H167987   4.885   0.071  15.326 -1.7397  1.9094  0.4970
15524TIP3    H267988   4.853   0.120  15.466 -0.7383 -2.6527  2.4014
15525TIP3   OH267989   5.088   3.988  12.778  0.3810 -0.3425  0.1905
15525TIP3    H167990   5.094   4.001  12.684 -2.5689  0.5137  0.0881
15525TIP3    H267991   5.110   3.896  12.791  1.9527 -0.1820 -1.1845
15526TIP3   OH267992   5.876   0.637   0.755 -0.0504  0.6744  0.1740
15526TIP3    H167993   5.830   0.608   0.676  1.0111 -1.2136  0.2274
15526TIP3    H267994   5.964   0.660   0.725  0.3095  0.0894  0.7729
15527TIP3   OH267995   4.896   2.145   1.577 -0.2670 -0.0203 -0.2896
15527TIP3    H167996   4.852   2.225   1.606  1.7993  1.2403 -0.5211
15527TIP3    H267997   4.882   2.142   1.482 -0.4124  0.0354 -0.2687
15528TIP3   OH267998   6.477   2.961   4.028 -0.2137  0.4058 -0.4309
15528TIP3    H167999   6.401   2.904   4.032 -0.4139  0.7360  0.9588
15528TIP3    H268000   6.461   3.019   3.953 -0.7638 -0.3026 -0.8583
15529TIP3   OH268001   4.347   5.994  13.099 -0.3031  0.8118 -0.1636
15529TIP3    H168002   4.309   5.934  13.035 -0.5647  0.1048  0.6334
15529TIP3    H268003   4.430   5.952  13.124  0.3793  1.6970 -0.9455
15530TIP3   OH268004   5.425   6.100   4.660 -0.1451 -0.1208 -0.2427
15530TIP3    H168005   5.369   6.080   4.735  1.4873 -0.3155  0.9498
15530TIP3    H268006   5.367   6.093   4.584 -1.8212  0.0729  0.9886
15531TIP3   OH268007   6.290   1.138  13.469  0.7685 -0.0063 -0.3771
15531TIP3    H168008   6.330   1.086  13.539 -1.6821  0.3031  1.2971
15531TIP3    H268009   6.313   1.228  13.490  0.4961  0.0425 -0.2935
15532TIP3   OH268010   4.212   6.617  12.660  0.1146 -0.3984  0.0155
15532TIP3    H168011   4.256   6.583  12.738 -0.0225  1.7676  1.0683
15532TIP3    H268012   4.260   6.577  12.586  2.4811  0.2363  1.1631
15533TIP3   OH268013   5.169   0.414  15.504  0.3482  0.2925  0.2170
15533TIP3    H168014   5.148   0.339  15.560  0.8865 -0.6942 -0.8947
15533TIP3    H268015   5.090   0.468  15.506 -0.2596 -0.5978  0.5440
15534TIP3   OH268016   2.885   1.319   0.781  0.2675  0.2072  0.1268
15534TIP3    H168017   2.957   1.369   0.743 -0.6007  0.2878 -1.4458
15534TIP3    H268018   2.885   1.237   0.733  0.5373 -0.5978  1.4751
15535TIP3   OH268019   4.322   0.737  13.121 -0.0873 -0.0791 -0.3110
15535TIP3    H168020   4.230   0.731  13.094 -0.1948 -0.2097  0.0781
15535TIP3    H268021   4.322   0.707  13.212  0.3173  0.0708 -0.2611
15536TIP3   OH268022   5.842   0.305   5.107  0.1058 -0.1130 -0.1333
15536TIP3    H168023   5.793   0.333   5.184  0.3860 -0.9863  0.3717
15536TIP3    H268024   5.798   0.225   5.078  0.7691 -0.4774 -0.1380
15537TIP3   OH268025   5.129   2.635   1.460 -0.1175  0.1065 -0.2682
15537TIP3    H168026   5.058   2.683   1.416 -0.6769 -1.5102 -1.1614
15537TIP3    H268027   5.206   2.690   1.447 -1.1652  1.8849  0.6946
15538TIP3   OH268028   6.361   2.084  16.617 -0.2394 -0.6051 -0.0144
15538TIP3    H168029   6.377   2.075  16.523  1.1850  0.0917  0.1386
15538TIP3    H268030   6.291   2.149  16.623 -0.5147 -0.8448 -0.6048
15539TIP3   OH268031   6.044   6.415  14.635  0.1023  0.2114 -0.2026
15539TIP3    H168032   6.116   6.470  14.665  0.0539  1.6158 -2.5581
15539TIP3    H268033   5.969   6.474  14.630 -0.3542 -0.4336 -1.1692
15540TIP3   OH268034   4.323   0.056  15.396  0.0042  0.5681  0.2510
15540TIP3    H168035   4.374   0.015  15.466  0.2496  0.4124 -0.0186
15540TIP3    H268036   4.388   0.103  15.344 -0.1445  0.4830 -0.0116
15541TIP3   OH268037   2.341   2.267   2.805  0.2709 -0.1756 -0.1455
15541TIP3    H168038   2.295   2.280   2.888 -0.8731 -1.4790 -0.5408
15541TIP3    H268039   2.308   2.183   2.773  0.9885  0.1298 -1.7314
15542TIP3   OH268040   1.411   2.451  13.970 -0.1409  0.6749 -0.1316
15542TIP3    H168041   1.346   2.502  13.922  0.4545  1.4628 -0.1044
15542TIP3    H268042   1.478   2.514  13.994  0.8916 -0.2393 -0.6023
15543TIP3   OH268043   6.335   2.949   4.323  0.0561 -0.1110  0.1293
15543TIP3    H168044   6.277   2.875   4.304 -0.9531  0.7608 -0.1923
15543TIP3    H268045   6.400   2.913   4.383  0.5617 -1.6905 -1.3523
15544TIP3   OH268046   5.298   0.134  13.846 -0.3439 -0.0437 -0.1107
15544TIP3    H168047   5.347   0.169  13.772 -1.2761 -0.1496 -0.7896
15544TIP3    H268048   5.212   0.113  13.809 -1.3029  1.2733  1.3225
15545TIP3   OH268049   0.569   5.679  14.950  0.6246 -0.6382 -0.3959
15545TIP3    H168050   0.560   5.641  14.862  0.0519 -0.8887 -0.2347
15545TIP3    H268051   0.517   5.621  15.006  1.2719 -0.6751  0.1697
15546TIP3   OH268052   3.039   0.525   1.236  0.7178  0.4144  0.3855
15546TIP3    H168053   3.019   0.582   1.310  0.9661 -1.6791  2.1039
15546TIP3    H268054   3.134   0.509   1.242  0.4072 -1.4068  0.8503
15547TIP3   OH268055   4.416   1.123   0.468 -0.1326 -0.5068 -0.0656
15547TIP3    H168056   4.487   1.069   0.503 -0.2838  0.1445  1.2685
15547TIP3    H268057   4.337   1.087   0.508 -0.4657 -0.6331 -0.8220
15548TIP3   OH268058   0.339   6.419  15.545  0.3637 -0.0020  0.5500
15548TIP3    H168059   0.303   6.360  15.611  0.9206 -0.5053  0.4139
15548TIP3    H268060   0.344   6.504  15.588 -1.4363  0.1861  0.4048
15549TIP3   OH268061   1.722   2.668   1.240  0.4614  0.1220 -0.2487
15549TIP3    H168062   1.700   2.716   1.320 -1.7263  0.3127 -0.9069
15549TIP3    H268063   1.756   2.585   1.271 -1.3102 -0.2106  0.9185
15550TIP3   OH268064   2.341   3.806  15.260  0.1132 -0.1006 -0.3041
15550TIP3    H168065   2.336   3.749  15.183 -1.9523 -0.1635 -0.1525
15550TIP3    H268066   2.427   3.788  15.298  0.6658 -0.9502 -1.9208
15551TIP3   OH268067   0.906   3.688   4.126 -0.5746  0.1319 -0.0689
15551TIP3    H168068   0.834   3.627   4.111 -0.9829  0.6033 -0.0425
15551TIP3    H268069   0.950   3.655   4.205  0.5405 -1.3681 -1.3030
15552TIP3   OH268070   0.563   6.531  14.473  0.1742  0.7635  0.2065
15552TIP3    H168071   0.556   6.604  14.534  0.4138 -0.5365  1.8138
15552TIP3    H268072   0.584   6.455  14.528  0.6899 -0.3745 -1.5165
15553TIP3   OH268073   4.763   4.565   1.701  0.8411  1.0656  0.0470
15553TIP3    H168074   4.817   4.642   1.720 -0.3274  1.7797  0.5269
15553TIP3    H268075   4.744   4.527   1.786  0.4180  0.9414 -0.0999
15554TIP3   OH268076   1.882   3.032   4.817 -0.2476  0.6482  0.0560
15554TIP3    H168077   1.862   2.998   4.904 -0.8095  2.8741  0.8314
15554TIP3    H268078   1.966   2.992   4.794 -0.0068  0.1795  1.7063
15555TIP3   OH268079   6.657   1.259  15.154  0.2526 -0.0196 -0.5226
15555TIP3    H168080   6.724   1.278  15.088 -0.8330  1.5274 -1.2178
15555TIP3    H268081   6.575   1.255  15.104 -0.5450  0.9488  0.6722
15556TIP3   OH268082   3.217   3.289  14.810  0.4294 -0.1227 -0.3131
15556TIP3    H168083   3.136   3.318  14.851  1.0772  0.0431  0.8573
15556TIP3    H268084   3.286   3.323  14.866  1.3959  1.4648 -2.3948
15557TIP3   OH268085   0.149   3.111   0.570  0.6179  0.4929  0.6181
15557TIP3    H168086   0.227   3.059   0.586 -0.1448 -1.2228 -1.0536
15557TIP3    H268087   0.084   3.076   0.630 -0.1962 -1.2619 -1.2031
15558TIP3   OH268088   4.049   3.361  12.479  0.2655  0.3356  0.0653
15558TIP3    H168089   4.070   3.453  12.463 -1.8921  1.2458  2.1825
15558TIP3    H268090   3.953   3.358  12.477  0.3252 -2.2974 -2.0668
15559TIP3   OH268091   1.348   1.529  17.232  0.0569 -0.0059  0.3175
15559TIP3    H168092   1.284   1.599  17.243  0.2877 -0.0066  1.6898
15559TIP3    H268093   1.343   1.478  17.313 -0.7453 -2.1150 -1.0051
15560TIP3   OH268094   4.188   3.302   0.562  0.4030 -0.7130  0.1771
15560TIP3    H168095   4.104   3.290   0.517 -0.2524 -1.1400  1.5026
15560TIP3    H268096   4.211   3.215   0.595  1.8539 -0.8042 -0.9740
15561TIP3   OH268097   2.176   6.408  12.311  0.3096  0.2695  0.0036
15561TIP3    H168098   2.166   6.501  12.290 -2.9411 -0.3318 -1.3352
15561TIP3    H268099   2.240   6.376  12.248  0.3882  1.2982 -0.4432
15562TIP3   OH268100   2.891   1.501   3.043  0.3212  0.4183  0.4252
15562TIP3    H168101   2.886   1.407   3.027 -0.1663  0.2436  1.5656
15562TIP3    H268102   2.950   1.534   2.975  1.2905 -0.8501  0.6392
15563TIP3   OH268103   3.654   4.789  14.604 -0.3942 -0.3431 -0.1653
15563TIP3    H168104   3.641   4.728  14.677  2.4016  0.1612  0.8139
15563TIP3    H268105   3.680   4.734  14.531  1.9254 -0.4001  0.6612
15564TIP3   OH268106   4.979   3.893  13.545 -0.0920 -0.5416 -0.5405
15564TIP3    H168107   5.017   3.975  13.512  0.5329 -1.0948 -1.2356
15564TIP3    H268108   4.950   3.848  13.466  2.5926 -2.4687 -0.4730
15565TIP3   OH268109   1.311   0.409  16.141 -0.0089 -0.0644 -0.6052
15565TIP3    H168110   1.345   0.328  16.103  0.3751  0.4537 -1.3995
15565TIP3    H268111   1.221   0.389  16.167  0.1602 -0.8035 -0.5835
15566TIP3   OH268112   4.412   1.924   0.419  0.5349  0.0827  0.1435
15566TIP3    H168113   4.378   1.957   0.503  1.6382  1.7467 -0.0323
15566TIP3    H268114   4.341   1.871   0.383  0.2821 -1.1802  2.4148
15567TIP3   OH268115   1.005   0.792   2.992  0.1199  0.3175  0.3843
15567TIP3    H168116   1.044   0.706   3.005  0.4173  0.3355 -0.3806
15567TIP3    H268117   0.940   0.799   3.062 -0.3217 -0.7629  0.0904
15568TIP3   OH268118   1.027   2.251   2.733 -0.0018  0.3338 -0.5446
15568TIP3    H168119   0.965   2.192   2.690 -0.6104 -0.7877  1.8066
15568TIP3    H268120   1.000   2.339   2.706 -1.5841 -0.2400 -0.8542
15569TIP3   OH268121   3.516   0.167   3.081 -0.2781  0.1642 -0.3310
15569TIP3    H168122   3.521   0.235   3.014  4.0378 -0.9293 -1.2466
15569TIP3    H268123   3.564   0.203   3.155  1.3923 -1.5387 -0.5547
15570TIP3   OH268124   1.724   5.892  14.104  0.1279  0.2181  0.5442
15570TIP3    H168125   1.690   5.922  14.020  0.6858 -0.5236  0.0426
15570TIP3    H268126   1.687   5.805  14.115 -0.3879  0.5306  1.3403
15571TIP3   OH268127   6.469   1.027  15.665  0.3252 -0.5635 -0.4204
15571TIP3    H168128   6.507   1.080  15.735 -3.0291  0.5555  0.6189
15571TIP3    H268129   6.458   1.088  15.592  0.1530 -0.8177 -0.6091
15572TIP3   OH268130   3.097   5.013   0.825  0.2046  0.1033  0.6263
15572TIP3    H168131   3.016   5.036   0.780  1.2146 -3.7509 -3.5039
15572TIP3    H268132   3.076   4.933   0.874  1.7009 -1.7248 -1.5709
15573TIP3   OH268133   6.436   2.943  11.713  0.1629 -0.0666 -0.1546
15573TIP3    H168134   6.416   2.970  11.624  0.7881  0.9730  0.0069
15573TIP3    H268135   6.517   2.990  11.735 -0.6136  0.6103  1.3684
15574TIP3   OH268136   6.763   1.541  14.952 -0.3840  0.2616 -0.3405
15574TIP3    H168137   6.692   1.540  15.016  0.0451  1.5278  0.1607
15574TIP3    H268138   6.838   1.578  14.998 -0.1750  1.5627 -1.6855
15575TIP3   OH268139   6.542   5.376  12.016  0.1171  0.5677  0.3170
15575TIP3    H168140   6.526   5.423  12.098  0.4668  0.9867  0.1520
15575TIP3    H268141   6.597   5.302  12.040  0.5194  0.8962  0.4060
15576TIP3   OH268142   5.415   5.078   1.723  0.2355  0.3852  0.1823
15576TIP3    H168143   5.362   5.120   1.655 -1.4018  1.3350  2.0132
15576TIP3    H268144   5.505   5.087   1.691 -0.3561  2.4530 -1.0053
15577TIP3   OH268145   3.811   1.733  13.988  0.6519  0.1043  0.2200
15577TIP3    H168146   3.893   1.723  13.940  0.8400 -1.2718  0.8141
15577TIP3    H268147   3.760   1.655  13.968 -0.2974  0.6955  0.2838
15578TIP3   OH268148   4.128   0.321  15.850  0.0069 -0.2449  0.3956
15578TIP3    H168149   4.192   0.378  15.891 -1.0571  0.2637  1.3904
15578TIP3    H268150   4.147   0.234  15.885  0.1677 -0.0967  0.6809
15579TIP3   OH268151   6.250   1.945  14.993 -0.2784 -0.4710 -0.5032
15579TIP3    H168152   6.214   2.005  15.059 -0.5066 -1.3517  0.1857
15579TIP3    H268153   6.333   1.916  15.029  0.2692  0.1223 -1.2564
15580TIP3   OH268154   2.398   3.534   1.211 -0.0519 -0.4077 -0.0676
15580TIP3    H168155   2.473   3.527   1.151 -0.6520 -3.3096 -0.5280
15580TIP3    H268156   2.437   3.526   1.298  0.2469 -1.1473 -0.2705
15581TIP3   OH268157   4.902   1.918   0.981 -0.0400 -0.3003  0.6499
15581TIP3    H168158   4.943   1.890   0.899  0.6354  0.5145  0.7040
15581TIP3    H268159   4.813   1.943   0.956  0.3284  0.4470  0.0689
15582TIP3   OH268160   6.546   0.701   0.760 -0.3010  0.3750  0.3040
15582TIP3    H168161   6.545   0.769   0.828 -1.7951  0.0983  0.5681
15582TIP3    H268162   6.497   0.628   0.799  4.8497 -2.5639  1.7332
15583TIP3   OH268163   0.737   2.129  13.596 -0.5582 -0.1650 -0.0306
15583TIP3    H168164   0.740   2.034  13.607 -0.0148 -0.3233 -1.4110
15583TIP3    H268165   0.811   2.149  13.539 -0.2361  1.1827  0.8287
15584TIP3   OH268166   4.787   3.800   2.286  0.2227 -0.0599  0.1323
15584TIP3    H168167   4.709   3.764   2.242  1.0116 -1.2304 -0.3402
15584TIP3    H268168   4.752   3.866   2.346 -0.8953  1.6932 -2.3234
15585TIP3   OH268169   0.713   6.032   0.564  0.3825  0.5518 -0.3232
15585TIP3    H168170   0.757   5.965   0.616 -1.0588 -0.6547 -0.5995
15585TIP3    H268171   0.780   6.064   0.504  0.8778 -1.2911 -0.7867
15586TIP3   OH268172   3.438   6.507   0.372 -0.0981 -0.2717 -0.5938
15586TIP3    H168173   3.495   6.567   0.419 -0.3776 -0.4667 -0.0024
15586TIP3    H268174   3.362   6.496   0.429  0.3001 -1.7997 -0.3503
15587TIP3   OH268175   6.240   1.249   0.751  0.5603 -0.2983 -0.3426
15587TIP3    H168176   6.335   1.242   0.764  0.8080  0.3354 -1.6722
15587TIP3    H268177   6.206   1.271   0.837  1.7961  0.9403 -0.1371
15588TIP3   OH268178   1.043   2.895   4.357 -0.0680 -0.2927  0.1050
15588TIP3    H168179   1.038   2.871   4.449  0.3429  1.2945  0.5467
15588TIP3    H268180   0.956   2.875   4.322 -0.5290  0.0179  1.0622
15589TIP3   OH268181   1.134   0.476  17.213 -0.5871 -0.2154  0.3027
15589TIP3    H168182   1.112   0.439  17.128 -1.0734 -1.1483  0.8222
15589TIP3    H268183   1.132   0.401  17.273 -0.3298  0.4416  1.1482
15590TIP3   OH268184   1.752   6.044   3.530  0.4638  0.2766  0.0767
15590TIP3    H168185   1.791   6.001   3.607  1.8514  0.0849 -0.7201
15590TIP3    H268186   1.813   6.026   3.459 -1.5299 -0.7777 -1.4146
15591TIP3   OH268187   6.128   3.589  12.569  0.7739 -0.0759 -0.6144
15591TIP3    H168188   6.049   3.641  12.558  0.6667  0.1060  0.8287
15591TIP3    H268189   6.104   3.501  12.540  0.1482  0.0623 -0.5113
15592TIP3   OH268190   2.635   6.017  12.088 -0.6735  0.3552  0.4776
15592TIP3    H168191   2.668   6.103  12.111  0.3758  0.2869 -0.6974
15592TIP3    H268192   2.712   5.960  12.092 -1.2776 -0.4397  0.8398
15593TIP3   OH268193   5.399   5.631   4.780 -0.9821 -0.4009 -0.0046
15593TIP3    H168194   5.422   5.548   4.737 -0.0041 -0.1395  0.0088
15593TIP3    H268195   5.375   5.689   4.708  1.6967  0.3750 -0.3514
15594TIP3   OH268196   3.612   0.881   2.141 -0.4363  0.3227  0.2833
15594TIP3    H168197   3.655   0.831   2.210 -0.1317  0.4106  0.1572
15594TIP3    H268198   3.557   0.944   2.188 -0.9376 -0.2182  0.4451
15595TIP3   OH268199   3.384   3.282   5.070  0.1212  0.3343 -0.2560
15595TIP3    H168200   3.450   3.237   5.124  0.4406  0.6026 -0.4184
15595TIP3    H268201   3.359   3.358   5.122  0.5102  0.6533 -0.5262
15596TIP3   OH268202   2.962   2.967  11.769 -0.7334 -0.0158 -1.2688
15596TIP3    H168203   2.953   3.059  11.794  1.3172 -0.3548  0.8518
15596TIP3    H268204   2.936   2.965  11.677 -2.6471  2.3448 -0.8423
15597TIP3   OH268205   2.382   3.428   4.629  0.3401  0.1821 -0.1485
15597TIP3    H168206   2.327   3.357   4.661  0.9315 -0.1349  0.1776
15597TIP3    H268207   2.400   3.405   4.538 -1.3118  1.0652 -0.7253
15598TIP3   OH268208   6.338   0.922  13.694  0.1163 -0.2232 -0.4841
15598TIP3    H168209   6.381   0.869  13.762 -1.5311 -1.0368 -0.0461
15598TIP3    H268210   6.376   0.891  13.612  0.9072 -0.4243 -0.0459
15599TIP3   OH268211   1.949   5.128   5.468  0.5773 -0.1412 -0.6096
15599TIP3    H168212   1.953   5.218   5.502 -0.0433  0.4288 -2.0372
15599TIP3    H268213   2.009   5.128   5.393  3.1071 -1.7888  1.3281
15600TIP3   OH268214   1.156   0.193   3.573 -0.6682  0.5292 -1.0095
15600TIP3    H168215   1.245   0.196   3.608 -0.3001 -3.1378 -1.4448
15600TIP3    H268216   1.101   0.229   3.642  0.7674 -0.7644  0.8407
15601TIP3   OH268217   2.071   3.162  10.612 -0.4777  0.0540  0.5391
15601TIP3    H168218   2.105   3.155  10.702  0.8177  1.1798  0.1655
15601TIP3    H268219   1.984   3.124  10.616  0.1672 -1.3512  1.9383
15602TIP3   OH268220   0.062   5.175  13.676  0.1526 -0.4182 -0.6485
15602TIP3    H168221   0.057   5.268  13.653  2.1653 -0.1624 -0.1551
15602TIP3    H268222   0.032   5.129  13.598 -2.5663  0.6681 -0.2969
15603TIP3   OH268223   2.903   3.781   1.043 -0.3416 -0.1892  0.2980
15603TIP3    H168224   2.891   3.791   1.138 -3.4005 -1.5912  0.1045
15603TIP3    H268225   2.935   3.691   1.032  2.1493  0.6777  0.1178
15604TIP3   OH268226   0.241   1.161  13.821 -0.2797  0.0687  0.8937
15604TIP3    H168227   0.288   1.206  13.751  1.5045 -1.0067  1.3589
15604TIP3    H268228   0.216   1.230  13.882  0.0455  0.7566  0.2566
15605TIP3   OH268229   4.669   0.047   4.012  0.0592  0.0229  0.5743
15605TIP3    H168230   4.592   0.016   3.964 -0.1778 -0.0344  0.9877
15605TIP3    H268231   4.644   0.041   4.104 -0.4818  2.7081  0.6246
15606TIP3   OH268232   2.905   4.865   5.061  0.2193  0.0123 -0.0416
15606TIP3    H168233   2.814   4.836   5.052  0.3910 -0.4799 -0.2099
15606TIP3    H268234   2.901   4.960   5.054 -0.1130 -0.1065 -1.4902
15607TIP3   OH268235   4.643   0.672  12.992  0.1126  0.9343 -0.3414
15607TIP3    H168236   4.562   0.708  12.955 -0.3730  2.5451  2.1583
15607TIP3    H268237   4.621   0.581  13.014 -0.0009  0.3728 -2.6477
15608TIP3   OH268238   4.093   2.501  13.544 -0.7890  0.2046  0.5648
15608TIP3    H168239   4.066   2.531  13.457 -3.5243 -0.1611  1.2560
15608TIP3    H268240   4.150   2.426  13.527  0.5264  1.5019 -0.9564
15609TIP3   OH268241   3.466   2.890   1.005  0.3950 -0.4739 -0.2835
15609TIP3    H168242   3.546   2.843   0.983 -0.3713 -2.0118  0.1052
15609TIP3    H268243   3.416   2.828   1.059  1.0595  2.1694  3.5763
15610TIP3   OH268244   0.457   4.219   3.134  0.1299 -0.1872 -0.1199
15610TIP3    H168245   0.541   4.264   3.134  0.5324 -0.9480 -1.4047
15610TIP3    H268246   0.464   4.152   3.067 -0.6806 -1.8100  1.3559
15611TIP3   OH268247   3.892   1.698  11.336 -0.6570  0.2637 -0.0679
15611TIP3    H168248   3.908   1.791  11.318  1.4483 -0.5160 -2.6001
15611TIP3    H268249   3.803   1.682  11.305  0.1154  0.7603 -2.6521
15612TIP3   OH268250   2.923   4.681   5.582 -0.0025  0.4556  0.4732
15612TIP3    H168251   2.844   4.695   5.634  0.8763  1.4218  1.6034
15612TIP3    H268252   2.912   4.737   5.505 -0.3531  0.7128  0.7087
15613TIP3   OH268253   6.123   1.409   5.281  0.6424  0.0183 -0.1681
15613TIP3    H168254   6.038   1.408   5.237  0.2571 -0.0279  0.5868
15613TIP3    H268255   6.169   1.485   5.243  0.9596 -0.9976 -1.8855
15614TIP3   OH268256   4.046   1.380   0.766 -0.3864 -0.3913  0.4005
15614TIP3    H168257   4.089   1.429   0.696 -1.5433 -0.1499 -0.1690
15614TIP3    H268258   4.053   1.437   0.843 -0.0276 -0.1923  0.2216
15615TIP3   OH268259   3.228   2.677  14.744  0.4489 -0.0790  0.3227
15615TIP3    H168260   3.232   2.622  14.666  0.9085 -1.1185  1.0668
15615TIP3    H268261   3.312   2.723  14.744  0.1242  0.5355 -0.2164
15616TIP3   OH268262   3.735   2.235  12.965  0.1498 -0.3174  0.8929
15616TIP3    H168263   3.727   2.288  13.044 -0.6829 -1.7808  1.8123
15616TIP3    H268264   3.645   2.211  12.942  0.5901 -2.5333  1.3484
15617TIP3   OH268265   4.473   1.594  16.813 -0.0726 -0.1765  0.6344
15617TIP3    H168266   4.413   1.527  16.846 -1.3154  0.9168  0.6175
15617TIP3    H268267   4.530   1.547  16.752 -1.4382 -1.0469  0.0200
15618TIP3   OH268268   5.499   1.033   5.670  0.3646  0.4440  0.1397
15618TIP3    H168269   5.432   1.058   5.734 -1.0766 -1.0832 -0.7142
15618TIP3    H268270   5.582   1.047   5.714 -0.5207  2.2731  1.2741
15619TIP3   OH268271   2.099   1.275   0.050 -0.6464  0.4591  0.5560
15619TIP3    H168272   2.139   1.199   0.093 -1.2994 -0.4160 -0.3715
15619TIP3    H268273   2.160   1.297  -0.021 -2.0316 -1.2325 -1.2238
15620TIP3   OH268274   3.588   2.915  13.689  0.1159 -0.9400  0.0057
15620TIP3    H168275   3.569   2.867  13.609 -0.8139 -2.2750  1.0108
15620TIP3    H268276   3.628   2.997  13.659  1.3726 -2.1678 -1.7331
15621TIP3   OH268277   5.415   0.064  14.253  0.8018 -0.6482 -0.4634
15621TIP3    H168278   5.504   0.098  14.243  0.9935 -1.1437 -0.4765
15621TIP3    H268279   5.419  -0.024  14.215 -0.1487  0.0283 -2.1694
15622TIP3   OH268280   3.435   5.945  15.287  0.3564  0.0492 -0.2564
15622TIP3    H168281   3.405   5.984  15.205  0.3708  0.2435 -0.1700
15622TIP3    H268282   3.364   5.963  15.349 -0.0917 -0.9408 -0.4613
15623TIP3   OH268283   3.441   1.939   5.560 -0.0638  0.1521 -0.2629
15623TIP3    H168284   3.403   2.015   5.516  0.4142  1.0567  0.8527
15623TIP3    H268285   3.366   1.890   5.592 -0.3768  1.9522  1.9614
15624TIP3   OH268286   6.291   0.121  13.111 -0.2052 -0.5014 -0.2892
15624TIP3    H168287   6.330   0.139  13.025  0.6559 -0.6864  0.0605
15624TIP3    H268288   6.291   0.206  13.155  0.5206 -0.6400 -0.0051
15625TIP3   OH268289   3.417   6.559  16.482  0.2798  0.2013  0.6880
15625TIP3    H168290   3.424   6.621  16.409  2.3019  1.1434  1.6615
15625TIP3    H268291   3.454   6.478  16.447 -0.5389  0.0876  0.0561
15626TIP3   OH268292   4.106   0.526  14.918 -0.0732  0.2514  0.4730
15626TIP3    H168293   4.072   0.560  15.000  0.2659  1.1701  0.2345
15626TIP3    H268294   4.201   0.534  14.925 -0.0904  1.4392 -0.4789
15627TIP3   OH268295   1.635   1.848   4.691  0.6943  0.2239 -0.0167
15627TIP3    H168296   1.705   1.912   4.698  1.7313 -0.9278  0.2402
15627TIP3    H268297   1.575   1.870   4.763  1.8552 -0.0740  1.0581
15628TIP3   OH268298   2.773   6.042  11.234  0.4285 -0.5321  0.1470
15628TIP3    H168299   2.705   5.995  11.185  0.3667 -1.0131  0.6912
15628TIP3    H268300   2.746   6.034  11.326 -1.7541  4.0037  0.0001
15629TIP3   OH268301   2.103   3.006   1.189  0.4990 -0.0531  0.1325
15629TIP3    H168302   2.022   3.005   1.240  0.7708 -1.5002  0.5622
15629TIP3    H268303   2.143   3.091   1.208 -0.4767  0.3063  0.6053
15630TIP3   OH268304   5.144   2.881  11.174  0.0246  0.2502 -0.3027
15630TIP3    H168305   5.141   2.881  11.078  0.2562  2.5043 -0.3421
15630TIP3    H268306   5.235   2.903  11.194 -0.2030  0.5142  0.4340
15631TIP3   OH268307   2.950   3.330  14.938 -1.2181  0.3049  0.1444
15631TIP3    H168308   2.911   3.243  14.926 -0.1227 -0.0568 -0.8423
15631TIP3    H268309   2.954   3.341  15.033 -1.0371 -0.8788  0.2844
15632TIP3   OH268310   1.239   5.221  12.902  0.1143  0.0032 -0.5301
15632TIP3    H168311   1.288   5.283  12.847  0.9557  0.0199  0.2361
15632TIP3    H268312   1.156   5.266  12.920  1.0692  1.2783  0.7423
15633TIP3   OH268313   4.904   0.876   0.475 -0.5208  0.1899 -0.3014
15633TIP3    H168314   4.920   0.817   0.549  2.4707  0.2866 -0.8044
15633TIP3    H268315   4.887   0.818   0.401 -1.6081  0.0609  0.0374
15634TIP3   OH268316   4.234   6.268  16.566  0.2299  0.7455  0.2268
15634TIP3    H168317   4.251   6.362  16.572  0.0918  0.7568  0.4426
15634TIP3    H268318   4.254   6.245  16.475  1.8125  0.6875  0.5805
15635TIP3   OH268319   3.767   6.147  16.814  0.3521  0.1201  0.1421
15635TIP3    H168320   3.810   6.229  16.793  0.9918  0.7045  3.5692
15635TIP3    H268321   3.707   6.168  16.885 -2.8914 -1.4755 -1.9721
15636TIP3   OH268322   1.039   0.950   1.868 -0.6572  0.3528  0.0780
15636TIP3    H168323   1.109   0.922   1.927 -1.0165  0.7294  0.6842
15636TIP3    H268324   1.067   0.919   1.782  0.5529  1.0247  0.2105
15637TIP3   OH268325   3.662   3.007  11.482 -0.6248  0.4402  0.7567
15637TIP3    H168326   3.663   3.094  11.442 -0.8260  0.8137  1.5481
15637TIP3    H268327   3.750   2.973  11.466 -0.1578  1.2776  1.4645
15638TIP3   OH268328   2.624   4.562  15.771  0.1365  0.0056 -0.9428
15638TIP3    H168329   2.559   4.507  15.814  0.8205 -0.1429 -0.0746
15638TIP3    H268330   2.653   4.511  15.695  0.1359 -0.4566 -0.6327
15639TIP3   OH268331   3.618   0.718   3.329  0.1482  0.3114 -0.2944
15639TIP3    H168332   3.563   0.639   3.332 -0.6028  0.8231 -0.4623
15639TIP3    H268333   3.679   0.707   3.402 -2.0499  1.0846  1.7001
15640TIP3   OH268334   0.846   2.527  11.877  0.1196 -0.5097  0.2874
15640TIP3    H168335   0.831   2.532  11.971  0.7284  0.2258  0.3484
15640TIP3    H268336   0.825   2.614  11.845  0.7920 -0.4971 -0.1288
15641TIP3   OH268337   3.455   2.761   1.867 -0.1904 -0.3880  0.1425
15641TIP3    H168338   3.389   2.699   1.837 -0.6002 -0.3192  0.8853
15641TIP3    H268339   3.505   2.713   1.933 -2.1192  0.8561  2.5641
15642TIP3   OH268340   2.547   6.300   3.537 -0.0273 -0.7912 -0.1976
15642TIP3    H168341   2.574   6.332   3.623  0.4698 -0.9870 -0.2757
15642TIP3    H268342   2.452   6.309   3.536  0.0395  0.0066  0.0559
15643TIP3   OH268343   3.032   5.400   1.346  0.4852  0.2397  0.2083
15643TIP3    H168344   2.966   5.448   1.297 -1.9461 -2.0934  1.0312
15643TIP3    H268345   3.079   5.467   1.396 -0.7053  2.0353 -1.0313
15644TIP3   OH268346   3.753   2.609  15.385 -0.2045 -0.3028 -0.6631
15644TIP3    H168347   3.782   2.616  15.476  1.7263 -3.1116 -0.9973
15644TIP3    H268348   3.750   2.515  15.369 -0.5752  0.1721 -3.4829
15645TIP3   OH268349   2.116   4.171  13.807 -0.1777 -0.1109  0.0621
15645TIP3    H168350   2.053   4.142  13.872 -0.1405 -1.3453 -0.4477
15645TIP3    H268351   2.139   4.092  13.758 -0.5613  0.8654 -1.7529
15646TIP3   OH268352   3.913   5.616  16.398  0.6135  0.1919 -1.0500
15646TIP3    H168353   3.851   5.668  16.450  2.6329  2.7215 -1.0162
15646TIP3    H268354   3.928   5.537  16.450 -2.3643 -0.3442 -0.9596
15647TIP3   OH268355   0.793   4.824   0.622 -0.3672  0.6253  0.1788
15647TIP3    H168356   0.729   4.753   0.622 -0.6863  0.8994  1.8322
15647TIP3    H268357   0.852   4.805   0.695 -0.2666  1.8943  0.4524
15648TIP3   OH268358   4.442   3.558   3.276  0.6328  0.1601  0.5662
15648TIP3    H168359   4.406   3.525   3.194  1.4602  0.4382  0.0838
15648TIP3    H268360   4.368   3.561   3.336 -0.0716  0.4187 -0.3202
15649TIP3   OH268361   4.079   3.021  15.204 -0.0944  0.4710 -0.2298
15649TIP3    H168362   3.986   3.042  15.215 -0.1711  0.4373 -0.8040
15649TIP3    H268363   4.125   3.085  15.258 -0.4879  0.0278  0.6325
15650TIP3   OH268364   1.233   2.608  13.810  0.4122  0.2645  0.0002
15650TIP3    H168365   1.171   2.670  13.849 -0.3910 -0.8201  0.4679
15650TIP3    H268366   1.221   2.619  13.716 -1.3937 -0.8242  0.0857
15651TIP3   OH268367   1.031   1.210  15.349 -0.2828 -0.1940 -0.2229
15651TIP3    H168368   1.056   1.135  15.295  1.3307  0.0255  0.1920
15651TIP3    H268369   1.033   1.284  15.288 -0.3995 -0.2443 -0.2890
15652TIP3   OH268370   0.807   0.502  12.538  0.1013 -0.1761  0.3374
15652TIP3    H168371   0.769   0.433  12.484  0.1237  0.5288 -0.5879
15652TIP3    H268372   0.829   0.572  12.477  0.8117  0.3395  1.1599
15653TIP3   OH268373   1.326   0.198   4.325 -0.0303 -0.7769 -0.0556
15653TIP3    H168374   1.404   0.228   4.372 -0.0020  0.7050 -1.0122
15653TIP3    H268375   1.357   0.184   4.235 -0.6476 -1.0995 -0.2124
15654TIP3   OH268376   3.390   2.253   4.471  0.0691  0.1629 -0.4851
15654TIP3    H168377   3.295   2.254   4.461  0.1756  0.8879 -1.4383
15654TIP3    H268378   3.404   2.265   4.565 -0.7565  1.0183 -0.4657
15655TIP3   OH268379   0.922   4.571  11.624  0.2460  0.3122 -0.0753
15655TIP3    H168380   0.913   4.486  11.580  0.7624 -0.0006  0.4308
15655TIP3    H268381   0.859   4.628  11.578 -2.8291 -1.2726  1.9558
15656TIP3   OH268382   6.608   3.620  14.232 -0.3691  0.1576 -0.5828
15656TIP3    H168383   6.520   3.590  14.253 -0.7194  0.5011 -1.5479
15656TIP3    H268384   6.595   3.702  14.184  0.4447 -0.1734 -1.3939
15657TIP3   OH268385   0.287   0.320   3.463 -0.2629 -0.2717 -0.4057
15657TIP3    H168386   0.221   0.251   3.458 -1.8851  1.2875 -1.2608
15657TIP3    H268387   0.281   0.365   3.379  1.9890 -0.1696 -0.5319
15658TIP3   OH268388   2.005   5.968   5.720  0.0979 -0.0807  0.3437
15658TIP3    H168389   1.925   6.018   5.739  1.0872  1.2392  1.1867
15658TIP3    H268390   2.013   5.906   5.793  0.0013  0.0024  0.4249
15659TIP3   OH268391   3.842   0.042   4.624  0.1092  0.3083 -0.3251
15659TIP3    H168392   3.834   0.013   4.715 -0.8808  1.0575 -0.1689
15659TIP3    H268393   3.765   0.097   4.610 -1.2733 -2.0370 -2.4511
15660TIP3   OH268394   1.470   1.355   0.195  0.3648 -0.1863 -0.0183
15660TIP3    H168395   1.482   1.262   0.179  1.0166  0.1066 -1.2676
15660TIP3    H268396   1.527   1.398   0.132 -0.8323  1.0747 -0.2664
15661TIP3   OH268397   0.414   0.419  10.569  0.4257 -0.0963  0.1838
15661TIP3    H168398   0.331   0.457  10.540 -0.3690 -0.6136  1.7060
15661TIP3    H268399   0.478   0.488  10.557 -0.2519  0.3664 -0.8611
15662TIP3   OH268400   3.016   2.778  10.770 -0.0361  0.0879  0.3426
15662TIP3    H168401   3.042   2.864  10.738 -1.6464 -0.6476 -3.1408
15662TIP3    H268402   3.098   2.729  10.779  0.6714  1.2313  0.0864
15663TIP3   OH268403   3.253   0.591   3.542 -0.0430 -0.0781 -0.0582
15663TIP3    H168404   3.301   0.522   3.588  0.8106  1.4433  1.4238
15663TIP3    H268405   3.313   0.666   3.543 -1.0961  0.7883 -1.2907
15664TIP3   OH268406   2.266   6.345   3.522 -0.1779 -0.4214 -0.3466
15664TIP3    H168407   2.299   6.428   3.487 -2.6331  1.3097  1.1767
15664TIP3    H268408   2.175   6.341   3.491 -0.4593 -1.9141  0.6322
15665TIP3   OH268409   6.288   4.165   3.623 -0.2161  0.0087  0.0555
15665TIP3    H168410   6.208   4.145   3.671 -0.4468  2.2090  0.6326
15665TIP3    H268411   6.358   4.121   3.672 -0.4534  2.1836  2.3915
15666TIP3   OH268412   3.583   0.828   0.599  0.8082  0.5087 -0.0289
15666TIP3    H168413   3.579   0.818   0.504 -1.5569  1.4650 -0.0557
15666TIP3    H268414   3.534   0.753   0.632  2.0004 -0.0680  0.4862
15667TIP3   OH268415   1.694   5.037  13.940  0.1076  0.2078 -1.3078
15667TIP3    H168416   1.712   4.982  14.017  0.7179  1.8357 -0.2510
15667TIP3    H268417   1.753   5.004  13.873 -0.5547 -1.3569 -1.1416
15668TIP3   OH268418   4.653   0.091   2.881  0.0216  0.3000  0.2825
15668TIP3    H168419   4.573   0.069   2.930 -0.2857  2.1926  0.6550
15668TIP3    H268420   4.719   0.105   2.948  0.2911  0.2448  0.0284
15669TIP3   OH268421   1.685   4.086   5.116 -0.5208 -0.0469  0.3848
15669TIP3    H168422   1.709   4.169   5.157 -2.0574  0.3284  0.5563
15669TIP3    H268423   1.748   4.076   5.045  1.0181  0.1923  1.7021
15670TIP3   OH268424   4.093   6.419  13.818  0.2502  0.1185 -0.1507
15670TIP3    H168425   4.132   6.425  13.905  1.5474  1.6872 -0.7937
15670TIP3    H268426   4.168   6.419  13.758 -0.6639  2.2982 -1.3851
15671TIP3   OH268427   2.826   3.488   3.867  0.2165 -0.2643  0.0280
15671TIP3    H168428   2.833   3.412   3.810 -0.7522 -1.4782  1.4688
15671TIP3    H268429   2.899   3.477   3.929 -0.5438 -0.6141  0.8824
15672TIP3   OH268430   4.943   2.450  13.347  0.6035  0.4828 -0.3472
15672TIP3    H168431   5.006   2.387  13.381  0.6630  0.6462 -0.1543
15672TIP3    H268432   4.980   2.477  13.263 -0.6181 -1.5515 -1.5848
15673TIP3   OH268433   5.011   1.102  16.283 -0.1312  0.9448  0.2293
15673TIP3    H168434   5.020   1.124  16.375 -1.4726  2.7893 -0.0548
15673TIP3    H268435   4.974   1.181  16.242 -1.1059 -0.3917 -1.5859
15674TIP3   OH268436   2.554   5.180   1.725 -0.1559  0.1252 -0.2570
15674TIP3    H168437   2.579   5.223   1.807 -1.5581 -0.0844  0.2944
15674TIP3    H268438   2.617   5.213   1.660  0.0303  1.4506  0.5782
15675TIP3   OH268439   3.903   4.707   3.956 -0.0685 -0.4150 -0.1433
15675TIP3    H168440   3.944   4.651   4.022 -2.4297 -0.8302  1.0159
15675TIP3    H268441   3.822   4.662   3.933 -0.7332  1.2433 -1.1156
15676TIP3   OH268442   4.513   1.936   0.102 -0.4644  0.2287 -0.2952
15676TIP3    H168443   4.503   1.940   0.006 -1.1298 -3.3145 -0.4171
15676TIP3    H268444   4.435   1.891   0.132 -0.1942  1.2187  1.9412
15677TIP3   OH268445   4.888   4.196  13.640 -0.1318 -0.1422  0.2336
15677TIP3    H168446   4.870   4.272  13.586 -0.1631 -0.4349 -0.1687
15677TIP3    H268447   4.819   4.133  13.618  0.8708 -0.9453 -0.6976
15678TIP3   OH268448   4.963   3.578   0.934 -0.2496  0.3169  0.1343
15678TIP3    H168449   5.034   3.578   0.869  0.3590 -0.2354  0.7943
15678TIP3    H268450   4.950   3.670   0.956  0.9991  0.3414  0.8072
15679TIP3   OH268451   3.866   5.332  13.336  0.4354 -0.0244 -0.3661
15679TIP3    H168452   3.821   5.403  13.382 -0.5156 -1.0019  0.2458
15679TIP3    H268453   3.796   5.271  13.313  0.8171  0.5999 -3.4563
15680TIP3   OH268454   5.294   1.293  16.137  0.3198  0.1748 -0.2231
15680TIP3    H168455   5.303   1.368  16.078  1.8304 -0.7517 -1.2110
15680TIP3    H268456   5.237   1.325  16.208 -1.5452  1.3196 -2.1628
15681TIP3   OH268457   4.130   4.573  16.589 -0.3985 -0.3676  0.4921
15681TIP3    H168458   4.115   4.590  16.496 -0.6670 -3.4632 -0.0756
15681TIP3    H268459   4.085   4.645  16.634 -1.7742  0.1944 -1.7229
15682TIP3   OH268460   3.480   0.518   0.888 -0.0437  0.0949  0.7741
15682TIP3    H168461   3.504   0.516   0.795  2.2875 -0.3461  1.3770
15682TIP3    H268462   3.527   0.593   0.923 -0.0097 -0.4352  1.8593
15683TIP3   OH268463   2.343   3.042   4.181 -0.5087 -0.5970  0.8156
15683TIP3    H168464   2.344   2.996   4.097  0.2764  1.4412 -0.3403
15683TIP3    H268465   2.280   2.994   4.234  0.6223 -3.2632 -0.1576
15684TIP3   OH268466   2.546   1.139   5.156 -0.7187 -0.2291  0.3150
15684TIP3    H168467   2.589   1.183   5.082 -0.5440 -4.4466 -2.2823
15684TIP3    H268468   2.463   1.185   5.166  0.5307  2.3038 -0.5819
15685TIP3   OH268469   1.256   4.408   4.879  0.8522 -0.6027  0.4176
15685TIP3    H168470   1.225   4.499   4.880  1.0175 -0.5559  1.0192
15685TIP3    H268471   1.300   4.396   4.962  1.1459 -1.1310  0.1895
15686TIP3   OH268472   1.102   0.438   1.575 -0.9180 -0.7811  0.0914
15686TIP3    H168473   1.188   0.474   1.555 -0.8956 -0.6584  0.4047
15686TIP3    H268474   1.041   0.506   1.548 -0.8070  0.2243  2.2595
15687TIP3   OH268475   0.531   3.794   6.114  0.2502 -0.2784  0.4174
15687TIP3    H168476   0.461   3.803   6.179  1.5226 -1.1943  1.9470
15687TIP3    H268477   0.488   3.754   6.038 -1.4425  1.6084  0.3429
15688TIP3   OH268478   5.227   1.351   5.704  0.4061  0.3734  0.2616
15688TIP3    H168479   5.229   1.443   5.733 -1.5173  0.7878 -0.8581
15688TIP3    H268480   5.295   1.346   5.637 -0.2135  1.2368 -0.4337
15689TIP3   OH268481   2.107   5.911   1.213 -0.1777  0.5171 -0.2560
15689TIP3    H168482   2.107   5.816   1.204 -1.3927  0.3712  1.1428
15689TIP3    H268483   2.193   5.932   1.250  0.9783  0.2085 -2.6624
15690TIP3   OH268484   5.008   2.954   5.515 -0.0683  0.0528  0.0133
15690TIP3    H168485   4.970   3.042   5.519 -1.8686 -0.7082  0.3268
15690TIP3    H268486   5.017   2.928   5.606 -1.1185 -0.7351 -0.1019
15691TIP3   OH268487   1.756   3.848  16.910 -0.5273 -0.1518 -0.6960
15691TIP3    H168488   1.692   3.814  16.973  0.4703  0.1972  0.5312
15691TIP3    H268489   1.806   3.913  16.959  1.8647 -1.5851 -1.1342
15692TIP3   OH268490   5.259   1.874   2.067  0.0706 -0.1898 -0.8882
15692TIP3    H168491   5.292   1.814   2.001 -1.0238 -0.9574 -0.7536
15692TIP3    H268492   5.196   1.822   2.118  1.4647  0.1489  1.2504
15693TIP3   OH268493   2.728   2.806   1.558 -0.4765  0.1633  1.0656
15693TIP3    H168494   2.811   2.829   1.517 -2.5151  0.8993 -2.8514
15693TIP3    H268495   2.731   2.711   1.568  0.4795  0.0975  0.1728
15694TIP3   OH268496   0.801   4.893  16.331 -0.1030 -0.3090  0.0559
15694TIP3    H168497   0.837   4.975  16.298  0.7345 -0.1721  1.2603
15694TIP3    H268498   0.763   4.916  16.416 -1.0602 -0.8976 -0.2106
15695TIP3   OH268499   6.406   4.922   1.686  0.8122 -0.3367 -0.1071
15695TIP3    H168500   6.364   4.934   1.601 -0.4282  0.0503  0.5430
15695TIP3    H268501   6.391   4.830   1.708  0.4568 -0.2443  0.0418
15696TIP3   OH268502   2.645   4.740   3.827  0.0735  0.4344 -0.8149
15696TIP3    H168503   2.656   4.729   3.732 -0.3217 -0.0395 -0.8061
15696TIP3    H268504   2.652   4.834   3.841 -0.6678  0.5814 -1.4158
15697TIP3   OH268505   0.964   1.810  16.070  0.6218  0.6072  1.1482
15697TIP3    H168506   0.947   1.901  16.093 -0.4499  0.1328  2.2962
15697TIP3    H268507   0.922   1.760  16.140 -2.2195 -0.8826 -1.5367
15698TIP3   OH268508   4.302   2.038  15.727 -0.0382  0.0123 -0.3436
15698TIP3    H168509   4.353   1.970  15.682  0.5279  0.5810 -0.5760
15698TIP3    H268510   4.356   2.116  15.719 -0.3453  0.3186  0.5820
15699TIP3   OH268511   2.981   6.070   0.154  0.0887  0.5117  0.1949
15699TIP3    H168512   2.886   6.073   0.143  0.1205 -0.5259 -0.5210
15699TIP3    H268513   3.014   6.054   0.065  0.8352 -0.6396  0.6620
15700TIP3   OH268514   4.889   1.040   1.255 -0.4998  0.1383 -0.1490
15700TIP3    H168515   4.915   1.127   1.287 -0.2853  0.4746 -1.2160
15700TIP3    H268516   4.839   1.002   1.327  0.0320  0.8619  0.6054
15701TIP3   OH268517   3.153   2.594  14.376 -0.0455  0.0381  0.2248
15701TIP3    H168518   3.116   2.610  14.289  1.3739  0.8044 -0.2505
15701TIP3    H268519   3.209   2.670  14.393  0.3733 -0.5306  1.4385
15702TIP3   OH268520   1.114   3.203   2.974  0.5914 -0.5288  0.4482
15702TIP3    H168521   1.202   3.240   2.975  0.1514  0.5551  0.3616
15702TIP3    H268522   1.072   3.243   2.898 -0.2674 -0.3207  1.0240
15703TIP3   OH268523   2.550   3.065  12.204  0.2754  0.0458 -0.1607
15703TIP3    H168524   2.499   3.082  12.283  0.9962  0.4190  0.2290
15703TIP3    H268525   2.523   3.134  12.143 -0.8514 -0.7018 -0.5194
15704TIP3   OH268526   0.504   6.441   1.638 -0.8428 -0.3398 -0.3105
15704TIP3    H168527   0.512   6.475   1.727 -1.2648 -0.8824 -0.0680
15704TIP3    H268528   0.555   6.360   1.638  1.8488  1.2877 -1.4291
15705TIP3   OH268529   2.426   0.845  14.535 -0.2129 -0.1082  0.1479
15705TIP3    H168530   2.426   0.848  14.630  0.7123  0.3990  0.1321
15705TIP3    H268531   2.487   0.775  14.512 -2.5380 -2.1608 -0.0367
15706TIP3   OH268532   0.711   6.561   0.543  0.5862  0.0423 -0.0818
15706TIP3    H168533   0.712   6.468   0.565  4.6214 -0.0411 -0.2411
15706TIP3    H268534   0.715   6.606   0.627  0.2513  0.0598 -0.0730
15707TIP3   OH268535   4.451   5.232   0.141 -0.2193  0.1603  0.3315
15707TIP3    H168536   4.522   5.293   0.162  0.2485  0.0067 -0.7784
15707TIP3    H268537   4.371   5.278   0.165  0.2659  0.1176  2.1482
15708TIP3   OH268538   1.591   3.415  11.852 -0.3498 -0.0387  0.2708
15708TIP3    H168539   1.680   3.424  11.886 -0.8658  1.6068  1.2282
15708TIP3    H268540   1.541   3.482  11.898 -1.8867 -0.3070 -0.9721
15709TIP3   OH268541   1.430   2.140   5.315  0.4914  0.6100 -0.0136
15709TIP3    H168542   1.502   2.125   5.254 -0.5765  1.7116 -1.5573
15709TIP3    H268543   1.430   2.234   5.331 -2.8069  1.2250 -2.8752
15710TIP3   OH268544   5.370   6.141  12.872 -0.3896 -0.4257  0.4291
15710TIP3    H168545   5.301   6.205  12.855  1.1771  1.4057  0.7754
15710TIP3    H268546   5.324   6.061  12.896 -2.4412 -0.0127 -1.9355
15711TIP3   OH268547   6.458   6.353   0.385 -0.7479 -0.3779  0.0488
15711TIP3    H168548   6.368   6.332   0.363 -0.4803 -0.4186 -1.0648
15711TIP3    H268549   6.453   6.398   0.469 -1.7253 -1.0732  0.3669
15712TIP3   OH268550   0.043   6.711   2.859  0.1744 -0.0359  0.0800
15712TIP3    H168551   0.040   6.800   2.895 -0.4432  0.8416 -2.0378
15712TIP3    H268552   0.099   6.719   2.782 -1.0937 -1.1636 -0.9608
15713TIP3   OH268553   0.295   2.799  17.183  0.2911 -0.3250 -0.4881
15713TIP3    H168554   0.286   2.713  17.142  2.5709 -0.8036 -0.0482
15713TIP3    H268555   0.211   2.813  17.226 -0.1015 -2.3776 -0.5024
15714TIP3   OH268556   5.700   5.397  16.728 -0.2312  0.1004 -0.2330
15714TIP3    H168557   5.687   5.423  16.819 -1.3684  0.4202 -0.4832
15714TIP3    H268558   5.767   5.329  16.732 -0.1373  0.2485  0.8223
15715TIP3   OH268559   2.446   0.239  16.989 -0.0579 -0.0355  0.1082
15715TIP3    H168560   2.364   0.194  16.971  0.0759 -0.3863  0.3767
15715TIP3    H268561   2.491   0.183  17.053  0.0391  0.5518  0.5578
15716TIP3   OH268562   5.255   4.715  11.449 -0.1765  0.0812  0.1582
15716TIP3    H168563   5.233   4.676  11.365 -0.0016 -1.9834  1.0383
15716TIP3    H268564   5.279   4.806  11.428  0.0460 -0.4554 -2.0296
15717TIP3   OH268565   2.826   3.163   6.951 -0.0223 -0.1098 -0.1334
15717TIP3    H168566   2.901   3.211   6.987  0.2531 -0.0129 -0.8238
15717TIP3    H268567   2.853   3.071   6.955 -0.6332 -0.2336  1.3819
15718TIP3   OH268568   5.384   5.441  13.001  0.5402 -0.0379  0.1259
15718TIP3    H168569   5.377   5.534  13.020  0.1900 -0.1550  0.5942
15718TIP3    H268570   5.323   5.399  13.062  0.1030 -0.5058 -0.6101
15719TIP3   OH268571   1.771   3.192   2.355  0.2847 -0.4360 -0.2386
15719TIP3    H168572   1.835   3.143   2.303  0.7980  0.0980 -0.1064
15719TIP3    H268573   1.818   3.220   2.433 -0.5766 -1.5250  0.6983
15720TIP3   OH268574   6.620   5.331   3.097 -0.4084  0.7108 -0.2355
15720TIP3    H168575   6.634   5.355   3.188  0.9825  0.9338 -0.5089
15720TIP3    H268576   6.667   5.248   3.086 -0.1783  0.9241 -0.8722
15721TIP3   OH268577   5.790   4.469  14.422 -0.6999 -0.5820  0.2401
15721TIP3    H168578   5.753   4.537  14.365 -0.7513 -0.7257  0.0986
15721TIP3    H268579   5.833   4.517  14.492  1.3382 -0.3372 -1.1404
15722TIP3   OH268580   6.713   5.439  12.947  0.0264 -0.1002 -0.0364
15722TIP3    H168581   6.698   5.418  12.855 -0.2315  0.0989 -0.0404
15722TIP3    H268582   6.786   5.502  12.945 -0.2742  0.2443 -0.1342
15723TIP3   OH268583   6.293   1.911  11.849  0.2848 -0.3532 -0.0059
15723TIP3    H168584   6.208   1.886  11.815  0.4656 -0.4762 -0.3694
15723TIP3    H268585   6.349   1.917  11.772  0.4510  0.3498  0.1616
15724TIP3   OH268586   4.841   5.602  14.549 -0.5946  0.2117  0.7033
15724TIP3    H168587   4.781   5.538  14.588  0.5736 -1.2309  0.1716
15724TIP3    H268588   4.784   5.661  14.501 -1.6861 -0.5867  0.9771
15725TIP3   OH268589   3.414   4.441   0.444  0.3633  0.4559 -1.0948
15725TIP3    H168590   3.452   4.411   0.361 -0.8865  1.1137 -1.9275
15725TIP3    H268591   3.333   4.389   0.453  0.9127 -0.2075  0.1353
15726TIP3   OH268592   2.020   3.480  16.233  0.1909 -0.7448 -0.8298
15726TIP3    H168593   1.981   3.545  16.176  0.2997 -0.7273 -0.8829
15726TIP3    H268594   2.055   3.530  16.307  1.3758 -0.6062 -1.4706
15727TIP3   OH268595   1.428   4.187  13.721  0.3589 -0.1571  0.1607
15727TIP3    H168596   1.352   4.133  13.738 -1.2665  0.9667 -3.0911
15727TIP3    H268597   1.408   4.271  13.764 -0.5294  0.3197 -1.1493
15728TIP3   OH268598   2.097   0.160   4.587 -0.2820  0.6786  0.2554
15728TIP3    H168599   2.155   0.116   4.526 -1.7014  0.4694 -0.9687
15728TIP3    H268600   2.081   0.095   4.656 -0.1598  0.2496 -0.1191
15729TIP3   OH268601   2.032   2.866   0.944 -0.3634 -0.0262  0.4158
15729TIP3    H168602   2.076   2.785   0.970 -1.4053 -0.9496 -0.6727
15729TIP3    H268603   2.099   2.934   0.956  0.7686 -1.1491  0.5695
15730TIP3   OH268604   1.096   3.867  11.513  0.3239 -0.0883  0.3408
15730TIP3    H168605   1.046   3.900  11.438  1.3384 -1.1510 -0.8495
15730TIP3    H268606   1.154   3.939  11.538  1.3900 -0.3937 -1.1938
15731TIP3   OH268607   6.366   4.992  11.483 -0.8729  0.1892 -0.3781
15731TIP3    H168608   6.293   5.027  11.432 -0.5635 -0.9121 -1.6090
15731TIP3    H268609   6.343   5.010  11.574 -1.8244  1.4542 -0.8621
15732TIP3   OH268610   5.180   2.911   2.539 -0.4164  0.3177  0.5010
15732TIP3    H168611   5.262   2.962   2.537 -0.2591  0.0245 -1.2795
15732TIP3    H268612   5.161   2.900   2.632  1.3263  0.8010  0.9343
15733TIP3   OH268613   4.962   2.909   5.220  0.3916  0.3243 -0.3078
15733TIP3    H168614   5.003   2.824   5.206 -1.4805 -0.8617  1.2451
15733TIP3    H268615   4.968   2.924   5.314  0.0832  1.5931 -0.4757
15734TIP3   OH268616   0.694   6.532   6.367 -0.0041 -0.5888 -0.3901
15734TIP3    H168617   0.662   6.442   6.352  1.5283 -0.8522 -2.2614
15734TIP3    H268618   0.615   6.582   6.388 -1.3609 -1.6689 -2.7732
15735TIP3   OH268619   1.309   0.442   4.771 -0.9623  0.0819 -0.3611
15735TIP3    H168620   1.288   0.529   4.735  0.2577  0.1562 -0.9199
15735TIP3    H268621   1.342   0.460   4.859  1.0776  0.3652 -1.1592
15736TIP3   OH268622   3.860   2.225  16.744  0.0278  0.1983 -0.7239
15736TIP3    H168623   3.897   2.296  16.797  0.2490 -0.4699  0.0239
15736TIP3    H268624   3.878   2.146  16.795 -0.4110 -0.3704 -1.4545
15737TIP3   OH268625   2.494   4.723   1.104  0.2056  0.5167 -0.3591
15737TIP3    H168626   2.424   4.660   1.123  0.1618  1.2149  1.9552
15737TIP3    H268627   2.575   4.674   1.119  0.1914  0.4134 -0.6188
15738TIP3   OH268628   6.714   3.866  16.875  0.0949  0.2963  0.2522
15738TIP3    H168629   6.686   3.892  16.787 -0.1487  0.7555  0.4618
15738TIP3    H268630   6.660   3.791  16.897  1.1736 -0.7378 -0.5799
15739TIP3   OH268631   4.236   1.393  11.467 -0.2197 -0.2834  0.2490
15739TIP3    H168632   4.257   1.426  11.554 -0.9126 -2.1358  1.1270
15739TIP3    H268633   4.319   1.399  11.419  0.2224  0.5137  1.0852
15740TIP3   OH268634   0.211   2.963   4.788 -0.6915 -0.4880 -0.0838
15740TIP3    H168635   0.261   2.940   4.866  1.7218  1.7691 -0.8930
15740TIP3    H268636   0.121   2.971   4.819 -0.4603 -3.6079  1.6195
15741TIP3   OH268637   1.175   3.270  16.360  0.9140 -0.0932  0.3009
15741TIP3    H168638   1.111   3.330  16.399  0.1049 -1.9139  1.8845
15741TIP3    H268639   1.260   3.302  16.390  0.6371  1.2695 -0.3178
15742TIP3   OH268640   1.071   3.105   3.827  0.6652  0.4193  0.4741
15742TIP3    H168641   1.018   3.049   3.771  1.4483 -0.5535  0.7044
15742TIP3    H268642   1.108   3.171   3.767  1.4883 -0.6040 -0.1521
15743TIP3   OH268643   0.797   6.112  14.173  0.2634  0.0787 -0.3416
15743TIP3    H168644   0.893   6.116  14.177  0.3379  0.5231 -1.9862
15743TIP3    H268645   0.779   6.027  14.132 -0.0619 -0.2022  0.3843
15744TIP3   OH268646   4.988   3.482  15.211  0.0474 -0.1544  0.0183
15744TIP3    H168647   4.937   3.425  15.152  0.6704 -0.6756 -0.0187
15744TIP3    H268648   5.043   3.422  15.260 -0.3932  0.2901  1.0740
15745TIP3   OH268649   6.402   5.799  14.359  0.1228 -0.0673  0.4219
15745TIP3    H168650   6.424   5.892  14.359  1.2038 -0.3091 -1.3822
15745TIP3    H268651   6.487   5.755  14.351 -0.6160 -1.1381 -1.6959
15746TIP3   OH268652   3.740   6.292   0.978  0.0080 -0.0763 -0.5350
15746TIP3    H168653   3.749   6.383   0.949  0.8688 -0.3217 -1.0392
15746TIP3    H268654   3.657   6.264   0.941  0.1515  0.2365 -1.0990
15747TIP3   OH268655   6.287   0.846  12.014 -0.7033 -0.0613  0.3619
15747TIP3    H168656   6.340   0.775  12.050  0.3746 -0.1845 -1.4039
15747TIP3    H268657   6.350   0.907  11.976 -1.5845  2.1982  2.3967
15748TIP3   OH268658   6.405   4.355   6.931 -0.3359  0.5607 -0.3724
15748TIP3    H168659   6.409   4.451   6.934  2.5999  0.4164  2.4574
15748TIP3    H268660   6.455   4.331   6.853  0.0384  1.2809 -0.3537
15749TIP3   OH268661   4.781   1.985   5.884 -0.1972  0.2831  0.0162
15749TIP3    H168662   4.830   2.011   5.806  2.1718 -1.2327  0.9439
15749TIP3    H268663   4.766   2.067   5.931  1.2978  0.8054 -0.3902
15750TIP3   OH268664   6.725   0.756  17.031  0.6861 -0.0470 -0.3034
15750TIP3    H168665   6.790   0.690  17.057 -0.1014 -1.0397 -0.8324
15750TIP3    H268666   6.641   0.711  17.036  0.0764  1.0776 -0.1404
15751TIP3   OH268667   1.277   4.481  16.475 -0.3994 -0.7568 -0.3897
15751TIP3    H168668   1.372   4.487  16.475 -0.3257 -1.8823 -1.0185
15751TIP3    H268669   1.256   4.434  16.556 -0.5035  0.5440  0.3572
15752TIP3   OH268670   3.677   6.420  12.633  0.1271  0.3196  0.1818
15752TIP3    H168671   3.734   6.404  12.558  0.4812 -0.4295  0.6067
15752TIP3    H268672   3.630   6.500  12.610 -2.2195 -1.6788 -2.3080
15753TIP3   OH268673   4.774   4.187   3.435 -0.2228 -0.5617 -0.1113
15753TIP3    H168674   4.738   4.240   3.505 -3.1480 -1.2648 -1.0250
15753TIP3    H268675   4.821   4.250   3.380 -0.3141  0.4417  0.9365
15754TIP3   OH268676   2.453   2.543  11.918  0.0667 -0.0843 -0.0624
15754TIP3    H168677   2.472   2.630  11.883  0.2465  0.1698  0.6696
15754TIP3    H268678   2.404   2.558  11.998  0.7718 -0.6279  0.4843
15755TIP3   OH268679   0.140   5.818  17.210  0.7841  0.0451 -0.2147
15755TIP3    H168680   0.129   5.723  17.207 -0.0497  0.1633 -1.2697
15755TIP3    H268681   0.179   5.840  17.126  0.1278  0.7314 -0.3427
15756TIP3   OH268682   3.165   1.095  16.892 -0.3876  0.2005  0.6748
15756TIP3    H168683   3.191   1.068  16.981  0.0819 -2.5309 -0.2371
15756TIP3    H268684   3.114   1.021  16.859 -1.6416  1.7399 -0.8849
15757TIP3   OH268685   1.374   6.025   6.083  0.1953  0.2155 -0.2481
15757TIP3    H168686   1.306   6.083   6.116 -2.5584 -1.5780 -2.5173
15757TIP3    H268687   1.372   5.950   6.142 -0.1641 -0.0641 -0.6134
15758TIP3   OH268688   4.155   3.477  13.960  0.5384  0.2892 -0.2105
15758TIP3    H168689   4.066   3.466  13.994  1.3151 -0.5321  1.6213
15758TIP3    H268690   4.171   3.397  13.910  0.2617  0.4063 -0.4840
15759TIP3   OH268691   1.479   4.754  13.431 -0.1353 -0.3667  0.5905
15759TIP3    H168692   1.486   4.785  13.341 -0.0008  0.6797  0.9500
15759TIP3    H268693   1.526   4.671  13.432  2.3253  0.9933  0.3506
15760TIP3   OH268694   4.242   3.880   6.163  0.1126 -0.0411 -0.1395
15760TIP3    H168695   4.184   3.805   6.177 -0.4836  0.5058  0.3548
15760TIP3    H268696   4.294   3.886   6.244  0.8190 -0.4893 -0.5541
15761TIP3   OH268697   6.733   4.566   2.058 -0.1170  0.2198 -0.2582
15761TIP3    H168698   6.727   4.545   1.965 -0.2757  0.6263 -0.3388
15761TIP3    H268699   6.827   4.577   2.074  0.1579 -2.5910  0.2331
15762TIP3   OH268700   0.972   5.214  11.185  0.0062  0.0923 -0.6868
15762TIP3    H168701   0.919   5.158  11.128 -0.3742  2.3825 -2.6581
15762TIP3    H268702   0.914   5.287  11.208  0.3633 -0.4470  2.1432
15763TIP3   OH268703   4.883   0.276  13.473 -0.5414 -0.1426 -0.5641
15763TIP3    H168704   4.970   0.308  13.449 -0.4375 -1.7540 -2.4841
15763TIP3    H268705   4.854   0.335  13.542  1.8893  0.6896 -0.2055
15764TIP3   OH268706   5.397   6.490   1.702 -0.1075 -0.2466 -0.0006
15764TIP3    H168707   5.357   6.529   1.624  0.9498  1.0075  0.0598
15764TIP3    H268708   5.488   6.473   1.677 -0.6366 -3.1589 -0.1709
15765TIP3   OH268709   6.681   1.060   2.908  0.0841 -0.4773  0.3415
15765TIP3    H168710   6.715   1.102   2.829  0.6536 -1.1355  0.2248
15765TIP3    H268711   6.619   0.994   2.876  0.5258 -0.9382  0.4183
15766TIP3   OH268712   3.295   6.694  12.650 -0.3440 -0.5205  0.3111
15766TIP3    H168713   3.259   6.610  12.679 -0.0099 -0.6365  0.3920
15766TIP3    H268714   3.241   6.759  12.694 -0.4937 -0.6941  0.3874
15767TIP3   OH268715   2.654   0.767   0.976 -0.2454 -0.1071 -0.5442
15767TIP3    H168716   2.634   0.688   1.027 -0.4132 -0.1452 -0.6651
15767TIP3    H268717   2.747   0.760   0.956 -0.3301 -0.4532 -0.8471
15768TIP3   OH268718   1.091   0.872  14.619 -0.1013  0.5740 -0.3629
15768TIP3    H168719   0.996   0.884  14.627 -0.3586 -1.2213 -0.4319
15768TIP3    H268720   1.116   0.927  14.545 -1.3531 -0.0896 -1.3012
15769TIP3   OH268721   4.629   0.157  16.203  0.1211  0.7268  0.2211
15769TIP3    H168722   4.626   0.107  16.285  3.7941 -0.1214 -0.0536
15769TIP3    H268723   4.649   0.246  16.230 -0.7992  0.8856  0.3801
15770TIP3   OH268724   6.221   0.805   1.916  0.0801 -0.2214 -0.4236
15770TIP3    H168725   6.249   0.896   1.921  0.4665 -0.4358  1.5378
15770TIP3    H268726   6.238   0.769   2.003  0.2499 -2.2550 -1.2574
15771TIP3   OH268727   5.513   1.682   2.131  0.3291 -0.2295 -0.3444
15771TIP3    H168728   5.526   1.770   2.168 -0.3826 -0.6091  0.8081
15771TIP3    H268729   5.601   1.646   2.125  0.4210 -0.3477  1.4455
15772TIP3   OH268730   4.122   5.126  15.575  0.0456 -0.3824 -0.6512
15772TIP3    H168731   4.110   5.219  15.591 -1.3278 -0.4047 -1.4854
15772TIP3    H268732   4.207   5.106  15.614 -0.1176  0.9837  0.4482
15773TIP3   OH268733   6.054   0.015   5.883  0.0410 -0.1812 -0.0197
15773TIP3    H168734   6.073  -0.078   5.871  2.4380  0.4237 -1.1986
15773TIP3    H268735   6.036   0.024   5.976 -0.8498 -1.9196 -0.0014
15774TIP3   OH268736   3.683   5.555  13.761  0.1412  0.1529  0.5760
15774TIP3    H168737   3.654   5.530  13.848  0.1515 -1.6462  0.0836
15774TIP3    H268738   3.604   5.584  13.716  0.4404  3.0025  1.7777
15775TIP3   OH268739   0.985   3.907   3.271  0.4680 -0.1295  1.0182
15775TIP3    H168740   0.966   3.852   3.196 -0.4816 -1.3038  2.1026
15775TIP3    H268741   1.074   3.940   3.255  1.0162 -1.9014  0.3169
15776TIP3   OH268742   5.188   3.088  10.583  0.0504 -0.1619  0.7977
15776TIP3    H168743   5.151   3.123  10.502  0.4675 -1.0319  0.2216
15776TIP3    H268744   5.136   3.128  10.653  0.1812  1.1833  0.1363
15777TIP3   OH268745   4.890   3.284   5.323  0.2749 -0.0210  0.5784
15777TIP3    H168746   4.895   3.257   5.415 -1.0687  0.6699  0.8596
15777TIP3    H268747   4.815   3.343   5.319 -1.8952 -2.7567 -1.6077
15778TIP3   OH268748   3.504   6.070   0.538  0.0782  0.0891 -0.2797
15778TIP3    H168749   3.485   6.159   0.567  1.7614  0.2343  0.4213
15778TIP3    H268750   3.599   6.065   0.538 -0.0143 -1.9398  0.3462
15779TIP3   OH268751   1.825   1.921  14.116 -0.1399  0.0241  0.2559
15779TIP3    H168752   1.873   1.841  14.094  1.5652  0.6113  1.7918
15779TIP3    H268753   1.778   1.942  14.035 -0.5982 -2.4828 -0.1946
15780TIP3   OH268754   4.916   3.627   4.273 -0.5271 -0.2691  0.0541
15780TIP3    H168755   4.913   3.565   4.345  4.2121 -1.2791 -0.4380
15780TIP3    H268756   4.881   3.578   4.198  0.5866 -1.4491  0.2831
15781TIP3   OH268757   4.385   5.567  14.258  0.7168  0.2544 -0.4921
15781TIP3    H168758   4.345   5.481  14.242  0.7859  0.1607 -0.1666
15781TIP3    H268759   4.314   5.629  14.243  0.2359  0.0480  0.7910
15782TIP3   OH268760   6.557   3.509   5.239  0.0984  0.4116  0.1307
15782TIP3    H168761   6.497   3.566   5.191 -0.2538  0.4304  0.5842
15782TIP3    H268762   6.643   3.527   5.201  0.2209  2.3338  1.2399
15783TIP3   OH268763   1.665   4.670   1.039  0.1209  0.5987 -0.2003
15783TIP3    H168764   1.574   4.700   1.043 -0.4236 -0.9233 -0.8584
15783TIP3    H268765   1.705   4.704   1.119 -0.4601  3.0655 -0.9069
15784TIP3   OH268766   4.951   4.842   0.420  0.0963 -0.1028  0.1583
15784TIP3    H168767   5.005   4.762   0.418 -1.0985 -0.8996 -1.8682
15784TIP3    H268768   4.886   4.826   0.488 -0.3222 -1.0121 -0.4428
15785TIP3   OH268769   3.035   1.265   4.579 -0.2125  0.2379 -0.3348
15785TIP3    H168770   3.119   1.242   4.541 -0.6682 -0.4910 -0.9152
15785TIP3    H268771   3.057   1.321   4.653  0.7446  0.6129 -0.8919
15786TIP3   OH268772   5.619   0.209   5.531 -0.3516  1.2812 -1.2145
15786TIP3    H168773   5.637   0.283   5.474  0.0996  3.0387  1.1196
15786TIP3    H268774   5.686   0.214   5.599 -1.6566  0.0620  0.2184
15787TIP3   OH268775   4.099   2.974   3.911  0.1129 -0.5399  0.2240
15787TIP3    H168776   4.048   2.962   3.831 -1.2925 -1.8113  1.2824
15787TIP3    H268777   4.140   2.889   3.927  0.8486 -0.1312  0.5429
15788TIP3   OH268778   5.337   2.830  15.176 -0.3539  0.1642 -0.0923
15788TIP3    H168779   5.364   2.897  15.239 -0.5839  1.0263 -0.9123
15788TIP3    H268780   5.365   2.748  15.216  1.9621  0.9083 -0.1325
15789TIP3   OH268781   4.323   0.204  13.770  0.6496 -0.2658 -0.3302
15789TIP3    H168782   4.284   0.155  13.697  0.0541  0.1279 -0.2759
15789TIP3    H268783   4.315   0.146  13.845  1.7496 -0.8971 -0.6804
15790TIP3   OH268784   0.809   5.876  11.167  0.1206  0.0557 -0.0703
15790TIP3    H168785   0.871   5.940  11.203  0.5019  0.3954 -1.3291
15790TIP3    H268786   0.771   5.835  11.245  1.1877  0.5429  0.7317
15791TIP3   OH268787   0.185   5.025  12.128 -0.2644 -0.1281  0.2655
15791TIP3    H168788   0.278   5.047  12.137 -0.8387  2.6441 -0.1375
15791TIP3    H268789   0.182   4.966  12.052  1.1955 -0.5895  0.5424
15792TIP3   OH268790   4.342   0.765   3.183  0.2306 -0.6347  0.9522
15792TIP3    H168791   4.299   0.680   3.175  2.6151 -1.5460 -2.9549
15792TIP3    H268792   4.419   0.748   3.237  0.8710 -1.0320 -0.0815
15793TIP3   OH268793   4.802   0.004  14.352 -0.0002  0.6214  0.5537
15793TIP3    H168794   4.783   0.097  14.365  0.4462  0.6855  0.7816
15793TIP3    H268795   4.867  -0.016  14.420  0.2820  0.2652  0.1771
15794TIP3   OH268796   3.492   1.354   4.995  0.3445 -0.2729 -0.8122
15794TIP3    H168797   3.439   1.394   5.064  0.4132  0.8435 -1.3821
15794TIP3    H268798   3.542   1.285   5.039  0.8802  0.8536  0.3780
15795TIP3   OH268799   3.231   4.791   3.992  0.2774  0.3442  0.1197
15795TIP3    H168800   3.321   4.813   3.969 -0.1119 -0.3173 -2.1706
15795TIP3    H268801   3.227   4.696   3.990 -0.6751  0.3826 -0.7196
15796TIP3   OH268802   5.202   1.864  16.028  0.2385  0.3376  0.3815
15796TIP3    H168803   5.287   1.822  16.020 -0.4460 -1.0657  0.2710
15796TIP3    H268804   5.204   1.936  15.964  0.8858 -0.4564 -0.5081
15797TIP3   OH268805   5.721   3.880  14.095 -0.0155 -0.2227 -0.2204
15797TIP3    H168806   5.692   3.934  14.021 -0.6792 -0.2274  0.0371
15797TIP3    H268807   5.641   3.856  14.140  0.4988  1.2307  1.5332
15798TIP3   OH268808   3.313   4.205  11.202  0.2044  0.6689  0.3342
15798TIP3    H168809   3.396   4.245  11.176 -0.9352  2.3957 -0.6934
15798TIP3    H268810   3.297   4.137  11.136  0.5219  0.6925  0.2333
15799TIP3   OH268811   5.962   4.785  16.112  0.0185 -0.9638  0.1277
15799TIP3    H168812   5.974   4.771  16.206 -1.4597  0.1882  0.5034
15799TIP3    H268813   6.038   4.838  16.086 -0.7377  0.6512  1.1436
15800TIP3   OH268814   1.748   3.199  14.087 -0.9342 -0.3311  0.9862
15800TIP3    H168815   1.725   3.115  14.128 -0.5395 -0.5205  0.8287
15800TIP3    H268816   1.824   3.230  14.137 -1.9334  0.6109  1.9233
15801TIP3   OH268817   0.469   6.659  14.693 -0.6179 -0.1873 -0.3377
15801TIP3    H168818   0.516   6.618  14.765  1.1923 -0.4420 -1.6281
15801TIP3    H268819   0.440   6.743  14.728 -0.7551 -0.7880  1.0295
15802TIP3   OH268820   5.524   4.530   4.033  0.5267  0.0142 -0.2834
15802TIP3    H168821   5.569   4.612   4.055  1.9077 -1.1062  1.0873
15802TIP3    H268822   5.445   4.531   4.087  1.0959 -0.0850  0.5527
15803TIP3   OH268823   6.118   0.375   2.116  0.4130 -0.2149 -0.3996
15803TIP3    H168824   6.029   0.359   2.146  0.7613 -1.6077 -0.0621
15803TIP3    H268825   6.162   0.417   2.189 -0.2854  1.5691 -0.9897
15804TIP3   OH268826   2.653   5.652   0.510  0.1969  0.0305 -0.0624
15804TIP3    H168827   2.685   5.639   0.599  0.8528  1.2674 -0.1043
15804TIP3    H268828   2.592   5.726   0.518  0.1214  0.0263 -0.6083
15805TIP3   OH268829   5.755   2.581   3.784  0.1556  0.2094 -0.0937
15805TIP3    H168830   5.841   2.576   3.825 -0.2869  0.8920  0.9476
15805TIP3    H268831   5.722   2.491   3.785  0.0462  0.2446  1.3185
15806TIP3   OH268832   6.504   2.852  16.311  0.4237  0.0611 -0.3305
15806TIP3    H168833   6.474   2.829  16.223  0.0588  0.0804 -0.2129
15806TIP3    H268834   6.427   2.839  16.366  0.2058  1.5661 -0.2659
15807TIP3   OH268835   2.299   3.445  15.386 -1.2687 -0.3497 -1.1752
15807TIP3    H168836   2.231   3.495  15.342 -0.5017  0.1692 -1.7771
15807TIP3    H268837   2.356   3.413  15.316 -1.1507 -1.1798 -0.7181
15808TIP3   OH268838   1.529   4.307   3.066  0.1546 -0.1382  0.7446
15808TIP3    H168839   1.585   4.239   3.102  0.8392 -0.7419 -1.3557
15808TIP3    H268840   1.546   4.305   2.971 -0.0617  2.6977  0.5752
15809TIP3   OH268841   0.327   2.358  16.633 -0.1416 -0.1186  0.5697
15809TIP3    H168842   0.354   2.436  16.584 -2.1458  0.8052  0.8803
15809TIP3    H268843   0.296   2.392  16.717  1.7395 -1.5425  1.8768
15810TIP3   OH268844   5.896   6.353   4.858  0.1814  0.0139  0.1446
15810TIP3    H168845   5.804   6.356   4.883  0.4686  0.6961  1.1527
15810TIP3    H268846   5.895   6.337   4.763 -0.9595 -0.3318  0.2126
15811TIP3   OH268847   4.460   5.784  14.428 -0.4501  0.2380  0.3456
15811TIP3    H168848   4.454   5.726  14.352  0.9394  0.6389 -0.0949
15811TIP3    H268849   4.551   5.815  14.427 -0.2556 -0.1868  2.5098
15812TIP3   OH268850   0.143   3.682   3.429  0.8969 -0.0897  0.2932
15812TIP3    H168851   0.055   3.689   3.393  0.8628 -1.9303 -0.0349
15812TIP3    H268852   0.130   3.662   3.522  0.9902  2.3689  0.8728
15813TIP3   OH268853   2.420   1.019  10.354 -0.8289 -0.7050 -0.1197
15813TIP3    H168854   2.390   0.945  10.300  1.0093 -1.2882 -0.3868
15813TIP3    H268855   2.432   0.981  10.441 -0.8735 -0.4704 -0.0112
15814TIP3   OH268856   3.778   0.810   1.469  0.6987  0.2791 -0.2036
15814TIP3    H168857   3.802   0.902   1.478  0.9193  0.5257 -2.7433
15814TIP3    H268858   3.693   0.802   1.512  1.3824  1.3155  1.3701
15815TIP3   OH268859   0.947   6.213   6.243  0.1860  0.0840  0.0923
15815TIP3    H168860   0.957   6.132   6.292 -0.5865  0.3030  0.6191
15815TIP3    H268861   1.026   6.219   6.190 -0.2257 -1.5545 -0.7508
15816TIP3   OH268862   2.429   5.085   3.397 -0.1869  0.1966 -0.0713
15816TIP3    H168863   2.504   5.131   3.359 -1.0028  1.7109  0.1324
15816TIP3    H268864   2.368   5.075   3.324 -0.6413  0.7666  0.2277
15817TIP3   OH268865   5.160   0.123   2.029  0.4559  0.4240  0.1474
15817TIP3    H168866   5.182   0.043   1.981  1.3588 -0.6442  2.2842
15817TIP3    H268867   5.219   0.190   1.993  1.5737 -0.5183  0.1974
15818TIP3   OH268868   4.606   2.946  12.768  0.0030  0.0989 -0.1806
15818TIP3    H168869   4.678   2.956  12.706  0.9292  0.8290  0.9927
15818TIP3    H268870   4.531   2.921  12.714  1.4393 -1.9759 -1.2595
15819TIP3   OH268871   3.353   3.540  13.249 -0.4398 -0.1232  0.5603
15819TIP3    H168872   3.402   3.480  13.305 -0.6280 -0.0594  0.7957
15819TIP3    H268873   3.324   3.487  13.175  1.5845  0.2756 -0.5305
15820TIP3   OH268874   2.776   6.010   6.343 -0.8218  0.8143  0.2115
15820TIP3    H168875   2.732   5.943   6.396 -1.2151  0.9203  0.0141
15820TIP3    H268876   2.823   6.064   6.408  0.2468 -0.2046  0.2992
15821TIP3   OH268877   4.048   6.521   6.111  0.7178 -0.1997 -0.2982
15821TIP3    H168878   4.087   6.600   6.073 -0.1290 -0.2080 -1.2015
15821TIP3    H268879   4.123   6.470   6.141  1.5386 -0.9694 -3.5149
15822TIP3   OH268880   6.267   0.498  16.645  0.1322  0.3343  0.6937
15822TIP3    H168881   6.235   0.581  16.678  0.6499  0.5855  0.5740
15822TIP3    H268882   6.336   0.522  16.582 -0.7058 -0.1315 -0.4311
15823TIP3   OH268883   3.319   3.931   2.672 -0.4351  0.5509  0.2132
15823TIP3    H168884   3.230   3.900   2.660 -0.3390  0.6736 -0.8552
15823TIP3    H268885   3.311   4.026   2.678 -0.5081  0.4737  1.3901
15824TIP3   OH268886   3.185   0.756  12.179  1.0313  0.3796 -0.0090
15824TIP3    H168887   3.203   0.675  12.226 -1.8584  0.3323  1.1080
15824TIP3    H268888   3.113   0.734  12.119  1.3874  1.6958 -0.9539
15825TIP3   OH268889   1.952   0.114   0.629 -0.3934  0.5783 -0.4012
15825TIP3    H168890   1.877   0.149   0.676  0.3990  0.9368  0.6084
15825TIP3    H268891   1.919   0.095   0.541 -1.9888 -0.4896  0.4148
15826TIP3   OH268892   2.355   1.545  16.998 -0.3787  0.1159  0.0419
15826TIP3    H168893   2.369   1.487  17.073 -0.4868 -0.5148 -0.4234
15826TIP3    H268894   2.263   1.531  16.974 -0.0161 -0.6068 -0.9709
15827TIP3   OH268895   5.052   5.324   3.462 -0.1104  0.0825  0.0634
15827TIP3    H168896   5.052   5.231   3.438 -0.4196  0.1417 -0.1636
15827TIP3    H268897   4.975   5.360   3.418  1.0949  0.8530 -1.4653
15828TIP3   OH268898   3.347   4.329  12.373  0.2984 -0.2227  0.6838
15828TIP3    H168899   3.329   4.318  12.467  0.4159 -2.2687  0.4901
15828TIP3    H268900   3.439   4.306  12.364  0.5644  0.9767  0.1969
15829TIP3   OH268901   6.514   2.457   1.988 -0.3413  0.1035  0.1478
15829TIP3    H168902   6.571   2.492   1.920 -0.8271  0.8616  0.1305
15829TIP3    H268903   6.450   2.526   2.004 -0.8052 -0.4491  0.6987
15830TIP3   OH268904   0.258   1.324   1.951 -0.1153  0.3913 -0.2103
15830TIP3    H168905   0.207   1.383   1.895  2.9622  1.4478 -2.0156
15830TIP3    H268906   0.236   1.350   2.040 -1.4123  1.9522 -0.9692
15831TIP3   OH268907   4.873   3.338   1.719  0.4109  0.3373 -0.2365
15831TIP3    H168908   4.891   3.276   1.648 -0.1194 -0.6801  0.5105
15831TIP3    H268909   4.900   3.422   1.684  3.2472 -0.6236 -0.4422
15832TIP3   OH268910   1.803   4.255  11.876 -0.2196 -0.0811  0.0282
15832TIP3    H168911   1.821   4.343  11.907 -2.0365  0.5746 -0.7262
15832TIP3    H268912   1.824   4.256  11.783  0.1333 -0.5731  0.0947
15833TIP3   OH268913   4.637   1.520   3.287 -0.5055 -0.0861  0.1333
15833TIP3    H168914   4.630   1.425   3.285 -1.1787 -0.0257 -0.4638
15833TIP3    H268915   4.727   1.538   3.260  0.1446 -0.6159  1.8745
15834TIP3   OH268916   1.764   6.639   0.656  0.3739  0.3659 -0.0456
15834TIP3    H168917   1.697   6.679   0.712  0.4461  1.0161 -0.4122
15834TIP3    H268918   1.715   6.575   0.604  0.3930 -0.5734  1.0834
15835TIP3   OH268919   1.526   0.804   4.245  0.0446 -0.0359 -0.0789
15835TIP3    H168920   1.509   0.886   4.292  0.1341  0.5538 -1.0499
15835TIP3    H268921   1.467   0.740   4.286 -1.3653  0.9568 -0.5244
15836TIP3   OH268922   3.360   1.348   5.312 -0.2169 -0.2218  0.1613
15836TIP3    H168923   3.426   1.417   5.323 -1.0150  1.0512 -2.6155
15836TIP3    H268924   3.409   1.275   5.275  0.0974 -0.1341  0.3966
15837TIP3   OH268925   1.700   3.608  12.163  0.2613  0.0227 -0.2585
15837TIP3    H168926   1.763   3.540  12.186  1.7001  1.0095 -1.2702
15837TIP3    H268927   1.634   3.603  12.233  1.2646 -1.2279  0.6274
15838TIP3   OH268928   1.034   1.960   4.673 -0.1843 -0.9150 -0.7512
15838TIP3    H168929   1.098   1.967   4.744  0.2098 -2.4559 -0.9372
15838TIP3    H268930   1.057   2.030   4.613 -0.9498  0.8475  0.9826
15839TIP3   OH268931   0.800   3.777   6.125 -0.5168  0.6490 -0.6868
15839TIP3    H168932   0.711   3.773   6.090 -1.3785 -0.6475  1.5263
15839TIP3    H268933   0.808   3.698   6.180  1.7087  1.1772 -0.1785
15840TIP3   OH268934   6.734   3.245  16.690  0.7861 -0.3672  0.1238
15840TIP3    H168935   6.782   3.270  16.612  1.1366  1.2600  0.8345
15840TIP3    H268936   6.801   3.220  16.753  0.6749  1.0610  0.8298
15841TIP3   OH268937   0.529   3.747  11.700 -0.2387 -0.2150 -0.1748
15841TIP3    H168938   0.566   3.725  11.785  0.8912  1.4241 -0.2287
15841TIP3    H268939   0.475   3.824  11.715 -0.8614 -0.5206 -0.7615
15842TIP3   OH268940   6.765   5.924  13.836 -0.1330 -0.2107 -0.0670
15842TIP3    H168941   6.791   5.986  13.904 -0.7384  0.0330 -0.0485
15842TIP3    H268942   6.715   5.857  13.883  0.2844 -0.5694 -0.1292
15843TIP3   OH268943   5.609   4.531  14.111 -0.1983 -0.2490 -0.2443
15843TIP3    H168944   5.590   4.569  14.197 -3.4400  0.3283 -1.1715
15843TIP3    H268945   5.667   4.595  14.070 -1.0530  0.9524  0.3853
15844TIP3   OH268946   1.467   6.166  15.703  0.1589 -0.0489 -0.6463
15844TIP3    H168947   1.488   6.145  15.794  1.8189 -0.5789 -1.1253
15844TIP3    H268948   1.407   6.097  15.675  1.4836 -1.2497 -0.6293
15845TIP3   OH268949   3.455   2.539   2.014  0.7914 -0.2182 -0.5530
15845TIP3    H168950   3.433   2.471   1.951  2.2804 -1.6648  0.4474
15845TIP3    H268951   3.389   2.533   2.082  0.4481 -0.1088 -0.8775
15846TIP3   OH268952   6.110   5.066   6.528  0.5465  0.6234  0.1298
15846TIP3    H168953   6.197   5.086   6.492  0.4753 -0.4819 -0.6681
15846TIP3    H268954   6.061   5.148   6.518  0.8841  0.6791 -1.2516
15847TIP3   OH268955   0.997   5.769  12.701  0.3116  0.1091 -0.1433
15847TIP3    H168956   0.977   5.826  12.627  0.7517 -0.9323 -1.0832
15847TIP3    H268957   1.055   5.702  12.664  0.2165 -0.6464  1.0620
15848TIP3   OH268958   6.070   1.335   3.281  0.1712  0.0038  0.0689
15848TIP3    H168959   5.994   1.327   3.223  0.3068 -0.5994 -0.0262
15848TIP3    H268960   6.068   1.256   3.335  1.8842 -1.0334 -1.3402
15849TIP3   OH268961   2.039   5.044  14.489  0.4500 -0.0027  0.0871
15849TIP3    H168962   2.053   5.025  14.396  0.7980 -1.3280  0.3940
15849TIP3    H268963   2.117   5.008  14.533  0.4571  0.9332  0.8531
15850TIP3   OH268964   5.107   5.795  12.953  0.2277  0.9538 -0.4848
15850TIP3    H168965   5.199   5.774  12.935  0.0258 -0.9771  0.6825
15850TIP3    H268966   5.058   5.721  12.917 -0.8733  1.8736 -0.9042
15851TIP3   OH268967   6.786   2.176  16.362  0.1921  0.0991 -0.6014
15851TIP3    H168968   6.782   2.265  16.326  1.7487  0.8026  0.8733
15851TIP3    H268969   6.814   2.189  16.453 -1.6075 -1.7616  0.2404
15852TIP3   OH268970   1.717   6.596  10.741  0.1011 -0.2295  0.2301
15852TIP3    H168971   1.762   6.529  10.689  0.3729  0.1733 -0.0516
15852TIP3    H268972   1.645   6.625  10.686  0.0782 -0.1716  0.2896
15853TIP3   OH268973   2.840   1.763  16.012 -0.5568 -0.1340  0.1182
15853TIP3    H168974   2.760   1.815  16.001 -1.3200 -1.6485 -1.6973
15853TIP3    H268975   2.891   1.812  16.076 -3.1776  0.5830  1.7423
15854TIP3   OH268976   4.488   2.284   0.034 -0.1522 -0.1627 -0.0420
15854TIP3    H168977   4.519   2.221  -0.031  0.0721 -1.0533  0.9159
15854TIP3    H268978   4.478   2.233   0.114  3.0419  1.6678  1.5899
15855TIP3   OH268979   3.389   2.563  13.550 -0.6760  0.6070 -0.0441
15855TIP3    H168980   3.346   2.495  13.602  2.4423 -1.1994  0.3209
15855TIP3    H268981   3.318   2.619  13.519 -2.9013 -0.1074  3.5454
15856TIP3   OH268982   4.819   5.933   0.882  0.2801 -0.3962 -0.1737
15856TIP3    H168983   4.753   5.985   0.836  0.6953  1.5516  1.3634
15856TIP3    H268984   4.891   5.925   0.819  0.0599  0.5942 -0.5642
15857TIP3   OH268985   2.843   0.586   1.912  0.6034  0.4897  0.0117
15857TIP3    H168986   2.915   0.524   1.917  1.1050  1.0691 -0.0459
15857TIP3    H268987   2.852   0.640   1.990  1.3299  1.7516 -0.9208
15858TIP3   OH268988   6.218   0.523   2.358  0.5396 -0.2082  0.0321
15858TIP3    H168989   6.292   0.549   2.412  1.1156  0.3123 -0.9804
15858TIP3    H268990   6.148   0.503   2.420  1.1497  0.4863  0.9563
15859TIP3   OH268991   1.640   2.715   0.050 -0.5383 -0.3642  0.1221
15859TIP3    H168992   1.671   2.661  -0.023  1.5636  0.5710  0.2887
15859TIP3    H268993   1.678   2.801   0.034 -1.5555  0.3281  1.3631
15860TIP3   OH268994   4.774   2.512  10.599  0.2952 -0.4070  0.6138
15860TIP3    H168995   4.816   2.428  10.582  0.3260 -0.3507  0.4160
15860TIP3    H268996   4.747   2.506  10.691  0.8315 -0.4009  0.7745
15861TIP3   OH268997   6.292   0.139  14.704 -0.3884 -0.1864 -0.0074
15861TIP3    H168998   6.203   0.106  14.709 -0.7332  0.7404 -0.0614
15861TIP3    H268999   6.303   0.165  14.613  0.5193 -1.9055 -0.4164
15862TIP3   OH269000   0.882   3.850  14.079  0.1309 -0.1130 -0.0337
15862TIP3    H169001   0.843   3.866  13.993  1.5570  0.5867 -0.5701
15862TIP3    H269002   0.872   3.756  14.093  2.2158 -0.6977 -2.1637
15863TIP3   OH269003   0.836   4.565  15.977 -0.2016 -0.2736 -0.9230
15863TIP3    H169004   0.877   4.638  15.931  0.2694  0.5195  0.7304
15863TIP3    H269005   0.897   4.492  15.964 -0.3562 -0.2145 -2.0342
15864TIP3   OH269006   6.425   6.524   1.075 -0.4420  0.1239  0.7151
15864TIP3    H169007   6.358   6.546   1.141 -0.4575 -1.5744  1.2830
15864TIP3    H269008   6.489   6.595   1.082 -1.4494  1.0093  1.1689
15865TIP3   OH269009   4.580   5.862  13.133  0.2377  0.2783  0.2600
15865TIP3    H169010   4.643   5.897  13.069  0.6887 -1.9927 -0.5862
15865TIP3    H269011   4.631   5.802  13.187 -0.1172  2.2508  2.8897
15866TIP3   OH269012   3.311   3.485   4.013  0.5045 -0.1570 -0.2785
15866TIP3    H169013   3.331   3.551   4.079 -0.0891 -1.2921  1.0445
15866TIP3    H269014   3.216   3.488   4.002  0.5070 -0.5581 -0.4588
15867TIP3   OH269015   5.565   0.231  12.957  0.2445  0.5598 -0.0354
15867TIP3    H169016   5.515   0.198  12.882 -1.5679  0.9105  1.0003
15867TIP3    H269017   5.625   0.159  12.979 -0.7710 -0.4210 -0.4286
15868TIP3   OH269018   5.731   4.631   0.612  0.1960 -0.2869 -0.1646
15868TIP3    H169019   5.744   4.613   0.518  0.4082 -1.7610  0.1319
15868TIP3    H269020   5.769   4.555   0.656  1.7981  1.2421  1.2087
15869TIP3   OH269021   1.971   1.665  14.334 -0.2250  0.1769 -0.1154
15869TIP3    H169022   1.994   1.747  14.378 -1.6125  1.7776 -2.2728
15869TIP3    H269023   2.049   1.643  14.283  0.5176 -0.4210  1.2384
15870TIP3   OH269024   6.159   6.633  14.357 -0.0340  0.2863  0.8149
15870TIP3    H169025   6.077   6.591  14.384  0.2771 -0.7816  0.1468
15870TIP3    H269026   6.215   6.629  14.434  0.1427 -0.9269  0.6329
15871TIP3   OH269027   1.877   1.937   6.011  0.1801  0.1438 -0.7851
15871TIP3    H169028   1.804   1.874   6.008 -0.5428  0.9057  0.3531
15871TIP3    H269029   1.932   1.905   6.083  1.5358 -1.0157 -2.3029
15872TIP3   OH269030   1.200   6.264   1.608  0.5699  0.4575 -0.9392
15872TIP3    H169031   1.144   6.338   1.586 -0.4678 -0.4180 -1.3034
15872TIP3    H269032   1.286   6.287   1.573  0.3768  1.7065 -0.5959
15873TIP3   OH269033   4.239   4.794  16.887  0.6992  0.5308  0.1200
15873TIP3    H169034   4.203   4.837  16.810 -0.8449 -0.4727  0.2496
15873TIP3    H269035   4.219   4.853  16.960  0.7722  0.7459 -0.0362
15874TIP3   OH269036   2.418   4.565  12.575  0.2894  0.7518 -0.1641
15874TIP3    H169037   2.410   4.656  12.548  0.1534  1.0533  0.9026
15874TIP3    H269038   2.356   4.518  12.519 -1.7535  1.7171  1.2296
15875TIP3   OH269039   6.130   0.494   1.856  0.4522 -0.4420  0.4599
15875TIP3    H169040   6.130   0.588   1.874  1.3395 -0.4112  0.3163
15875TIP3    H269041   6.101   0.454   1.938  1.6049 -0.1290  1.0321
15876TIP3   OH269042   2.158   2.514   1.409 -0.3975 -0.1046 -0.2221
15876TIP3    H169043   2.191   2.487   1.495 -2.0132 -1.5159 -0.0285
15876TIP3    H269044   2.223   2.481   1.347  0.6222  0.6566  0.4090
15877TIP3   OH269045   0.964   4.917  15.147 -0.7339  0.2307  0.0933
15877TIP3    H169046   0.966   4.989  15.083 -2.3612 -0.1923 -0.4458
15877TIP3    H269047   0.931   4.842  15.098  0.5875 -0.8071  0.7537
15878TIP3   OH269048   5.281   1.564  14.401 -0.5024 -0.2929 -0.4607
15878TIP3    H169049   5.301   1.509  14.477  0.3427  1.3430  0.5228
15878TIP3    H269050   5.303   1.509  14.326  4.8274  0.2324  0.5022
15879TIP3   OH269051   1.157   4.398   2.570  0.2686 -0.0012  0.4653
15879TIP3    H169052   1.226   4.417   2.634 -1.5871  0.8959  2.2551
15879TIP3    H269053   1.190   4.323   2.521  1.8435 -0.5554  2.3124
15880TIP3   OH269054   5.760   0.250  13.325  0.1608 -0.2752  0.6047
15880TIP3    H169055   5.675   0.271  13.286  0.4805 -1.5501 -0.8171
15880TIP3    H269056   5.741   0.241  13.419 -1.3955 -1.0639  0.2430
15881TIP3   OH269057   2.411   0.070  15.424  0.0057 -0.4673 -0.2806
15881TIP3    H169058   2.325   0.106  15.445  0.2921 -1.2782  2.5468
15881TIP3    H269059   2.393  -0.005  15.368 -0.9896  0.4325 -1.1845
15882TIP3   OH269060   1.977   0.008   5.456 -0.1394 -0.2470 -0.4525
15882TIP3    H169061   1.926   0.084   5.428 -2.8363 -2.0157 -0.5848
15882TIP3    H269062   1.914  -0.065   5.454  1.7435 -2.0309  1.9624
15883TIP3   OH269063   1.905   3.201  13.376  0.3505  0.1595 -0.0222
15883TIP3    H169064   1.835   3.257  13.410 -0.8859 -1.7571  0.6465
15883TIP3    H269065   1.973   3.203  13.444 -0.5214 -0.6872  0.8869
15884TIP3   OH269066   0.805   2.073  17.219 -0.1580  0.5666  0.3307
15884TIP3    H169067   0.750   2.137  17.265  0.9820  1.8462 -0.0251
15884TIP3    H269068   0.815   2.110  17.131 -0.0297 -0.4577 -0.0884
15885TIP3   OH269069   0.625   5.474   5.324 -0.0899 -0.6825 -0.4385
15885TIP3    H169070   0.623   5.402   5.386  2.0116 -0.0727  0.3728
15885TIP3    H269071   0.583   5.547   5.370  0.0862 -0.6717 -0.2933
15886TIP3   OH269072   5.035   0.511  12.958 -0.6708 -0.6681 -0.0553
15886TIP3    H169073   5.117   0.559  12.945  0.2999 -2.0005  0.9807
15886TIP3    H269074   5.041   0.437  12.898 -1.2581 -0.5846 -0.2134
15887TIP3   OH269075   1.696   0.162   5.109  0.6511 -0.5921 -0.1032
15887TIP3    H169076   1.611   0.195   5.136  0.5036 -1.5659  0.6464
15887TIP3    H269077   1.754   0.182   5.182  1.4628  1.5624 -1.2918
15888TIP3   OH269078   6.637   3.501  15.663  0.1706  0.0343 -0.0250
15888TIP3    H169079   6.626   3.559  15.739 -0.1729  0.6490 -0.5397
15888TIP3    H269080   6.726   3.467  15.671  0.0851 -0.0120  0.7329
15889TIP3   OH269081   3.547   1.016   4.633 -0.3740 -0.8756 -0.4353
15889TIP3    H169082   3.636   0.983   4.644 -0.2732 -0.3799  0.1873
15889TIP3    H269083   3.493   0.957   4.685 -0.2792 -0.4916  0.0944
15890TIP3   OH269084   5.979   1.613   0.700  0.0252 -0.4099 -0.1499
15890TIP3    H169085   6.004   1.569   0.620 -0.6293 -1.6148  0.2985
15890TIP3    H269086   5.969   1.543   0.764  1.7000  0.6208  1.3089
15891TIP3   OH269087   6.430   3.607  11.789 -0.5290  0.4795 -0.2621
15891TIP3    H169088   6.388   3.569  11.866 -2.1924  1.8236 -0.4771
15891TIP3    H269089   6.362   3.662  11.750  0.4145  0.0676 -2.5059
15892TIP3   OH269090   2.276   4.335   6.063 -0.1853 -0.1566  0.3581
15892TIP3    H169091   2.229   4.415   6.086  0.1700 -0.0345  0.6700
15892TIP3    H269092   2.235   4.267   6.115  0.7818  0.1620  1.5660
15893TIP3   OH269093   6.736   0.977  17.178 -0.1735  0.2101  0.4438
15893TIP3    H169094   6.715   0.908  17.115  0.4281  0.4446 -0.0293
15893TIP3    H269095   6.787   0.932  17.246 -0.5742  0.0118  0.6122
15894TIP3   OH269096   2.574   1.789   5.191 -0.1364 -0.6977  0.4765
15894TIP3    H169097   2.501   1.744   5.147 -0.3475 -0.6896  0.8191
15894TIP3    H269098   2.545   1.798   5.282 -0.9529  1.8828  0.0103
15895TIP3   OH269099   6.079   1.542   2.708  0.2036 -0.4343 -0.2243
15895TIP3    H169100   6.039   1.456   2.699 -1.1249  0.1632 -0.1791
15895TIP3    H269101   6.012   1.595   2.751  1.3425  0.3871  0.5812
15896TIP3   OH269102   4.243   0.088  11.856  0.0017 -0.1504  0.6567
15896TIP3    H169103   4.316   0.030  11.877  0.1895 -0.9804 -2.0590
15896TIP3    H269104   4.283   0.160  11.806 -0.6662  0.7745  1.4345
15897TIP3   OH269105   5.521   1.579   2.438  0.1218  0.6817 -0.2394
15897TIP3    H169106   5.613   1.554   2.428 -0.1952 -0.1529 -1.1402
15897TIP3    H269107   5.472   1.513   2.388 -0.9394  1.3322 -0.0836
15898TIP3   OH269108   3.774   5.593   4.625  0.1291  0.4855 -0.1058
15898TIP3    H169109   3.860   5.613   4.588  0.5235  1.7071  1.4435
15898TIP3    H269110   3.719   5.572   4.549  1.1468  2.1282 -1.2976
15899TIP3   OH269111   1.567   3.794  16.239 -0.2560  0.5456  0.2634
15899TIP3    H169112   1.654   3.760  16.259  0.1132 -1.6929 -4.4308
15899TIP3    H269113   1.582   3.883  16.208 -0.1913  1.7315  3.5133
15900TIP3   OH269114   4.869   3.567  13.188 -0.4867  0.0631 -0.2669
15900TIP3    H169115   4.822   3.630  13.243 -0.7334  0.1487 -0.5767
15900TIP3    H269116   4.840   3.587  13.099 -0.6535 -0.5678 -0.3516
15901TIP3   OH269117   0.096   6.529   1.108  0.4751  0.0972  0.0569
15901TIP3    H169118   0.070   6.621   1.112  1.0124  0.2756 -0.4738
15901TIP3    H269119   0.174   6.528   1.052  0.4032 -0.6943 -0.0389
15902TIP3   OH269120   5.342   3.334  15.443  0.2443 -0.5622  0.5102
15902TIP3    H169121   5.275   3.319  15.376 -0.3668  0.6578  0.8283
15902TIP3    H269122   5.300   3.309  15.525  0.4679 -0.5960  0.6134
15903TIP3   OH269123   5.566   0.221  12.449 -0.0561  0.3101 -0.8602
15903TIP3    H169124   5.591   0.174  12.528  0.1087 -0.1101 -1.1611
15903TIP3    H269125   5.642   0.214  12.391 -0.1717  0.6227 -1.0553
15904TIP3   OH269126   0.714   5.194  15.634  0.1241 -0.6026 -0.4934
15904TIP3    H169127   0.620   5.209  15.623  0.4975  1.5014 -1.2056
15904TIP3    H269128   0.731   5.112  15.588 -1.7749 -2.3787  1.8480
15905TIP3   OH269129   3.853   1.241  11.746  0.4724 -0.1162 -0.4071
15905TIP3    H169130   3.801   1.210  11.672  0.6457 -2.2372  0.3203
15905TIP3    H269131   3.935   1.192  11.739  0.8319  0.3251  0.6736
15906TIP3   OH269132   4.145   4.462  15.349  0.3116  0.0127  0.3681
15906TIP3    H169133   4.141   4.456  15.444 -0.9245  1.0348  0.3895
15906TIP3    H269134   4.198   4.540  15.332  0.5176 -0.1594  0.2176
15907TIP3   OH269135   4.020   6.588  16.062  0.1056  0.3348 -0.2349
15907TIP3    H169136   3.969   6.623  16.135  0.3903  0.6882 -0.2063
15907TIP3    H269137   4.104   6.564  16.101 -1.1749 -3.4813  0.4521
15908TIP3   OH269138   1.239   6.472   3.926 -0.1336  0.4949 -0.5208
15908TIP3    H169139   1.167   6.523   3.962 -0.2280  0.3401 -0.4863
15908TIP3    H269140   1.200   6.387   3.906 -0.3787  0.9587 -2.1095
15909TIP3   OH269141   2.951   4.326   5.835 -0.2295  0.2161  0.2217
15909TIP3    H169142   2.992   4.320   5.748  1.5528 -0.2214  1.0719
15909TIP3    H269143   2.871   4.274   5.827  0.7733 -1.2347 -0.7017
15910TIP3   OH269144   4.432   2.487  11.890  0.2830  0.0885  0.3207
15910TIP3    H169145   4.337   2.502  11.886  0.1368 -0.9178 -0.3308
15910TIP3    H269146   4.447   2.418  11.825  1.5274  0.5568  0.1112
15911TIP3   OH269147   0.932   3.375   1.354  0.5001  0.2899 -0.0426
15911TIP3    H169148   1.013   3.325   1.364  0.4888 -0.0571 -1.5632
15911TIP3    H269149   0.868   3.310   1.324  0.3802  1.1147 -1.6376
15912TIP3   OH269150   2.504   4.809  16.448  0.1168 -0.3827  0.6961
15912TIP3    H169151   2.455   4.891  16.451 -1.0839 -1.1400  2.0119
15912TIP3    H269152   2.446   4.747  16.406  1.7254 -0.1355 -2.0278
15913TIP3   OH269153   1.050   3.728  10.940 -0.6005 -0.6536  0.0723
15913TIP3    H169154   1.097   3.805  10.906  0.5456 -0.2964  2.3413
15913TIP3    H269155   1.111   3.656  10.927 -0.2598 -0.5578  1.1364
15914TIP3   OH269156   0.938   4.991  12.379  0.0464  0.0903  0.0140
15914TIP3    H169157   1.032   4.992  12.364 -0.0355  0.9114 -0.4848
15914TIP3    H269158   0.929   4.970  12.472  0.6165 -2.8934 -0.5783
15915TIP3   OH269159   6.019   1.704  15.816  0.2012 -0.0005  0.6714
15915TIP3    H169160   6.086   1.771  15.817  1.0144 -0.8105  0.7778
15915TIP3    H269161   6.048   1.641  15.750 -0.2937 -0.5072  0.9277
15916TIP3   OH269162   4.094   4.441  13.482  0.4913  0.2217  0.1547
15916TIP3    H169163   4.162   4.445  13.416  0.1999 -1.4772 -0.2538
15916TIP3    H269164   4.015   4.417  13.434 -0.4294  2.1915  0.6178
15917TIP3   OH269165   5.859   3.020  12.723  0.4964 -0.8350  0.0000
15917TIP3    H169166   5.794   3.084  12.753  0.9515 -0.1456 -0.4886
15917TIP3    H269167   5.935   3.035  12.778  0.3559 -1.4422  0.3657
15918TIP3   OH269168   0.145   3.714  15.837  0.5588 -0.4637  0.4427
15918TIP3    H169169   0.209   3.775  15.799 -0.5410  0.7926  0.5489
15918TIP3    H269170   0.160   3.631  15.791  0.3280  0.5925 -1.6099
15919TIP3   OH269171   4.350   1.353   3.957  0.9376 -0.1675  0.1243
15919TIP3    H169172   4.325   1.345   3.865  0.8846 -2.5083  0.3224
15919TIP3    H269173   4.296   1.425   3.989 -0.4615 -0.5812 -1.2029
15920TIP3   OH269174   0.188   5.336  17.033  0.2265  0.1630 -0.4857
15920TIP3    H169175   0.168   5.364  17.122  1.5426 -0.4129  0.0059
15920TIP3    H269176   0.284   5.336  17.029  0.1891 -0.6587 -1.6280
15921TIP3   OH269177   2.546   0.569  11.776 -0.5084 -0.3109 -0.1404
15921TIP3    H169178   2.604   0.516  11.721  1.2028  0.5699  0.7733
15921TIP3    H269179   2.467   0.579  11.724  0.3201 -1.1545 -1.6124
15922TIP3   OH269180   3.258   6.314   6.447  0.1779 -0.4320 -0.5068
15922TIP3    H169181   3.196   6.331   6.376 -1.3111  0.1684  0.8935
15922TIP3    H269182   3.270   6.219   6.447 -1.1977 -0.6141 -0.4448
15923TIP3   OH269183   3.283   1.173  11.417  0.0228 -0.5602 -0.3894
15923TIP3    H169184   3.311   1.209  11.501  1.3999 -0.0143 -1.0827
15923TIP3    H269185   3.227   1.099  11.441 -0.0396 -0.0730  1.0097
15924TIP3   OH269186   5.667   0.068  15.731  0.3343 -0.7957  0.6891
15924TIP3    H169187   5.606   0.025  15.671 -0.9183 -1.7123  2.5304
15924TIP3    H269188   5.645   0.160  15.727  0.0799 -0.8932 -0.0692
15925TIP3   OH269189   1.604   2.738   5.644 -0.2055  0.1084  0.0808
15925TIP3    H169190   1.539   2.687   5.596 -0.2335  0.2761 -0.0563
15925TIP3    H269191   1.682   2.737   5.588 -0.9475  2.2431 -1.0469
15926TIP3   OH269192   1.763   2.064   5.727 -0.2857  0.4068 -0.3782
15926TIP3    H169193   1.793   2.148   5.692  0.6154  0.4626  0.5268
15926TIP3    H269194   1.832   2.002   5.705 -0.9490 -0.1066 -1.0420
15927TIP3   OH269195   3.553   4.368   5.925  0.1282  0.2535 -0.2556
15927TIP3    H169196   3.481   4.307   5.907  0.9136 -0.9044  0.4957
15927TIP3    H269197   3.567   4.361   6.019  0.1583  1.6897 -0.1416
15928TIP3   OH269198   1.118   0.349  12.116 -0.1263  0.3738 -0.4398
15928TIP3    H169199   1.089   0.288  12.184  1.0000  1.0686  0.6823
15928TIP3    H269200   1.038   0.396  12.092 -0.9918 -1.4596 -1.2610
15929TIP3   OH269201   0.155   5.600   1.091 -0.8412 -0.2721  0.0951
15929TIP3    H169202   0.188   5.591   1.180 -0.2574 -0.3571 -0.1276
15929TIP3    H269203   0.098   5.524   1.078 -2.1025  0.5163  0.9013
15930TIP3   OH269204   5.546   3.883   2.872 -0.4126 -0.1130 -0.1319
15930TIP3    H169205   5.571   3.809   2.927  1.9423  0.3884 -0.4660
15930TIP3    H269206   5.512   3.842   2.792  2.5995 -0.8814 -1.0721
15931TIP3   OH269207   0.811   2.211  12.119  0.1308 -0.1516  0.7438
15931TIP3    H169208   0.735   2.175  12.074  0.5587  0.8037 -0.8040
15931TIP3    H269209   0.871   2.137  12.129 -0.1833 -0.4778  0.2114
15932TIP3   OH269210   4.331   2.796   3.699  0.1118 -0.2304  0.1231
15932TIP3    H169211   4.283   2.767   3.776  0.2452  0.6668  0.5431
15932TIP3    H269212   4.264   2.812   3.633 -0.0177 -0.7940  0.1154
15933TIP3   OH269213   3.517   2.350   1.830 -0.0792 -0.3864 -0.3099
15933TIP3    H169214   3.449   2.299   1.785 -1.6682  2.1457 -0.8519
15933TIP3    H269215   3.598   2.305   1.808 -1.2874 -1.7999 -2.0374
15934TIP3   OH269216   3.410   1.544  13.496 -0.2249  0.4301 -0.3853
15934TIP3    H169217   3.463   1.465  13.488 -0.8219  0.0170 -0.2603
15934TIP3    H269218   3.321   1.512  13.513 -0.3415  1.1399  0.3362
15935TIP3   OH269219   5.565   4.332  16.393 -0.1921 -0.0049 -0.2250
15935TIP3    H169220   5.592   4.370  16.477 -2.1374 -0.2631  0.5404
15935TIP3    H269221   5.484   4.378  16.371  1.0994  1.1250 -2.7296
15936TIP3   OH269222   1.695   0.335  15.712 -0.2968 -0.5189  0.1751
15936TIP3    H169223   1.695   0.370  15.623  1.6542  0.0406  0.3718
15936TIP3    H269224   1.636   0.392  15.761  0.6105  0.7460 -0.1840
15937TIP3   OH269225   3.644   6.349   0.243 -0.3787 -0.0222  0.6007
15937TIP3    H169226   3.577   6.405   0.283  0.1915  0.6184  0.6566
15937TIP3    H269227   3.694   6.316   0.316  0.6246  1.0985  0.4365
15938TIP3   OH269228   1.927   2.198   4.537  0.1365  0.5804 -0.1080
15938TIP3    H169229   2.005   2.248   4.561  0.1675  0.9124 -0.8825
15938TIP3    H269230   1.926   2.200   4.441  0.3841 -1.3004 -0.1561
15939TIP3   OH269231   3.340   3.129  16.197 -0.0774 -0.1558  0.0410
15939TIP3    H169232   3.286   3.101  16.271 -0.2610 -1.8820 -0.7229
15939TIP3    H269233   3.277   3.153  16.129  0.0986  0.4230  0.0799
15940TIP3   OH269234   4.000   6.184  12.669  0.0388 -0.0338  0.2989
15940TIP3    H169235   3.988   6.267  12.717 -1.9137  0.4902 -0.9917
15940TIP3    H269236   3.974   6.206  12.579 -1.1823 -2.2095  0.0952
15941TIP3   OH269237   2.673   5.773  13.589  0.6644 -0.1708 -0.8516
15941TIP3    H169238   2.587   5.775  13.547 -0.0924 -1.6461  0.5484
15941TIP3    H269239   2.735   5.763  13.516 -0.3017  1.2274 -1.8952
15942TIP3   OH269240   2.778   0.395   1.467 -0.1909 -0.0934  0.5548
15942TIP3    H169241   2.763   0.326   1.533  1.5110 -1.8317 -0.8217
15942TIP3    H269242   2.873   0.398   1.457 -0.4500 -0.0383 -2.0114
15943TIP3   OH269243   3.298   2.342   3.172 -0.6285 -0.1919  0.3879
15943TIP3    H169244   3.276   2.404   3.103 -1.6996 -0.7834  0.1902
15943TIP3    H269245   3.214   2.319   3.212 -0.2262 -1.3983  0.5591
15944TIP3   OH269246   0.835   1.205   5.048  0.4036 -0.3958 -0.2760
15944TIP3    H169247   0.826   1.273   4.982  0.9021 -1.4222 -1.4104
15944TIP3    H269248   0.760   1.147   5.034  0.4016 -0.5076  0.1858
15945TIP3   OH269249   1.723   5.035  12.551 -0.0564  0.2983 -0.1267
15945TIP3    H169250   1.721   5.002  12.641 -0.8302  0.4414 -0.0901
15945TIP3    H269251   1.638   5.076  12.539  0.6624  1.7433 -0.3837
15946TIP3   OH269252   2.222   0.144   3.966  0.5947 -0.1901 -1.1122
15946TIP3    H169253   2.284   0.136   3.893  1.2576 -1.8747 -0.3965
15946TIP3    H269254   2.181   0.057   3.971 -1.8891  0.9305 -1.6187
15947TIP3   OH269255   3.324   4.079  15.921  0.5459  0.2810  0.4600
15947TIP3    H169256   3.352   4.014  15.985  1.2236  1.1633  1.0831
15947TIP3    H269257   3.294   4.028  15.846 -0.3605 -0.7729  1.5113
15948TIP3   OH269258   2.648   1.517  14.433  0.0916  0.3661 -0.1189
15948TIP3    H169259   2.686   1.467  14.506 -0.4649 -0.9443 -0.7160
15948TIP3    H269260   2.572   1.467  14.407  0.9334  0.2098 -2.3725
15949TIP3   OH269261   4.461   6.460  17.109 -0.3022  0.0166  0.2619
15949TIP3    H169262   4.543   6.411  17.098 -0.8546 -0.3349 -2.7123
15949TIP3    H269263   4.400   6.417  17.049 -1.9677  1.8170  0.6347
15950TIP3   OH269264   2.702   5.263  12.286  0.6385 -0.5914 -1.0687
15950TIP3    H169265   2.661   5.340  12.246  1.5461 -1.1569 -3.1590
15950TIP3    H269266   2.632   5.198  12.290  0.4051 -0.3534 -1.2577
15951TIP3   OH269267   2.105   3.586   1.805  1.2591 -0.1511 -0.0590
15951TIP3    H169268   2.065   3.505   1.837  0.5493  0.3720  0.4023
15951TIP3    H269269   2.049   3.613   1.732  1.0461  0.3297  0.2802
15952TIP3   OH269270   0.706   0.952  12.259  0.2663 -0.0780 -0.1559
15952TIP3    H169271   0.667   1.026  12.305  1.7510 -0.2780  1.4831
15952TIP3    H269272   0.786   0.988  12.220 -0.4034 -0.1826 -1.6772
15953TIP3   OH269273   2.351   5.952  16.818 -0.3360 -0.1352  0.2466
15953TIP3    H169274   2.404   5.988  16.888 -1.6806 -0.9644  1.7270
15953TIP3    H269275   2.307   6.028  16.779  0.3378  0.3120  0.3469
15954TIP3   OH269276   4.248   0.379  13.002  0.4030 -0.2638  0.6185
15954TIP3    H169277   4.158   0.404  12.982  0.7261 -0.4472 -1.0757
15954TIP3    H269278   4.244   0.286  13.023  0.2896 -0.4202 -0.0925
15955TIP3   OH269279   5.751   6.097   2.075 -0.2026 -0.4727  0.2107
15955TIP3    H169280   5.828   6.090   2.133 -0.1310  0.6010  0.2531
15955TIP3    H269281   5.677   6.080   2.132  0.0781 -2.7994 -0.0954
15956TIP3   OH269282   4.191   3.375   5.268  0.5032 -0.7227  0.0322
15956TIP3    H169283   4.233   3.439   5.325  0.7280  0.1370 -1.0787
15956TIP3    H269284   4.261   3.345   5.210 -0.0018 -0.6181 -0.6416
15957TIP3   OH269285   2.414   2.764  16.171 -0.6724  0.2626  0.8992
15957TIP3    H169286   2.456   2.710  16.238 -1.6313 -0.6836  0.7480
15957TIP3    H269287   2.487   2.797  16.118 -0.1730 -2.4154 -0.1609
15958TIP3   OH269288   1.341   0.091  16.466 -0.4145  0.1523 -0.2561
15958TIP3    H169289   1.264   0.093  16.523  0.0765  0.1299  0.4212
15958TIP3    H269290   1.320   0.026  16.399  0.0043 -1.6872  1.3636
15959TIP3   OH269291   2.732   3.554  15.867  0.3105 -0.1363 -0.0042
15959TIP3    H169292   2.802   3.590  15.813  0.7825 -1.8082 -0.5330
15959TIP3    H269293   2.682   3.497  15.808 -0.8968  0.2741  0.6141
15960TIP3   OH269294   0.462   3.444  13.974  0.6193  0.5914  0.4205
15960TIP3    H169295   0.370   3.454  13.950  0.9622  0.8202 -0.8296
15960TIP3    H269296   0.467   3.481  14.062 -0.6389 -0.1557  0.8304
15961TIP3   OH269297   0.074   2.151   0.794  0.0281 -0.0581 -0.0978
15961TIP3    H169298   0.041   2.217   0.733  0.3009  0.9287  0.7971
15961TIP3    H269299   0.154   2.191   0.830  0.5866 -1.1814 -0.0804
15962TIP3   OH269300   6.475   4.753   3.551 -0.2948  0.4382 -0.2049
15962TIP3    H169301   6.548   4.810   3.527  0.7563 -0.6342  0.3904
15962TIP3    H269302   6.507   4.704   3.626 -1.6404 -0.0534  0.0589
15963TIP3   OH269303   2.243   6.585  14.067 -0.6550  0.0531  0.6977
15963TIP3    H169304   2.274   6.672  14.041  0.5289  0.0757  2.1065
15963TIP3    H269305   2.265   6.528  13.994  1.6066  0.3131  1.1528
15964TIP3   OH269306   4.231   1.933   2.727  0.1839 -0.0506  0.6165
15964TIP3    H169307   4.147   1.961   2.763  0.3469  0.9424  0.2502
15964TIP3    H269308   4.279   2.015   2.712  0.3723 -0.4785 -1.2151
15965TIP3   OH269309   5.254   3.590   0.067  0.1274  0.1420  0.5099
15965TIP3    H169310   5.264   3.598  -0.028 -0.5850  0.3178  0.4454
15965TIP3    H269311   5.220   3.675   0.094 -0.6424 -0.2373  0.7762
15966TIP3   OH269312   0.196   2.702   1.551 -0.0671 -0.4656 -0.5658
15966TIP3    H169313   0.224   2.617   1.517  2.7547 -0.5024  1.6782
15966TIP3    H269314   0.168   2.684   1.641 -0.7486  0.7822 -0.5178
15967TIP3   OH269315   4.548   1.556   5.006  0.6704 -0.8816  0.3829
15967TIP3    H169316   4.572   1.588   5.093  1.3721 -1.5141  0.4366
15967TIP3    H269317   4.625   1.505   4.979  0.9384  0.2979 -1.1067
15968TIP3   OH269318   1.600   3.514   5.691 -0.2642  0.5350 -0.5653
15968TIP3    H169319   1.507   3.493   5.685  0.0170 -1.0372  0.3532
15968TIP3    H269320   1.642   3.431   5.712  1.1441  1.5707  0.8403
15969TIP3   OH269321   5.886   2.231   2.885  0.7010  0.2053  0.1631
15969TIP3    H169322   5.903   2.137   2.890 -1.1318 -0.1577  0.1372
15969TIP3    H269323   5.796   2.241   2.918  1.4842  2.1687  1.7949
15970TIP3   OH269324   6.746   1.354   3.965 -0.1815  0.2407  0.4568
15970TIP3    H169325   6.683   1.287   3.991  0.1104  0.5541  2.0493
15970TIP3    H269326   6.823   1.336   4.019  1.1387 -0.1623 -1.4829
15971TIP3   OH269327   3.964   5.500   3.042  0.3171 -0.1147 -0.1137
15971TIP3    H169328   3.984   5.412   3.073  3.6468  1.0134  1.2799
15971TIP3    H269329   3.996   5.557   3.113 -1.1213  2.2131 -1.3005
15972TIP3   OH269330   6.386   0.983   4.481 -1.0855  0.2054 -0.7507
15972TIP3    H169331   6.466   0.932   4.471 -0.7259  0.4683  0.6792
15972TIP3    H269332   6.320   0.920   4.511 -0.1082  0.8975  3.1644
15973TIP3   OH269333   0.660   0.236   3.021 -0.1873 -0.3865  0.3338
15973TIP3    H169334   0.633   0.267   2.935 -0.4657  0.6660  0.8046
15973TIP3    H269335   0.596   0.169   3.043 -1.3406  0.8015  0.6363
15974TIP3   OH269336   2.122   3.526  13.695 -0.3162 -0.5155  0.3446
15974TIP3    H169337   2.060   3.577  13.643 -1.1716  0.6043  2.4389
15974TIP3    H269338   2.092   3.435  13.685 -0.2728 -0.3678 -1.3528
15975TIP3   OH269339   1.859   3.589   5.147  0.0466 -0.4833 -0.2549
15975TIP3    H169340   1.808   3.669   5.160  0.3079 -0.1895 -1.0549
15975TIP3    H269341   1.795   3.523   5.122 -0.2714 -0.7107  1.1123
15976TIP3   OH269342   3.003   6.081  15.350 -0.1816  0.3725 -0.1944
15976TIP3    H169343   2.919   6.122  15.327 -0.6503  0.8019  2.1226
15976TIP3    H269344   3.016   6.013  15.283 -2.0293  0.7814 -0.9970
15977TIP3   OH269345   1.384   3.437  16.401 -0.3600  0.0507 -0.2387
15977TIP3    H169346   1.355   3.526  16.382  1.1661  1.1123  2.1421
15977TIP3    H269347   1.455   3.421  16.338  0.6516  1.2543  0.5717
15978TIP3   OH269348   6.102   2.425  13.545  0.2381  0.5672 -0.6126
15978TIP3    H169349   6.125   2.513  13.515  1.2359  0.3931 -0.3833
15978TIP3    H269350   6.113   2.428  13.640  2.6529 -0.4569 -0.8075
15979TIP3   OH269351   6.708   2.448  14.711 -0.1600  0.0758 -0.3316
15979TIP3    H169352   6.659   2.502  14.649  0.0980 -2.2447 -2.6194
15979TIP3    H269353   6.797   2.446  14.676  0.7344  1.2351  1.7966
15980TIP3   OH269354   3.411   4.702   0.462  0.3725 -0.3478 -0.2503
15980TIP3    H169355   3.404   4.606   0.467  2.3907 -0.5140 -0.3336
15980TIP3    H269356   3.402   4.731   0.552 -2.0047 -0.4665 -0.4202
15981TIP3   OH269357   6.765   0.751   3.104 -0.5360 -0.5380  0.0334
15981TIP3    H169358   6.799   0.696   3.175  0.2111 -0.7008 -0.4390
15981TIP3    H269359   6.841   0.802   3.075 -1.0417  0.1716 -0.0619
15982TIP3   OH269360   5.986   0.682  16.484  0.3242 -0.4038  0.2971
15982TIP3    H169361   6.020   0.753  16.538  1.7031 -0.4324 -0.5155
15982TIP3    H269362   6.048   0.675  16.412 -1.5090 -0.3652 -1.3021
15983TIP3   OH269363   5.844   6.631   2.255 -0.6871  0.5246 -0.0252
15983TIP3    H169364   5.821   6.568   2.186  1.0854 -0.1323 -0.0394
15983TIP3    H269365   5.873   6.709   2.208 -1.1629  0.7067 -0.0164
15984TIP3   OH269366   1.421   3.268   5.648 -0.4669  0.1481  0.1071
15984TIP3    H169367   1.355   3.201   5.662  0.7959 -1.2008 -0.3047
15984TIP3    H269368   1.422   3.281   5.553 -0.1474  0.1673  0.1110
15985TIP3   OH269369   6.658   3.167  12.796 -0.0369  0.4112  0.2281
15985TIP3    H169370   6.734   3.163  12.854  0.3306 -0.5451 -0.3078
15985TIP3    H269371   6.693   3.201  12.714 -0.4924  1.4501  0.4624
15986TIP3   OH269372   1.764   0.928   3.793  0.4954  0.1198 -0.5939
15986TIP3    H169373   1.786   0.840   3.764  0.3204 -0.0845 -0.1206
15986TIP3    H269374   1.770   0.923   3.889 -2.3919 -0.1752 -0.3914
15987TIP3   OH269375   4.699   3.673  12.005  0.3123 -0.5146  0.3580
15987TIP3    H169376   4.768   3.700  11.945  2.7720 -0.4419  3.0872
15987TIP3    H269377   4.617   3.699  11.962  2.1603  3.3744 -1.0210
15988TIP3   OH269378   6.007   3.883   5.251 -0.3393 -0.4494  0.1896
15988TIP3    H169379   6.040   3.879   5.161  1.9820  1.4951  0.9067
15988TIP3    H269380   6.016   3.794   5.284  1.1480 -0.6469 -0.7134
15989TIP3   OH269381   5.165   5.223  16.406  0.0275  0.6249 -0.4318
15989TIP3    H169382   5.080   5.179  16.402  0.6605 -0.5617 -1.0660
15989TIP3    H269383   5.171   5.271  16.324 -0.6530  1.9084  0.2492
15990TIP3   OH269384   5.752   4.295  14.053  0.0115 -0.0459 -0.0835
15990TIP3    H169385   5.714   4.371  14.095 -1.1216 -1.4059  1.4112
15990TIP3    H269386   5.815   4.331  13.990  1.0653  2.0601  2.0885
15991TIP3   OH269387   5.040   3.825   2.575  0.1442  0.3859  0.2126
15991TIP3    H169388   5.097   3.758   2.614  0.3761  0.5228  0.1075
15991TIP3    H269389   5.009   3.785   2.494 -0.2560  0.1403  0.4858
15992TIP3   OH269390   1.543   6.479   0.008  0.1057  0.1680  0.1129
15992TIP3    H169391   1.452   6.469  -0.020 -0.6266  1.9590  1.7362
15992TIP3    H269392   1.557   6.407   0.070  0.5580 -1.5138 -1.8790
15993TIP3   OH269393   5.697   0.370  11.276  0.4498 -0.3604  0.4787
15993TIP3    H169394   5.688   0.391  11.369 -1.3408 -0.8660  0.4387
15993TIP3    H269395   5.709   0.275  11.273  1.8352 -0.1871  0.2663
15994TIP3   OH269396   6.707   5.056  11.665 -0.0092  0.1811 -0.3708
15994TIP3    H169397   6.662   5.137  11.643  0.2760  0.5031  0.2121
15994TIP3    H269398   6.647   5.012  11.726  0.6567  0.8268  0.7715
15995TIP3   OH269399   2.755   1.148   4.728 -0.0763  0.0728  0.0119
15995TIP3    H169400   2.813   1.160   4.653  2.4464  0.8178  2.0356
15995TIP3    H269401   2.676   1.197   4.705  0.8653  0.7362 -1.9150
15996TIP3   OH269402   1.645   5.490  16.699 -0.3473  0.1100 -0.5950
15996TIP3    H169403   1.736   5.518  16.705 -0.5537  0.5774  0.4423
15996TIP3    H269404   1.596   5.569  16.677 -0.3456 -0.4264 -2.6966
15997TIP3   OH269405   5.504   1.230  13.816 -0.2927  0.0727 -0.5829
15997TIP3    H169406   5.463   1.285  13.750 -0.5332 -0.3128 -0.7540
15997TIP3    H269407   5.442   1.231  13.889 -0.1650  0.2589 -0.4769
15998TIP3   OH269408   1.014   2.721  15.819 -0.2328 -0.1537  0.0286
15998TIP3    H169409   1.021   2.657  15.890  0.7975 -0.7221 -0.5691
15998TIP3    H269410   1.037   2.805  15.859 -0.4842 -0.3401  0.5563
15999TIP3   OH269411   5.338   3.497  14.409  0.3877 -0.4197 -0.2144
15999TIP3    H169412   5.279   3.571  14.420 -0.7871 -1.4855  0.7960
15999TIP3    H269413   5.338   3.453  14.494  1.4811 -1.2875 -0.6398
16000TIP3   OH269414   4.600   0.677   0.097  0.1861 -0.4197 -0.9326
16000TIP3    H169415   4.584   0.613   0.167 -0.6514  2.0544  1.2036
16000TIP3    H269416   4.550   0.643   0.023 -1.6734 -1.3704  0.6967
16001TIP3   OH269417   0.145   6.694  12.857 -0.4225 -0.0223 -0.3297
16001TIP3    H169418   0.140   6.657  12.945  3.2026  0.9910  0.3684
16001TIP3    H269419   0.173   6.620  12.802  1.6384  0.3472  0.1707
16002TIP3   OH269420   5.195   5.069   0.116  0.0906 -0.2154 -0.1851
16002TIP3    H169421   5.220   4.993   0.170 -0.9882  0.4822  1.3377
16002TIP3    H269422   5.195   5.142   0.178  0.4193  0.9092 -1.4979
16003TIP3   OH269423   6.642   1.457  17.180 -0.5098 -0.3676 -0.0923
16003TIP3    H169424   6.686   1.542  17.176 -0.8752 -0.2675 -3.1491
16003TIP3    H269425   6.706   1.398  17.218  0.0437  1.0772  1.2824
16004TIP3   OH269426   6.594   6.231   2.243  0.5162 -0.0916 -0.2619
16004TIP3    H169427   6.515   6.233   2.297  1.3446  0.1661  0.9707
16004TIP3    H269428   6.564   6.255   2.156 -0.8006 -0.2095  0.1452
16005TIP3   OH269429   3.683   3.525   0.595  0.2980  0.1537 -0.8236
16005TIP3    H169430   3.730   3.523   0.678 -1.4273 -0.3040  0.1665
16005TIP3    H269431   3.682   3.434   0.566  0.3644  0.2223 -1.0419
16006TIP3   OH269432   6.247   6.744  15.689 -0.2203  0.4578 -0.8755
16006TIP3    H169433   6.281   6.765  15.602  1.2435 -0.8993 -0.6452
16006TIP3    H269434   6.274   6.654  15.704  1.9291  1.5332  2.1173
16007TIP3   OH269435   2.727   2.279  14.331  0.4572 -0.3608  0.4572
16007TIP3    H169436   2.780   2.255  14.255  1.0157 -1.3234  1.1479
16007TIP3    H269437   2.775   2.352  14.371 -0.2845  0.7288 -0.5872
16008TIP3   OH269438   4.959   2.339  16.174  0.0655 -0.2774  0.3165
16008TIP3    H169439   4.979   2.333  16.267  0.3051  2.5401  0.4967
16008TIP3    H269440   4.869   2.372  16.171 -0.8173 -2.6561 -0.4855
16009TIP3   OH269441   2.455   1.473   2.084  0.3772 -0.3815 -0.0554
16009TIP3    H169442   2.539   1.501   2.047  0.1946  0.3223  0.0538
16009TIP3    H269443   2.476   1.450   2.175  0.2933  0.6956  0.2540
16010TIP3   OH269444   5.937   4.714   0.187  0.2767  0.1794 -0.4766
16010TIP3    H169445   6.011   4.741   0.242 -1.0360  2.1365  0.4083
16010TIP3    H269446   5.893   4.645   0.238 -0.0994  0.9764  0.3045
16011TIP3   OH269447   0.801   0.917  14.533  0.2404  0.1807 -0.5304
16011TIP3    H169448   0.758   0.844  14.489 -1.0690  0.9128 -0.4875
16011TIP3    H269449   0.789   0.991  14.474  0.4570  0.6468  0.0061
16012TIP3   OH269450   0.063   5.958  14.226  0.3179 -0.1367 -0.0468
16012TIP3    H169451  -0.032   5.959  14.230  0.3669  0.5230  1.0662
16012TIP3    H269452   0.086   6.038  14.178  0.2981 -0.7019 -1.0315
16013TIP3   OH269453   4.892   1.852  11.452 -0.3907 -0.6199  0.4308
16013TIP3    H169454   4.818   1.794  11.469 -2.2580  1.3728 -0.5798
16013TIP3    H269455   4.913   1.839  11.360 -1.5946  1.0901 -0.1233
16014TIP3   OH269456   4.410   4.851  11.302 -0.1329  0.7955 -0.4795
16014TIP3    H169457   4.386   4.856  11.210  0.1621  0.4685 -0.5736
16014TIP3    H269458   4.493   4.898  11.308 -0.6256  1.6632 -0.2088
16015TIP3   OH269459   1.952   3.609   0.284 -0.6046 -0.1934  0.1911
16015TIP3    H169460   1.949   3.705   0.288 -1.2099 -0.2848  2.1254
16015TIP3    H269461   2.038   3.587   0.319 -1.7024 -0.4762  2.8504
16016TIP3   OH269462   6.243   0.815   3.034 -0.1293 -0.1502 -0.1738
16016TIP3    H169463   6.169   0.875   3.039 -0.5037 -0.5050 -1.2530
16016TIP3    H269464   6.203   0.728   3.029  0.3413 -0.2838 -1.6629
16017TIP3   OH269465   0.470   4.946   1.292  0.3227 -0.3460 -0.2075
16017TIP3    H169466   0.443   4.884   1.224  2.2761 -0.6489 -0.7386
16017TIP3    H269467   0.530   5.006   1.247 -0.5647  1.1762  0.5980
16018TIP3   OH269468   1.585   5.560   0.582  0.1305 -0.1026 -0.1409
16018TIP3    H169469   1.530   5.632   0.614 -1.0597 -0.0714 -2.1453
16018TIP3    H269470   1.671   5.599   0.567 -0.6358  1.0506 -1.6817
16019TIP3   OH269471   0.237   3.810   1.457 -0.0658  0.0128 -0.3315
16019TIP3    H169472   0.229   3.900   1.424  0.2485 -0.0250 -0.5088
16019TIP3    H269473   0.220   3.755   1.381 -0.0063 -0.0775 -0.2797
16020TIP3   OH269474   0.945   1.570   1.782  0.3910  0.8430 -0.6778
16020TIP3    H169475   1.018   1.515   1.754  0.3904  0.4705  0.0390
16020TIP3    H269476   0.878   1.508   1.813  0.7417  1.2751  0.9682
16021TIP3   OH269477   4.685   5.432  17.164  0.1379 -0.1983  0.2329
16021TIP3    H169478   4.641   5.497  17.219  0.4257 -0.7658  1.1497
16021TIP3    H269479   4.636   5.432  17.083  1.0650  2.2997 -0.3892
16022TIP3   OH269480   4.592   1.297  14.121 -0.1669 -0.1501  0.0169
16022TIP3    H169481   4.525   1.268  14.182  1.5023  0.4396  2.1821
16022TIP3    H269482   4.673   1.257  14.153  0.9655  1.2650 -1.0201
16023TIP3   OH269483   4.987   1.918   3.204  0.2346  0.0829 -0.5701
16023TIP3    H169484   4.951   1.867   3.131  1.4717 -1.1937 -0.2841
16023TIP3    H269485   4.915   1.922   3.267  0.3664 -1.9160 -0.2753
16024TIP3   OH269486   5.489   2.157  15.884  0.2548 -0.3858  0.4333
16024TIP3    H169487   5.462   2.217  15.954  1.6273  0.2829  0.4028
16024TIP3    H269488   5.578   2.185  15.862  0.1702 -1.1818 -0.9448
16025TIP3   OH269489   0.459   6.427   0.555  0.4813  0.4346 -0.0530
16025TIP3    H169490   0.470   6.458   0.466 -0.9082 -1.1123 -0.7823
16025TIP3    H269491   0.532   6.367   0.569  0.7833  0.7928 -0.0987
16026TIP3   OH269492   6.374   5.859   5.232 -0.4766 -0.2415  0.6189
16026TIP3    H169493   6.301   5.909   5.194 -0.4621 -1.1869 -0.7007
16026TIP3    H269494   6.371   5.775   5.186  1.1377 -0.4740  0.9136
16027TIP3   OH269495   2.715   5.867   5.000  0.0757 -0.1918 -0.1776
16027TIP3    H169496   2.701   5.961   5.000  0.2038 -0.1683 -0.6033
16027TIP3    H269497   2.656   5.834   4.931 -0.1260 -0.4459  0.1135
16028TIP3   OH269498   1.501   0.283  15.219  0.0047 -0.5597  0.0490
16028TIP3    H169499   1.456   0.270  15.303  0.2753 -0.2344  0.2433
16028TIP3    H269500   1.506   0.195  15.181  1.2853 -0.9470  1.0935
16029TIP3   OH269501   3.653   3.567   4.813 -0.5494 -0.6032 -0.0362
16029TIP3    H169502   3.729   3.558   4.755 -1.2973 -0.8139 -0.9935
16029TIP3    H269503   3.656   3.489   4.869  0.0892 -0.4711  0.1182
16030TIP3   OH269504   2.660   0.396  11.604 -0.0301 -0.9803 -0.0468
16030TIP3    H169505   2.620   0.316  11.639 -0.3951 -0.2352  1.2535
16030TIP3    H269506   2.753   0.376  11.601  0.0375 -0.9855  1.5741
16031TIP3   OH269507   6.393   6.361  12.382 -0.9115  0.1387  0.0020
16031TIP3    H169508   6.311   6.391  12.422  0.0049  1.9940  0.5527
16031TIP3    H269509   6.456   6.358  12.455 -0.4052 -1.0513 -0.4570
16032TIP3   OH269510   2.618   4.602   4.736  0.0993  0.3665 -0.1753
16032TIP3    H169511   2.568   4.527   4.770  0.6251  0.2862  0.4376
16032TIP3    H269512   2.633   4.581   4.644 -1.4504  0.6413 -0.5108
16033TIP3   OH269513   6.134   5.996   0.281 -0.0711 -0.3200 -0.0144
16033TIP3    H169514   6.100   5.914   0.316 -1.9088  0.9254  1.1989
16033TIP3    H269515   6.197   5.969   0.214 -2.1763 -2.7310 -1.1094
16034TIP3   OH269516   0.244   1.081  12.608 -0.0763  1.0933  0.4622
16034TIP3    H169517   0.258   1.076  12.513  0.5255 -0.9738  0.6500
16034TIP3    H269518   0.195   1.002  12.629 -0.7909  1.8858  1.7845
16035TIP3   OH269519   3.606   4.838   5.926 -0.1716  0.2166 -0.2475
16035TIP3    H169520   3.602   4.755   5.877 -0.0945 -0.7118  1.3071
16035TIP3    H269521   3.519   4.876   5.913  0.3620  0.7717 -2.4415
16036TIP3   OH269522   1.995   3.279  14.267  0.2124  0.1281  0.0229
16036TIP3    H169523   2.028   3.208  14.212 -0.5848  0.5900 -1.0651
16036TIP3    H269524   2.009   3.248  14.357 -1.8423 -2.2609 -0.4065
16037TIP3   OH269525   1.093   1.193   5.024  0.4852  0.0095 -0.1395
16037TIP3    H169526   1.099   1.270   4.967  1.5573 -1.5869 -2.2625
16037TIP3    H269527   1.001   1.170   5.023  0.1535  1.2321  0.4990
16038TIP3   OH269528   0.955   4.871   5.728  0.4170 -0.2608  0.0086
16038TIP3    H169529   0.917   4.956   5.708  1.0968  0.0459  0.0217
16038TIP3    H269530   1.030   4.863   5.670 -1.2935 -2.0772 -2.0400
16039TIP3   OH269531   6.275   1.725  16.314  0.0235  0.4659  0.2868
16039TIP3    H169532   6.254   1.648  16.368  0.6215  0.4607  0.5068
16039TIP3    H269533   6.370   1.731  16.316 -0.0361  1.3789  0.4908
16040TIP3   OH269534   0.032   2.149   3.065 -0.4874  0.6071  0.2115
16040TIP3    H169535   0.089   2.134   3.140  1.4554 -1.9373 -1.6866
16040TIP3    H269536   0.063   2.231   3.026  0.1980  0.5543  0.6504
16041TIP3   OH269537   5.435   3.254  13.786  0.3257  0.6589 -0.0818
16041TIP3    H169538   5.391   3.185  13.736  0.2749 -1.0528  2.2179
16041TIP3    H269539   5.366   3.294  13.838  0.4364  2.1705 -1.0857
16042TIP3   OH269540   5.286   3.349  12.329  0.3449 -0.2332 -0.0803
16042TIP3    H169541   5.352   3.280  12.326 -0.1673 -0.6921 -1.4282
16042TIP3    H269542   5.208   3.309  12.292  0.2922  1.3128 -1.7214
16043TIP3   OH269543   5.563   1.330   3.369 -0.6798 -0.1998 -0.2535
16043TIP3    H169544   5.580   1.345   3.276 -0.8007 -0.4473 -0.3148
16043TIP3    H269545   5.554   1.418   3.406  0.1197 -0.0814 -0.3362
16044TIP3   OH269546   2.169   5.129   2.879 -0.1916  0.0089 -0.2204
16044TIP3    H169547   2.101   5.121   2.812 -0.4223  0.3347 -0.0268
16044TIP3    H269548   2.161   5.219   2.910  1.6484  0.6552 -1.5940
16045TIP3   OH269549   4.032   5.309   4.414  0.0855 -0.2103 -0.0286
16045TIP3    H169550   3.998   5.353   4.492  0.8466 -1.1903  0.8878
16045TIP3    H269551   4.127   5.322   4.419  0.0006  1.2011 -1.7333
16046TIP3   OH269552   2.664   5.713  16.888  0.2075 -0.1431 -0.0940
16046TIP3    H169553   2.679   5.787  16.948  2.3939  0.0427 -0.8085
16046TIP3    H269554   2.727   5.728  16.817  1.0745 -3.0073  0.0338
16047TIP3   OH269555   1.625   1.017  11.575  0.0464  0.4486  0.2643
16047TIP3    H169556   1.630   1.016  11.670 -2.0004  0.9381  0.3968
16047TIP3    H269557   1.554   0.957  11.554 -0.2405  1.1838 -0.9014
16048TIP3   OH269558   6.149   5.513   1.897  0.5094  0.5463  0.3283
16048TIP3    H169559   6.130   5.491   1.806 -2.1361 -1.5958  1.3512
16048TIP3    H269560   6.111   5.600   1.909 -3.8645 -1.3166  0.7516
16049TIP3   OH269561   6.741   1.805  11.451 -0.2130 -0.1070 -0.1922
16049TIP3    H169562   6.673   1.753  11.493  0.5918 -1.1309 -0.1152
16049TIP3    H269563   6.791   1.741  11.400 -0.5530  0.9485 -1.8789
16050TIP3   OH269564   5.261   3.342   3.839  0.1173 -0.5760 -0.2703
16050TIP3    H169565   5.333   3.387   3.882 -1.2178 -0.5826  2.0090
16050TIP3    H269566   5.291   3.251   3.833  0.8329 -0.3310 -0.5424
16051TIP3   OH269567   5.188   2.152  11.310  0.0725  0.3876  0.2320
16051TIP3    H169568   5.106   2.196  11.289  0.4502  0.5320 -1.0002
16051TIP3    H269569   5.253   2.193  11.252  0.2624 -2.3194 -1.5687
16052TIP3   OH269570   6.679   5.459   0.209  0.1759 -0.0802 -0.0017
16052TIP3    H169571   6.738   5.393   0.245 -0.4877 -0.5195  0.2970
16052TIP3    H269572   6.683   5.445   0.114 -1.0011 -1.4756  0.1304
16053TIP3   OH269573   1.117   6.465   4.409 -0.2314 -0.2487  0.0450
16053TIP3    H169574   1.135   6.559   4.400  2.0085 -0.3474  2.7256
16053TIP3    H269575   1.172   6.424   4.342 -0.8550  0.2957 -0.8183
16054TIP3   OH269576   6.427   6.482   5.633 -0.0782  0.1897  0.0308
16054TIP3    H169577   6.487   6.420   5.590  0.1706  1.4011 -1.4267
16054TIP3    H269578   6.469   6.502   5.716  0.6760 -0.3264 -0.2184
16055TIP3   OH269579   1.032   5.350  11.729 -0.1535 -0.4102  0.3347
16055TIP3    H169580   1.073   5.303  11.802 -0.1506 -2.1717 -0.7769
16055TIP3    H269581   1.094   5.341  11.657 -1.1134 -0.4991 -0.4878
16056TIP3   OH269582   4.648   3.746   3.577 -0.2154  0.1759 -0.4100
16056TIP3    H169583   4.725   3.708   3.620  0.1883  0.5845 -0.7541
16056TIP3    H269584   4.678   3.763   3.487 -0.1711  1.9196 -0.0846
16057TIP3   OH269585   1.072   0.644  15.590  0.0812  0.0220 -0.2815
16057TIP3    H169586   1.065   0.729  15.546  0.4019  0.2809  0.1600
16057TIP3    H269587   1.008   0.650  15.662 -0.0922 -0.2152 -0.4149
16058TIP3   OH269588   4.200   4.450  13.936 -0.6150 -0.5007 -0.2029
16058TIP3    H169589   4.133   4.393  13.976  1.3108 -1.4936  1.7515
16058TIP3    H269590   4.162   4.538  13.941 -2.9424 -1.3538 -1.7327
16059TIP3   OH269591   5.959   0.072   2.163 -0.7505 -0.1479 -0.2019
16059TIP3    H169592   5.914   0.139   2.110 -1.1422  0.4563  0.8810
16059TIP3    H269593   5.973   0.114   2.248 -0.4302 -1.2321  0.2857
16060TIP3   OH269594   2.794   4.427   2.270 -0.1413  0.4515 -0.2678
16060TIP3    H169595   2.799   4.342   2.227 -0.1972  0.9949 -1.3740
16060TIP3    H269596   2.733   4.414   2.342  0.4581 -0.6459  0.0523
16061TIP3   OH269597   1.843   2.831  11.752 -0.2866 -0.2472 -0.0692
16061TIP3    H169598   1.936   2.845  11.735 -0.1660 -3.1372 -2.0921
16061TIP3    H269599   1.838   2.820  11.847  1.4496 -0.2406  0.0377
16062TIP3   OH269600   5.807   1.989   0.995 -0.2685  0.0998 -0.4146
16062TIP3    H169601   5.844   1.913   0.949 -0.9965  0.0044 -0.8585
16062TIP3    H269602   5.798   2.056   0.927  3.5012  1.7909  0.6206
16063TIP3   OH269603   1.450   2.806  11.889  0.0073  0.0664 -0.5162
16063TIP3    H169604   1.502   2.784  11.967 -1.2536 -1.4000 -0.0605
16063TIP3    H269605   1.467   2.734  11.828 -0.1142  0.4809 -1.0383
16064TIP3   OH269606   1.009   1.910  11.601  0.2886 -0.1431 -0.4502
16064TIP3    H169607   1.102   1.929  11.590 -0.3026  1.9546 -2.1855
16064TIP3    H269608   0.974   1.988  11.646 -1.0786  0.2731 -2.1725
16065TIP3   OH269609   3.919   1.076   0.948  0.4065 -0.0137 -0.3676
16065TIP3    H169610   3.961   0.999   0.911  1.2148  0.8990 -1.4220
16065TIP3    H269611   3.992   1.131   0.978 -0.0846  0.9675 -0.9354
16066TIP3   OH269612   0.537   5.580   3.768  0.0058  0.0107  0.0073
16066TIP3    H169613   0.618   5.598   3.816  0.6103 -0.2118 -0.9127
16066TIP3    H269614   0.545   5.630   3.687 -1.8110  1.8243  0.8925
16067TIP3   OH269615   3.226   6.700  15.537 -0.2032 -0.4489  0.0888
16067TIP3    H169616   3.229   6.626  15.477 -1.6056 -0.7558  0.3834
16067TIP3    H269617   3.293   6.760  15.505  0.4448 -1.5158 -0.5803
16068TIP3   OH269618   2.312   5.351   0.118 -0.3816  0.1197 -0.2306
16068TIP3    H169619   2.312   5.278   0.057  0.9418 -0.0835 -0.0029
16068TIP3    H269620   2.225   5.349   0.158 -0.3579 -1.3242 -0.2234
16069TIP3   OH269621   6.249   2.280   3.979 -0.7522 -0.1034  0.3795
16069TIP3    H169622   6.183   2.316   3.920  0.2365  0.0109 -0.6731
16069TIP3    H269623   6.314   2.240   3.921  0.0806 -0.2486  1.4001
16070TIP3   OH269624   4.695   3.537  14.026 -0.4160  0.0356  0.3268
16070TIP3    H169625   4.732   3.449  14.022  0.0065  0.1470  1.6657
16070TIP3    H269626   4.737   3.577  14.102  0.7850  2.0162 -1.3019
16071TIP3   OH269627   4.321   1.415  14.685  0.3487 -0.6968  0.5905
16071TIP3    H169628   4.228   1.434  14.695  0.4626 -0.9134  2.1823
16071TIP3    H269629   4.365   1.488  14.728  0.9027 -0.9951  0.5309
16072TIP3   OH269630   2.708   4.411   1.419  0.7053 -0.4251 -0.2284
16072TIP3    H169631   2.618   4.408   1.452  1.6432 -0.7592  2.4491
16072TIP3    H269632   2.743   4.493   1.453  2.0668 -1.3255  0.5681
16073TIP3   OH269633   1.605   0.284   5.575  0.1583 -0.1479 -1.1731
16073TIP3    H169634   1.549   0.296   5.652  0.3910 -0.2363 -0.9892
16073TIP3    H269635   1.627   0.191   5.575  1.3299  0.1142 -0.5221
16074TIP3   OH269636   0.426   0.081   3.036  0.2523  0.4053 -0.3257
16074TIP3    H169637   0.419   0.029   2.956 -0.1206  0.8309 -0.5706
16074TIP3    H269638   0.358   0.147   3.028 -0.0533  0.2070  0.5307
16075TIP3   OH269639   6.581   1.005  16.675 -0.2815  0.0240  0.2966
16075TIP3    H169640   6.637   1.069  16.631  0.1646 -0.2507  0.4689
16075TIP3    H269641   6.628   0.922  16.666 -0.5170 -0.1513  0.7082
16076TIP3   OH269642   4.957   2.160  15.921  1.0666 -0.1190  0.1615
16076TIP3    H169643   5.038   2.124  15.886  1.7753  1.7945 -0.2158
16076TIP3    H269644   4.978   2.182  16.012  1.6856  2.4202 -0.5450
16077TIP3   OH269645   1.867   5.141   1.557  0.6771  0.3954  0.0565
16077TIP3    H169646   1.783   5.147   1.510  0.9610  0.1649 -0.4846
16077TIP3    H269647   1.865   5.054   1.597  1.6470 -0.5440 -1.8732
16078TIP3   OH269648   5.984   2.498  14.221 -0.3723  1.1385 -0.0616
16078TIP3    H169649   6.019   2.519  14.308 -0.9859  1.2312  0.1644
16078TIP3    H269650   5.892   2.476  14.237 -0.0102 -0.7096 -0.4205
16079TIP3   OH269651   3.219   5.360   6.643  0.4476  0.3363 -0.4915
16079TIP3    H169652   3.159   5.325   6.578 -1.3091  1.7652  0.2958
16079TIP3    H269653   3.226   5.291   6.709  0.2981 -0.1524 -0.9861
16080TIP3   OH269654   0.225   0.732   3.609  0.3935 -0.3910  0.4664
16080TIP3    H169655   0.183   0.650   3.631 -0.4735  0.0693  0.5490
16080TIP3    H269656   0.232   0.779   3.692 -1.5507  0.7339  0.0121
16081TIP3   OH269657   0.801   5.398   1.734  0.3212 -0.1941 -0.3833
16081TIP3    H169658   0.714   5.407   1.696  0.5905  0.0641 -0.9526
16081TIP3    H269659   0.861   5.423   1.664  0.8023  1.0543  0.4527
16082TIP3   OH269660   6.177   5.758  14.228 -0.0159 -0.2081 -0.0938
16082TIP3    H169661   6.224   5.774  14.147  0.7782 -2.6888 -0.1725
16082TIP3    H269662   6.236   5.787  14.297 -0.5661  1.6171 -0.3821
16083TIP3   OH269663   0.789   0.834  15.501  0.4613 -0.1682 -0.3636
16083TIP3    H169664   0.818   0.870  15.417 -1.1380  1.9096 -0.0693
16083TIP3    H269665   0.758   0.746  15.480 -1.0066  0.7444 -2.1919
16084TIP3   OH269666   1.756   4.865  13.631  0.1119 -0.1541  0.1433
16084TIP3    H169667   1.711   4.781  13.648  1.3759 -0.3778  2.5729
16084TIP3    H269668   1.818   4.845  13.562 -0.0993 -1.0521  0.2044
16085TIP3   OH269669   6.726   2.036   3.719  0.4880  0.0718  0.0014
16085TIP3    H169670   6.706   1.958   3.771 -1.4563  1.3432  1.2237
16085TIP3    H269671   6.712   2.109   3.780  0.0191  1.4869 -1.7877
16086TIP3   OH269672   1.406   3.068  16.020  0.2072  0.1936  0.4298
16086TIP3    H169673   1.339   3.118  16.067  0.2705  0.2012  0.5129
16086TIP3    H269674   1.488   3.097  16.059  0.3555  1.1537 -0.5773
16087TIP3   OH269675   0.251   4.297  15.852 -0.0887  0.0494 -0.3715
16087TIP3    H169676   0.230   4.208  15.880  0.8409  0.5068  1.8899
16087TIP3    H269677   0.308   4.285  15.776 -0.2957 -1.2888 -0.3341
16088TIP3   OH269678   2.150   0.815   2.323 -0.0481  0.2731  0.0474
16088TIP3    H169679   2.142   0.720   2.338  0.8587  0.2276  0.2674
16088TIP3    H269680   2.067   0.851   2.355  0.4841 -0.1985  2.0561
16089TIP3   OH269681   6.412   6.197  11.990 -0.4440 -0.0517 -0.1053
16089TIP3    H169682   6.431   6.199  11.896 -1.8541 -1.0951 -0.4442
16089TIP3    H269683   6.491   6.163  12.031 -0.1462 -0.4806 -1.0325
16090TIP3   OH269684   3.762   5.526   0.737 -0.1443  0.3902  0.0873
16090TIP3    H169685   3.728   5.567   0.817  0.2201 -1.0790  1.0165
16090TIP3    H269686   3.686   5.483   0.698  0.0515 -0.4409  0.6198
16091TIP3   OH269687   2.523   1.579   4.225 -0.2452 -0.3252  0.3203
16091TIP3    H169688   2.434   1.555   4.252 -1.5479  2.3651 -1.3444
16091TIP3    H269689   2.554   1.636   4.296  0.5203 -2.0125  1.3503
16092TIP3   OH269690   4.137   1.883  12.140  0.8055  0.1146  0.7206
16092TIP3    H169691   4.182   1.931  12.069 -0.0576  1.3073  0.9631
16092TIP3    H269692   4.104   1.952  12.198  0.6515 -0.8313  1.7641
16093TIP3   OH269693   5.969   1.976  14.540 -0.3421 -0.0044 -0.1968
16093TIP3    H169694   5.993   2.066  14.521  0.4280 -0.5365 -1.8071
16093TIP3    H269695   5.879   1.968  14.507 -0.5194  0.2471  0.2161
16094TIP3   OH269696   0.577   5.876   4.184 -0.1943 -0.7606 -1.1432
16094TIP3    H169697   0.548   5.927   4.109 -1.1609  2.0867  1.0989
16094TIP3    H269698   0.552   5.928   4.260  2.3065 -2.7387  1.1374
16095TIP3   OH269699   5.557   2.281  13.574 -0.0782 -0.3564  0.2051
16095TIP3    H169700   5.491   2.287  13.506  0.7124 -0.1886 -0.5603
16095TIP3    H269701   5.631   2.332  13.541 -0.1197  0.7243  1.7084
16096TIP3   OH269702   1.146   1.524   5.416  0.5104  0.0737  0.0563
16096TIP3    H169703   1.082   1.472   5.463 -0.4374  0.0989 -1.1911
16096TIP3    H269704   1.202   1.561   5.485 -1.5971  1.1120  1.2480
16097TIP3   OH269705   1.650   6.325   1.896 -0.6026  0.3645  0.4201
16097TIP3    H169706   1.745   6.323   1.910 -0.3824  0.8086 -0.9877
16097TIP3    H269707   1.635   6.405   1.847 -1.3871 -0.9909 -1.6404
16098TIP3   OH269708   1.207   0.136   2.190 -0.3595 -0.2170  0.3234
16098TIP3    H169709   1.152   0.094   2.124  0.2609 -0.8171  0.1828
16098TIP3    H269710   1.169   0.110   2.273 -0.6499 -0.1390  0.2138
16099TIP3   OH269711   1.071   6.148  14.191 -0.0118  0.0891 -0.5942
16099TIP3    H169712   1.080   6.060  14.226 -0.2602  0.5195  0.5720
16099TIP3    H269713   1.100   6.141  14.100 -0.3873 -1.2668 -0.6170
16100TIP3   OH269714   6.785   5.793   4.205 -0.1071 -0.4608 -0.1464
16100TIP3    H169715   6.871   5.833   4.214  0.3459 -1.3245 -0.5677
16100TIP3    H269716   6.799   5.717   4.149 -0.5625 -2.3868  2.2228
16101TIP3   OH269717   1.683   6.252  12.864 -0.4654  0.0337  0.4048
16101TIP3    H169718   1.715   6.177  12.913 -3.1741 -1.1039  0.5356
16101TIP3    H269719   1.655   6.216  12.780 -1.8738  0.8625  0.4941
16102TIP3   OH269720   0.446   4.968  15.302  0.1967 -0.0534 -0.9736
16102TIP3    H169721   0.477   4.878  15.314  2.2951  0.5105 -1.9320
16102TIP3    H269722   0.502   5.004  15.233 -2.8586  0.9182 -3.0703
16103TIP3   OH269723   2.918   5.417  16.498 -0.9371 -0.4550 -0.5140
16103TIP3    H169724   2.961   5.334  16.520 -0.4097 -0.1188 -0.2485
16103TIP3    H269725   2.849   5.426  16.563 -0.1326 -0.0371  0.2961
16104TIP3   OH269726   6.114   0.960  17.003 -0.2055 -0.2415  0.6678
16104TIP3    H169727   6.028   0.999  16.989 -0.6620 -1.6204 -0.4899
16104TIP3    H269728   6.173   1.035  17.013 -1.7643  0.7255  3.0636
16105TIP3   OH269729   5.734   3.950  12.685  0.2726 -0.2326  0.4050
16105TIP3    H169730   5.655   3.903  12.712 -0.4186 -0.2092 -1.4998
16105TIP3    H269731   5.779   3.971  12.767 -1.6904 -0.2403  1.5057
16106TIP3   OH269732   2.013   5.584  15.151 -0.3161 -0.1763 -0.2997
16106TIP3    H169733   2.097   5.603  15.192 -0.5857  2.9305 -1.0633
16106TIP3    H269734   2.023   5.611  15.060 -1.4163 -1.9843 -0.9893
16107TIP3   OH269735   0.125   0.600   2.040 -0.4945  0.1155 -0.8359
16107TIP3    H169736   0.123   0.582   2.134  1.5171 -1.1005 -0.9874
16107TIP3    H269737   0.113   0.695   2.034  0.2566  0.3360  0.7182
16108TIP3   OH269738   1.869   0.112   1.527 -0.5751  0.0751 -0.5288
16108TIP3    H169739   1.963   0.122   1.546 -0.7834  0.7036  0.2093
16108TIP3    H269740   1.866   0.074   1.439  0.3699  0.7391 -0.8554
16109TIP3   OH269741   1.345   0.778   4.771  0.2715  0.0372 -0.1496
16109TIP3    H169742   1.272   0.807   4.826 -0.5387 -1.4989 -0.3848
16109TIP3    H269743   1.312   0.786   4.681  1.1460  1.3293 -0.3754
16110TIP3   OH269744   3.420   4.494   4.821 -0.5688  0.5394 -0.1872
16110TIP3    H169745   3.479   4.561   4.855  1.0229 -0.7658 -0.3416
16110TIP3    H269746   3.413   4.513   4.728  0.4011  0.1016 -0.3500
16111TIP3   OH269747   5.947   4.950   3.466  0.1317  0.1639  0.7276
16111TIP3    H169748   5.900   4.990   3.539 -0.4436  2.0306 -0.6420
16111TIP3    H269749   5.911   4.861   3.460  0.4947 -0.1766  2.9541
16112TIP3   OH269750   1.704   0.463   2.489 -0.6474  0.2778 -0.1187
16112TIP3    H169751   1.705   0.377   2.531 -0.5062  0.5960  0.5389
16112TIP3    H269752   1.684   0.445   2.397 -0.7236 -0.4472  0.0380
16113TIP3   OH269753   4.882   4.305  14.025  0.0764  0.6388 -0.1387
16113TIP3    H169754   4.813   4.331  13.964  0.1257  0.1608 -0.4035
16113TIP3    H269755   4.922   4.228  13.984  0.3336  0.5189  0.3355
16114TIP3   OH269756   2.213   4.259  14.809  0.1658 -0.1660 -0.3064
16114TIP3    H169757   2.205   4.289  14.719  0.9586  0.2738 -0.2329
16114TIP3    H269758   2.137   4.297  14.854  0.2219  0.2889 -0.5986
16115TIP3   OH269759   4.227   1.411  17.191 -0.0225 -0.4347 -1.3754
16115TIP3    H169760   4.184   1.332  17.157 -2.2249 -0.2818  0.8599
16115TIP3    H269761   4.317   1.404  17.162  0.0565 -4.2864 -0.4622
16116TIP3   OH269762   1.430   4.210   2.168 -0.9607 -0.0582  0.0534
16116TIP3    H169763   1.474   4.127   2.151  0.3311  0.7690 -0.7274
16116TIP3    H269764   1.350   4.206   2.115 -0.4334 -0.4091 -0.7154
16117TIP3   OH269765   2.577   5.866   1.086  0.2442 -0.6728  0.0537
16117TIP3    H169766   2.514   5.841   1.019  0.7115 -1.3089 -0.1506
16117TIP3    H269767   2.598   5.784   1.130  1.6684 -0.6155 -0.5117
16118TIP3   OH269768   6.344   2.949   4.739 -0.4832 -0.1038 -0.6800
16118TIP3    H169769   6.255   2.967   4.710 -0.8308  1.8822  1.4375
16118TIP3    H269770   6.336   2.928   4.832  1.1028 -1.5258 -0.8251
16119TIP3   OH269771   2.718   4.250   5.990  0.4441  0.8319  0.2421
16119TIP3    H169772   2.638   4.303   5.995  0.2104  0.4710  0.3194
16119TIP3    H269773   2.757   4.258   6.077  0.9605  1.7425 -0.0706
16120TIP3   OH269774   2.483   1.360  14.309  0.1766 -0.3416  0.2343
16120TIP3    H169775   2.453   1.274  14.339 -1.3194  0.4556  1.0722
16120TIP3    H269776   2.434   1.376  14.229  0.7281 -0.4302 -0.1214
16121TIP3   OH269777   3.047   2.116  14.781 -0.1189  0.0520  0.4586
16121TIP3    H169778   2.996   2.091  14.704 -0.1013  2.6838 -0.4359
16121TIP3    H269779   3.044   2.211  14.782  2.0361  0.1330  2.2778
16122TIP3   OH269780   4.176   6.012   5.988  0.4890 -0.2436 -0.4406
16122TIP3    H169781   4.107   6.054   5.938 -0.0189  0.3331  0.7337
16122TIP3    H269782   4.255   6.025   5.936  0.1643  1.3222 -0.5615
16123TIP3   OH269783   5.991   6.719  11.395 -0.0730 -0.5121  0.2463
16123TIP3    H169784   6.010   6.756  11.481 -3.0356 -0.6036  0.9959
16123TIP3    H269785   6.009   6.789  11.333 -0.0029  0.2664  1.1548
16124TIP3   OH269786   4.059   4.488  14.235 -0.2323  0.0790  0.0837
16124TIP3    H169787   4.122   4.417  14.220  0.9811  0.7525  1.8105
16124TIP3    H269788   3.975   4.451  14.208  0.5993 -1.5073 -0.4280
16125TIP3   OH269789   3.111   2.276  15.375 -0.0947  0.0868 -0.2348
16125TIP3    H169790   3.045   2.305  15.313  0.3279  0.2609 -0.5990
16125TIP3    H269791   3.131   2.186  15.349  0.1715  0.2016 -0.4225
16126TIP3   OH269792   5.112   4.897   5.696  0.3261  0.1938 -0.2806
16126TIP3    H169793   5.130   4.910   5.603  1.5732 -0.2548 -0.1161
16126TIP3    H269794   5.167   4.962   5.740 -0.6056  0.7105  0.1189
16127TIP3   OH269795   0.546   6.424  15.912 -0.1804  0.0224  0.5875
16127TIP3    H169796   0.588   6.383  15.988  0.4946  0.1134  0.2662
16127TIP3    H269797   0.488   6.491  15.950  0.2771  0.1754  1.0184
16128TIP3   OH269798   5.477   2.073   1.499 -0.1651  0.4063  0.5964
16128TIP3    H169799   5.501   2.053   1.590  0.7243  0.3320  0.3537
16128TIP3    H269800   5.417   2.148   1.505  0.5299  0.9210  1.1978
16129TIP3   OH269801   6.678   3.208   4.855  0.3713 -0.6414  0.4932
16129TIP3    H169802   6.705   3.121   4.882  0.7040 -0.2443  1.4777
16129TIP3    H269803   6.759   3.256   4.843  0.2121 -0.6829 -0.8136
16130TIP3   OH269804   4.101   3.105   0.926 -0.2103 -0.2501  0.0460
16130TIP3    H169805   4.166   3.155   0.974 -0.2006 -0.6510  0.4483
16130TIP3    H269806   4.146   3.079   0.845  0.2937 -0.9496  0.5426
16131TIP3   OH269807   3.206   6.253  14.755  0.1151  0.1232 -0.3476
16131TIP3    H169808   3.156   6.306  14.693 -0.1300  0.6331  0.2779
16131TIP3    H269809   3.138   6.208  14.807  0.3132 -0.0913 -0.2759
16132TIP3   OH269810   4.563   5.222  11.662 -0.0625  0.4904 -0.0033
16132TIP3    H169811   4.507   5.245  11.736  0.6955 -0.3787  0.8571
16132TIP3    H269812   4.572   5.304  11.612 -0.6443  1.0621  0.8167
16133TIP3   OH269813   3.842   5.984   2.899 -0.2278 -0.3615 -0.2433
16133TIP3    H169814   3.760   5.948   2.934 -0.9647  1.6454  0.1413
16133TIP3    H269815   3.838   6.078   2.918  0.4437  0.4101 -3.6151
16134TIP3   OH269816   3.274   6.774   4.118 -0.1418 -0.2057  0.0561
16134TIP3    H169817   3.318   6.843   4.069  1.4542 -0.4511  1.1076
16134TIP3    H269818   3.209   6.819   4.171  1.4548  0.5957  1.3659
16135TIP3   OH269819   5.325   0.863  14.230 -0.0664 -0.8348 -0.3990
16135TIP3    H169820   5.299   0.778  14.267 -0.6338 -1.1279 -1.4615
16135TIP3    H269821   5.347   0.844  14.139 -1.5355  0.3879 -1.0282
16136TIP3   OH269822   6.649   6.030  10.868 -0.1897 -0.3056  0.0354
16136TIP3    H169823   6.582   6.056  10.805 -0.7868  0.6767  1.0444
16136TIP3    H269824   6.617   5.947  10.905 -0.9440  0.2370  0.6211
16137TIP3   OH269825   3.070   2.769   1.627  0.2796 -0.0902  0.7734
16137TIP3    H169826   3.035   2.830   1.692  1.3494  0.5428  0.7571
16137TIP3    H269827   3.037   2.801   1.543 -0.3146 -0.3567  0.8991
16138TIP3   OH269828   3.491   2.162   4.135 -0.5254 -0.3739  0.6807
16138TIP3    H169829   3.403   2.144   4.168 -0.9928 -1.9334 -1.3309
16138TIP3    H269830   3.489   2.255   4.112 -1.4572 -0.2655  1.1503
16139TIP3   OH269831   4.126   4.305  16.698 -0.2525  0.0848 -0.9900
16139TIP3    H169832   4.101   4.312  16.790  2.8325  1.5082 -0.2034
16139TIP3    H269833   4.101   4.389  16.660  2.6043  1.2658 -0.3489
16140TIP3   OH269834   1.873   5.352  15.980 -0.1870 -0.1653  0.2454
16140TIP3    H169835   1.818   5.414  15.933  0.0951  0.4807  0.7534
16140TIP3    H269836   1.832   5.267  15.966 -1.2084  0.2923  0.4760
16141TIP3   OH269837   6.723   1.770  16.947  0.4853 -0.1753 -0.8104
16141TIP3    H169838   6.800   1.822  16.973  0.2113  0.0473 -0.4411
16141TIP3    H269839   6.649   1.829  16.958 -0.0686 -1.2564  1.5924
16142TIP3   OH269840   3.457   2.170  13.787 -0.2980  0.6963  0.3526
16142TIP3    H169841   3.550   2.178  13.806 -0.1861  1.5353 -0.5128
16142TIP3    H269842   3.447   2.203  13.698 -1.4860  1.0046  0.5848
16143TIP3   OH269843   6.703   6.577  14.046  0.2838  0.1102  0.4560
16143TIP3    H169844   6.745   6.638  13.986  1.1782  0.0939  1.0564
16143TIP3    H269845   6.641   6.528  13.991  1.1755  0.0130 -0.4679
16144TIP3   OH269846   2.921   6.777  14.580  0.5036  0.0996 -0.7254
16144TIP3    H169847   2.984   6.846  14.600  0.7959 -0.0045 -1.2762
16144TIP3    H269848   2.876   6.761  14.663 -0.2012  1.5944 -0.7967
16145TIP3   OH269849   6.069   1.338  13.002 -0.4338 -0.0069  0.4375
16145TIP3    H169850   6.001   1.370  12.943  0.4059  0.4106 -0.3292
16145TIP3    H269851   6.023   1.319  13.084 -1.8098 -1.7095 -0.6992
16146TIP3   OH269852   5.160   3.630   0.757 -0.3284 -0.3947  0.1754
16146TIP3    H169853   5.165   3.570   0.683  0.1930  0.9467 -0.8925
16146TIP3    H269854   5.229   3.694   0.741 -0.5117  0.1765  1.5878
16147TIP3   OH269855   3.549   1.625   0.104 -0.1862  0.1896  0.8519
16147TIP3    H169856   3.476   1.674   0.067 -0.5001 -0.8725  0.0709
16147TIP3    H269857   3.545   1.644   0.198 -0.5067  1.3850  0.6110
16148TIP3   OH269858   2.800   3.516   5.596  0.4677  0.2802  0.4821
16148TIP3    H169859   2.802   3.557   5.510  2.2059 -0.1882  0.2819
16148TIP3    H269860   2.708   3.493   5.610  0.0737  0.9733 -0.9471
16149TIP3   OH269861   4.783   5.478   0.353 -0.0310  0.6219 -0.0035
16149TIP3    H169862   4.699   5.442   0.326 -0.1078 -0.2021  1.3461
16149TIP3    H269863   4.820   5.413   0.412  0.3066  2.2544  1.6102
16150TIP3   OH269864   3.739   0.376  13.155  0.1739 -1.0019  0.2023
16150TIP3    H169865   3.650   0.356  13.128  0.6940 -1.1372 -1.4795
16150TIP3    H269866   3.742   0.353  13.248 -1.2948 -1.8219  0.0571
16151TIP3   OH269867   3.143   1.953  13.697  0.0369  0.0068  0.2235
16151TIP3    H169868   3.134   2.016  13.625 -0.3258 -0.6393 -0.3032
16151TIP3    H269869   3.180   1.875  13.656 -2.0381 -1.0687  0.3294
16152TIP3   OH269870   0.132   3.460  12.155 -0.4730  0.4010  0.5158
16152TIP3    H169871   0.088   3.544  12.142 -0.1641  0.4993  0.0740
16152TIP3    H269872   0.225   3.481  12.143 -0.5044 -0.2724 -0.9675
16153TIP3   OH269873   3.987   2.828   0.590 -0.2591 -0.1180  0.0214
16153TIP3    H169874   3.988   2.736   0.618 -2.2598  0.3307  1.6301
16153TIP3    H269875   3.977   2.878   0.671  0.8159  1.5391 -0.8435
16154TIP3   OH269876   6.265   3.824  14.014  0.0449  0.1559  0.6632
16154TIP3    H169877   6.218   3.853  13.935  2.9232  0.6710 -0.9649
16154TIP3    H269878   6.214   3.751  14.047 -0.1116 -1.5399 -3.0079
16155TIP3   OH269879   4.628   2.901   0.385 -0.2181 -0.4042  0.2314
16155TIP3    H169880   4.550   2.950   0.358  0.5354  0.4937 -0.3688
16155TIP3    H269881   4.656   2.942   0.466  1.7670  1.7290 -1.4840
16156TIP3   OH269882   6.638   2.574   1.748 -0.1088  0.0146  0.2152
16156TIP3    H169883   6.607   2.516   1.678 -0.4345 -1.5791  1.6603
16156TIP3    H269884   6.730   2.551   1.759 -0.3936 -0.6818  1.2105
16157TIP3   OH269885   6.496   0.367   1.194 -0.2498  0.3932  0.5415
16157TIP3    H169886   6.416   0.360   1.246 -1.2538  3.0733 -0.5668
16157TIP3    H269887   6.465   0.386   1.105  1.6179  1.5009  0.1108
16158TIP3   OH269888   5.865   5.211   5.976  0.4718  0.1002 -0.7729
16158TIP3    H169889   5.804   5.283   5.991  0.3744 -0.2578  0.6835
16158TIP3    H269890   5.934   5.225   6.042 -0.9656 -2.6678  1.4338
16159TIP3   OH269891   2.435   4.848  14.732 -0.7891  0.9390  0.6114
16159TIP3    H169892   2.487   4.871  14.655 -1.8124  3.2037  0.5731
16159TIP3    H269893   2.499   4.843  14.803  0.0816 -0.6211 -0.2343
16160TIP3   OH269894   2.813   4.253   2.880  0.3469  0.6012 -0.1826
16160TIP3    H169895   2.787   4.173   2.926  1.5982 -0.1725 -0.7932
16160TIP3    H269896   2.730   4.297   2.861 -0.3973 -0.7747 -0.2224
16161TIP3   OH269897   2.311   5.589   3.599 -0.1279 -0.0652  0.7605
16161TIP3    H169898   2.218   5.600   3.580 -0.3464 -1.2690  1.0526
16161TIP3    H269899   2.318   5.604   3.693  0.0397  0.4292  0.6684
16162TIP3   OH269900   3.068   1.334   2.117  0.0709 -0.4774 -0.1924
16162TIP3    H169901   3.052   1.416   2.163  0.9944  0.2667 -1.1773
16162TIP3    H269902   2.981   1.306   2.088  0.0632  1.8619 -2.6686
16163TIP3   OH269903   4.353   6.725  16.625  0.1550 -0.0419 -0.3359
16163TIP3    H169904   4.402   6.703  16.546  2.0601 -1.5697  1.2369
16163TIP3    H269905   4.415   6.773  16.679 -0.7837 -0.0027  0.7262
16164TIP3   OH269906   6.489   5.303   1.866  0.0631 -0.1418  0.8602
16164TIP3    H169907   6.443   5.286   1.948  0.9337 -0.9414  1.1908
16164TIP3    H269908   6.569   5.251   1.872  0.7354  0.7773  0.0459
16165TIP3   OH269909   2.957   0.975  13.616  0.2594 -0.4610  0.3711
16165TIP3    H169910   3.009   0.895  13.624  2.0176  0.6678  0.4095
16165TIP3    H269911   2.870   0.944  13.593  0.9710 -2.3809  0.1522
16166TIP3   OH269912   0.230   1.526  13.613 -0.3221  0.4867 -0.1866
16166TIP3    H169913   0.223   1.539  13.518  2.6479  2.2703 -0.2009
16166TIP3    H269914   0.302   1.464  13.623 -1.1885 -0.3624  0.8896
16167TIP3   OH269915   1.509   6.218  16.782  0.2338  0.2087  0.1078
16167TIP3    H169916   1.421   6.256  16.776  0.6424  0.9375 -1.4232
16167TIP3    H269917   1.505   6.141  16.725  0.2587 -0.4361  0.9625
16168TIP3   OH269918   6.399   5.720   2.779 -0.0232 -0.2704 -0.5601
16168TIP3    H169919   6.303   5.711   2.780  0.0319 -0.9586  1.0310
16168TIP3    H269920   6.430   5.647   2.833  1.3236  0.8682  0.2416
16169TIP3   OH269921   4.615   1.999  15.672  0.0749  0.3681  0.2128
16169TIP3    H169922   4.638   1.923  15.618 -0.1468  0.3960  0.0787
16169TIP3    H269923   4.663   1.985  15.754 -0.0489  0.0243  0.2300
16170TIP3   OH269924   3.608   3.837  14.651 -0.3549  0.5226  0.0093
16170TIP3    H169925   3.516   3.812  14.657  0.0378 -1.3189 -1.2324
16170TIP3    H269926   3.621   3.853  14.557  0.5824  0.7898  0.1867
16171TIP3   OH269927   6.442   1.455   1.732 -0.0350 -0.6508 -0.4709
16171TIP3    H169928   6.410   1.544   1.749 -0.6430 -1.0428  0.5035
16171TIP3    H269929   6.440   1.446   1.637  0.0264  0.3757 -0.5698
16172TIP3   OH269930   1.478   3.090   5.308 -0.4090  0.3162 -0.6937
16172TIP3    H169931   1.425   3.089   5.228  0.6668 -0.1238 -1.4098
16172TIP3    H269932   1.414   3.087   5.379 -1.4989  3.5182 -1.4688
16173TIP3   OH269933   6.682   2.082  10.498  0.2196 -0.3994  0.6956
16173TIP3    H169934   6.655   2.139  10.570  0.3913 -0.8669  1.1316
16173TIP3    H269935   6.628   2.004  10.508 -1.5031  0.5098 -1.1230
16174TIP3   OH269936   5.242   6.140  16.140  0.4903 -0.7853 -0.8848
16174TIP3    H169937   5.270   6.198  16.069  0.6299 -0.8079 -0.8477
16174TIP3    H269938   5.321   6.128  16.194  0.2039 -0.1882 -0.3287
16175TIP3   OH269939   0.192   2.585   5.192 -0.2444 -0.1048 -0.4409
16175TIP3    H169940   0.107   2.567   5.233  0.2365 -1.4867 -0.0147
16175TIP3    H269941   0.227   2.660   5.240 -1.1645  0.3975 -0.5377
16176TIP3   OH269942   3.436   2.507  14.870  0.0010 -0.1969 -0.3792
16176TIP3    H169943   3.455   2.468  14.784  0.7358  2.1222 -1.3180
16176TIP3    H269944   3.474   2.595  14.865 -0.7124  0.2851  2.0339
16177TIP3   OH269945   0.697   3.310  12.857 -0.1474  0.3443 -0.1889
16177TIP3    H169946   0.658   3.329  12.942  0.2314  2.7149 -0.5065
16177TIP3    H269947   0.785   3.348  12.863 -0.2700  0.8914 -1.7669
16178TIP3   OH269948   5.585   3.474   5.717 -0.2019 -0.7039 -0.3087
16178TIP3    H169949   5.552   3.388   5.741 -0.6760 -0.2828  0.5566
16178TIP3    H269950   5.659   3.489   5.775  0.5387 -0.9761 -1.1773
16179TIP3   OH269951   0.320   3.425   3.540 -1.0026 -0.6398 -0.2602
16179TIP3    H169952   0.395   3.440   3.596 -2.0717  0.2697  0.9652
16179TIP3    H269953   0.272   3.508   3.540 -2.4528 -1.4472 -0.3028
16180TIP3   OH269954   4.389   6.521   3.289  0.2572 -0.5204  0.1507
16180TIP3    H169955   4.462   6.548   3.233 -0.5296 -0.1376 -0.7039
16180TIP3    H269956   4.372   6.431   3.264 -0.1584 -0.3187 -0.3068
16181TIP3   OH269957   5.865   4.745  13.433  0.3153  0.4715 -0.4673
16181TIP3    H169958   5.861   4.829  13.388 -1.4513  0.4225 -0.4322
16181TIP3    H269959   5.818   4.685  13.376 -1.8346  0.3827  1.3340
16182TIP3   OH269960   3.434   1.519   4.370  0.1084  0.1320  0.5701
16182TIP3    H169961   3.398   1.435   4.340  1.1489 -0.8077  1.8554
16182TIP3    H269962   3.372   1.549   4.437 -0.2924  0.4192  0.0726
16183TIP3   OH269963   6.786   2.937   5.399 -0.0167  0.1134 -0.1129
16183TIP3    H169964   6.760   2.902   5.484 -0.8923  1.4198  0.1785
16183TIP3    H269965   6.752   3.027   5.399  2.0387  0.9293 -0.8752
16184TIP3   OH269966   5.201   6.185  14.192 -0.1965 -0.2095 -0.7005
16184TIP3    H169967   5.224   6.219  14.279 -1.8829  0.6731 -0.5756
16184TIP3    H269968   5.127   6.127  14.209  0.6792 -1.5401 -1.3202
16185TIP3   OH269969   2.394   1.660  11.874 -0.0827 -0.0021 -0.0055
16185TIP3    H169970   2.371   1.685  11.963 -1.8290 -0.7559 -0.2265
16185TIP3    H269971   2.481   1.621  11.881  0.0313  0.4788  1.2763
16186TIP3   OH269972   5.021   1.243  10.428  0.2336  0.4538  0.2713
16186TIP3    H169973   4.967   1.175  10.388  0.3069  0.9685 -0.7016
16186TIP3    H269974   5.073   1.196  10.494  1.0944 -0.6226 -1.1401
16187TIP3   OH269975   0.146   3.202   3.432  0.1944  0.4795 -0.3298
16187TIP3    H169976   0.190   3.264   3.490 -1.7196  1.6351 -0.0834
16187TIP3    H269977   0.096   3.146   3.491 -0.1791  0.3834 -0.7353
16188TIP3   OH269978   0.660   5.194   1.973 -0.3538  0.0208 -0.2856
16188TIP3    H169979   0.582   5.210   2.026 -0.7294  2.2789 -1.4829
16188TIP3    H269980   0.733   5.204   2.035 -0.8928  0.2888  0.3091
16189TIP3   OH269981   5.564   0.844   2.753 -0.2578  1.0256 -0.3242
16189TIP3    H169982   5.470   0.862   2.754 -0.9362 -1.9730 -1.5451
16189TIP3    H269983   5.585   0.832   2.660  0.4799 -2.0783  0.1835
16190TIP3   OH269984   1.317   4.624  14.461  0.0334 -0.1662  0.1051
16190TIP3    H169985   1.334   4.701  14.515  3.1906 -0.0038 -0.9858
16190TIP3    H269986   1.271   4.563  14.518  0.7830  1.1049  2.0906
16191TIP3   OH269987   4.982   6.572   1.983  0.8818  0.0458  0.3327
16191TIP3    H169988   4.887   6.572   1.993  0.9029  0.4942  0.5377
16191TIP3    H269989   5.004   6.482   1.958  0.2672  0.2371 -0.9289
16192TIP3   OH269990   0.855   4.133   4.155 -0.3018  0.2764 -0.0484
16192TIP3    H169991   0.781   4.189   4.132 -0.0508 -0.6153 -3.2263
16192TIP3    H269992   0.817   4.048   4.176 -0.1935 -0.1697 -1.6389
16193TIP3   OH269993   2.319   1.948  12.621  0.5424  0.3396 -0.5963
16193TIP3    H169994   2.312   1.856  12.595 -2.7050  0.6467 -1.0251
16193TIP3    H269995   2.247   1.961  12.682  2.6279  1.9488  1.6103
16194TIP3   OH269996   6.432   3.236  11.847  0.0515  0.9147 -0.3325
16194TIP3    H169997   6.429   3.317  11.794 -1.6457  1.8772  1.1792
16194TIP3    H269998   6.378   3.174  11.798 -3.2713  2.4520  1.2158
16195TIP3   OH269999   5.746   3.609  15.798 -0.4596  0.0174 -0.0878
16195TIP3    H170000   5.779   3.541  15.858  0.6259  0.2232 -0.4544
16195TIP3    H270001   5.686   3.562  15.740 -0.3937 -0.4663  0.2288
16196TIP3   OH270002   0.499   3.081  10.797  1.0029  0.1415  0.0931
16196TIP3    H170003   0.587   3.063  10.832  1.0623  0.2593  0.0049
16196TIP3    H270004   0.474   3.165  10.837  1.3224  0.5771 -0.6180
16197TIP3   OH270005   4.385   2.028  13.833 -0.0735  0.1564  0.0097
16197TIP3    H170006   4.364   1.960  13.897 -0.1130  2.8763  2.9754
16197TIP3    H270007   4.480   2.030  13.830 -0.0730 -0.3560 -0.4797
16198TIP3   OH270008   3.434   5.797   0.531  0.3954 -0.2912  1.0355
16198TIP3    H170009   3.510   5.742   0.515 -0.4952 -0.7322 -1.9630
16198TIP3    H270010   3.466   5.886   0.520  0.4402 -0.4816 -0.3827
16199TIP3   OH270011   1.063   4.240  12.888  0.4196  0.0372  0.1321
16199TIP3    H170012   1.076   4.241  12.793  0.8845  0.4149  0.1974
16199TIP3    H270013   1.149   4.219  12.924 -0.2270 -2.1768  0.4072
16200TIP3   OH270014   1.509   2.909   1.270  0.2829  0.5597 -0.5528
16200TIP3    H170015   1.495   2.898   1.364 -1.9044 -0.9885 -1.0347
16200TIP3    H270016   1.518   3.003   1.258  2.7509  0.6295  1.4756
16201TIP3   OH270017   3.329   3.355   1.875 -0.5771 -0.2115 -0.5669
16201TIP3    H170018   3.383   3.279   1.854 -0.0450  0.4026 -1.4252
16201TIP3    H270019   3.386   3.412   1.925 -1.2283 -0.7332  0.8220
16202TIP3   OH270020   4.625   6.250  11.583 -0.1286 -0.0504 -0.2118
16202TIP3    H170021   4.605   6.214  11.497 -1.8524  2.1910 -0.8022
16202TIP3    H270022   4.716   6.278  11.577  0.5393 -2.2020 -0.4528
16203TIP3   OH270023   4.062   1.291  10.608  0.3413 -0.4787 -0.4030
16203TIP3    H170024   4.135   1.288  10.546 -0.4170 -1.7540 -1.2470
16203TIP3    H270025   4.021   1.205  10.602 -0.0996 -0.4289  1.4568
16204TIP3   OH270026   5.039   5.402  13.785 -0.3607 -0.2767 -0.8619
16204TIP3    H170027   5.132   5.414  13.768  0.0016 -0.4310  0.9488
16204TIP3    H270028   5.025   5.307  13.777 -0.2143 -0.3361 -0.4206
16205TIP3   OH270029   1.965   5.266  11.349  0.6914 -0.0107 -0.1736
16205TIP3    H170030   2.052   5.229  11.339  0.4602  0.1046 -3.0940
16205TIP3    H270031   1.938   5.289  11.259 -1.6094  1.5795  0.8689
16206TIP3   OH270032   1.505   4.512  17.156 -0.0842 -0.1760 -0.3135
16206TIP3    H170033   1.463   4.591  17.123 -0.8769 -0.6666 -0.4763
16206TIP3    H270034   1.590   4.542  17.190 -0.3845  0.7348 -0.3705
16207TIP3   OH270035   3.742   3.234   2.111  0.3528  0.3747 -0.0888
16207TIP3    H170036   3.745   3.140   2.128  2.0344  0.3764 -0.3034
16207TIP3    H270037   3.672   3.266   2.167  2.9443 -0.2627  3.6901
16208TIP3   OH270038   2.748   3.157  14.300  0.2093 -0.1332  0.0563
16208TIP3    H170039   2.805   3.082  14.287 -0.8319 -1.0548  0.7387
16208TIP3    H270040   2.746   3.171  14.394 -2.6213 -1.6826  0.2944
16209TIP3   OH270041   3.381   5.694   0.883  0.4387  0.5023  0.6595
16209TIP3    H170042   3.403   5.613   0.837 -0.7265  1.4870 -1.7241
16209TIP3    H270043   3.448   5.757   0.854  0.5319  0.7647  1.4355
16210TIP3   OH270044   3.351   0.483   3.793  0.3564  0.1494  0.1451
16210TIP3    H170045   3.282   0.416   3.796  0.6762 -0.2301 -0.7207
16210TIP3    H270046   3.318   0.555   3.847 -1.4537  0.6613 -1.6112
16211TIP3   OH270047   2.276   5.544  13.601 -0.4209 -0.1649 -0.1656
16211TIP3    H170048   2.183   5.559  13.584  0.0407  0.6625 -2.1786
16211TIP3    H270049   2.283   5.538  13.696 -2.3448  1.0549  0.0774
16212TIP3   OH270050   1.279   3.412  13.239  0.0838 -1.0741 -0.0552
16212TIP3    H170051   1.331   3.481  13.198 -0.8888  0.6313  1.5202
16212TIP3    H270052   1.219   3.384  13.170 -2.2607  2.5057  0.4255
16213TIP3   OH270053   0.345   5.093   4.667  0.1047  0.4397 -0.1488
16213TIP3    H170054   0.271   5.127   4.716 -0.1709 -2.1134  1.3233
16213TIP3    H270055   0.307   5.056   4.587 -0.4355 -2.0032  1.1881
16214TIP3   OH270056   3.471   0.499  16.090  0.3237  0.4924  0.2419
16214TIP3    H170057   3.544   0.558  16.071  1.0472 -0.4990 -0.1498
16214TIP3    H270058   3.400   0.529  16.034  1.2118 -0.0030 -1.1865
16215TIP3   OH270059   5.871   3.786  14.286 -0.4494  0.9512 -0.4732
16215TIP3    H170060   5.960   3.815  14.303 -0.1234  0.1692 -0.7799
16215TIP3    H270061   5.835   3.852  14.226 -0.3056  1.6236  0.1788
16216TIP3   OH270062   4.292   5.161   6.216  0.4345  0.4227 -0.2876
16216TIP3    H170063   4.292   5.089   6.153  1.3965  0.0268  0.1425
16216TIP3    H270064   4.375   5.151   6.263 -0.1181  0.9009  0.8204
16217TIP3   OH270065   1.314   0.194  11.712 -0.0199  0.3474 -0.2299
16217TIP3    H170066   1.314   0.261  11.644  0.3909  0.0564 -0.5177
16217TIP3    H270067   1.399   0.202  11.754  0.0988 -0.1006 -0.3794
16218TIP3   OH270068   3.033   5.772   2.618 -0.1700 -0.1242 -0.4786
16218TIP3    H170069   2.971   5.816   2.559 -1.7758 -1.3869  0.2250
16218TIP3    H270070   2.979   5.745   2.692  2.0146  2.4349  2.1544
16219TIP3   OH270071   0.315   5.496   5.235 -0.4094 -0.5822 -0.5616
16219TIP3    H170072   0.396   5.510   5.185 -0.9602  0.8753 -1.0571
16219TIP3    H270073   0.345   5.459   5.318  0.8968  1.0872 -0.2477
16220TIP3   OH270074   0.720   4.489   4.332  0.0038  0.0220 -0.3275
16220TIP3    H170075   0.642   4.545   4.327 -0.3007 -0.4363 -0.8214
16220TIP3    H270076   0.705   4.435   4.410 -0.2783 -0.2168 -0.5442
16221TIP3   OH270077   4.693   5.961   5.880 -0.3042  0.5756  0.4078
16221TIP3    H170078   4.781   5.990   5.904 -0.2884  1.6282 -0.8719
16221TIP3    H270079   4.683   5.989   5.789 -1.8832  0.2748  0.4846
16222TIP3   OH270080   4.186   3.614   2.019  0.0598  0.1613 -0.2591
16222TIP3    H170081   4.113   3.612   1.957 -0.0720  2.3622 -0.2214
16222TIP3    H270082   4.256   3.659   1.972  0.5825  0.2039  0.5572
16223TIP3   OH270083   5.175   1.192   2.792  0.2930  0.3178  0.1698
16223TIP3    H170084   5.128   1.260   2.743  0.0607  0.4987  0.6412
16223TIP3    H270085   5.265   1.225   2.797 -0.0396  1.0851  1.2834
16224TIP3   OH270086   3.917   5.894   4.621  0.3286  0.7716  0.3414
16224TIP3    H170087   3.938   5.832   4.552  1.4467  1.0079  0.4550
16224TIP3    H270088   3.831   5.928   4.598 -0.2500 -0.7268  0.2204
16225TIP3   OH270089   1.594   6.160   0.033  0.0499  0.0882 -0.3790
16225TIP3    H170090   1.680   6.189   0.064  1.0461 -1.2602 -1.7648
16225TIP3    H270091   1.600   6.167  -0.063 -1.0035 -1.0364 -0.5342
16226TIP3   OH270092   3.635   2.250  10.345 -0.1743 -0.2460 -0.1175
16226TIP3    H170093   3.672   2.166  10.317  0.2160  0.2291 -1.0796
16226TIP3    H270094   3.710   2.299  10.379 -0.4750 -0.4392  0.8342
16227TIP3   OH270095   2.968   1.989  15.731 -0.2179 -0.1387 -0.6784
16227TIP3    H170096   2.951   2.038  15.811 -1.2331 -1.0442 -0.3291
16227TIP3    H270097   2.913   2.031  15.665  0.1368  0.2031 -0.7586
16228TIP3   OH270098   0.202   3.655  13.186  0.0521 -0.1613  0.2985
16228TIP3    H170099   0.110   3.683  13.182 -0.3135 -0.9383  2.6443
16228TIP3    H270100   0.246   3.725  13.234  0.4516 -0.3859  0.2615
16229TIP3   OH270101   0.325   0.999   3.740 -0.6106  0.2344  0.4526
16229TIP3    H170102   0.294   0.926   3.793 -0.9233  0.6421  0.8373
16229TIP3    H270103   0.407   1.026   3.782 -0.3837 -0.0273  0.1844
16230TIP3   OH270104   5.567   5.590  10.752 -0.1596 -0.7123  0.3874
16230TIP3    H170105   5.501   5.525  10.731 -0.5726 -1.0028  2.4677
16230TIP3    H270106   5.648   5.540  10.764  0.1653 -0.5032 -0.8831
16231TIP3   OH270107   1.694   4.979  16.663 -0.4996  0.1193  0.2525
16231TIP3    H170108   1.772   4.939  16.625 -0.1610  1.8107 -0.8876
16231TIP3    H270109   1.621   4.925  16.632  0.0102 -0.0396 -0.6769
16232TIP3   OH270110   6.250   5.773  16.789  0.5516 -0.0397 -0.0598
16232TIP3    H170111   6.158   5.752  16.803  0.4859  0.2299 -0.0877
16232TIP3    H270112   6.285   5.697  16.742  0.3325 -0.1208 -0.0941
16233TIP3   OH270113   2.511   5.458  12.956 -0.6572  0.2310 -0.0309
16233TIP3    H170114   2.471   5.407  12.886 -1.0463 -0.2462  0.5393
16233TIP3    H270115   2.525   5.545  12.918 -0.7161 -0.0766 -0.7495
16234TIP3   OH270116   5.500   4.966   2.197  0.3877 -0.3062 -0.3464
16234TIP3    H170117   5.406   4.966   2.214 -0.1328 -0.8978 -3.0113
16234TIP3    H270118   5.523   5.059   2.186  0.0843 -0.1790  0.0994
16235TIP3   OH270119   3.365   0.521  16.737 -0.4442  0.0960  0.1575
16235TIP3    H170120   3.402   0.594  16.786  0.2431 -0.5282  0.5873
16235TIP3    H270121   3.339   0.458  16.805  0.5185 -0.7763 -0.2699
16236TIP3   OH270122   5.587   5.942  11.130 -0.0775 -0.0594 -0.1975
16236TIP3    H170123   5.567   5.850  11.115 -0.0323 -0.2452  0.8385
16236TIP3    H270124   5.503   5.982  11.152 -0.2624  0.3547 -1.6450
16237TIP3   OH270125   5.842   3.478   2.302 -0.1101 -0.5153  0.3788
16237TIP3    H170126   5.936   3.475   2.318 -0.3828 -1.3026  1.9299
16237TIP3    H270127   5.808   3.535   2.372 -0.7302  0.1855 -0.4802
16238TIP3   OH270128   5.040   2.058   2.031 -0.6638  0.6186 -0.1229
16238TIP3    H170129   5.074   2.038   1.943 -2.3493 -0.0732 -0.6483
16238TIP3    H270130   5.113   2.039   2.090  1.5011  3.9130 -1.5620
16239TIP3   OH270131   3.285   3.071   0.954 -0.2020 -0.0405 -0.7818
16239TIP3    H170132   3.210   3.016   0.932  0.8273 -0.7253 -2.7158
16239TIP3    H270133   3.353   3.010   0.979 -0.5127  0.6226  1.7746
16240TIP3   OH270134   6.517   1.543   0.227 -0.0846  0.0142 -0.4790
16240TIP3    H170135   6.510   1.594   0.146 -0.9658 -0.3192 -0.6175
16240TIP3    H270136   6.460   1.468   0.213 -2.5116  1.4091  1.5383
16241TIP3   OH270137   2.610   0.824  10.982 -0.4012  0.0498 -0.1917
16241TIP3    H170138   2.528   0.793  10.943 -0.2057  0.4857 -0.9672
16241TIP3    H270139   2.677   0.767  10.946 -0.4044 -0.5554  0.7499
16242TIP3   OH270140   3.307   6.365  13.016 -0.7844 -0.2648  0.0928
16242TIP3    H170141   3.243   6.415  12.965 -0.6120 -1.1137 -0.9670
16242TIP3    H270142   3.385   6.360  12.960 -0.7969 -1.7276  0.1773
16243TIP3   OH270143   6.417   2.478  13.502  0.0791  0.1468 -0.8458
16243TIP3    H170144   6.386   2.398  13.461 -0.6804  0.5131 -0.9980
16243TIP3    H270145   6.365   2.486  13.582  1.4351 -0.4765  0.1121
16244TIP3   OH270146   2.594   1.497  10.755 -0.5773  0.5595 -0.1558
16244TIP3    H170147   2.574   1.534  10.840 -0.2676 -1.8322  1.0204
16244TIP3    H270148   2.509   1.472  10.719 -0.5597 -0.3751  0.4180
16245TIP3   OH270149   1.710   1.138   1.818  0.2651  0.4214 -0.0187
16245TIP3    H170150   1.681   1.222   1.854  0.6333 -0.0972  1.5158
16245TIP3    H270151   1.637   1.079   1.834 -0.2345  0.5806 -1.6441
16246TIP3   OH270152   4.583   0.014  11.837 -0.2754 -0.1450 -0.7234
16246TIP3    H170153   4.552  -0.037  11.912 -0.4434  0.8780 -0.0777
16246TIP3    H270154   4.572  -0.044  11.762  2.1012 -2.0370  0.3343
16247TIP3   OH270155   4.886   5.361   4.727 -0.0266  0.3759  0.1923
16247TIP3    H170156   4.867   5.418   4.801 -1.3997 -0.9020  0.8474
16247TIP3    H270157   4.982   5.354   4.725 -0.0244 -0.5337  2.5629
16248TIP3   OH270158   2.484   6.002  11.775 -0.0575  0.2458 -0.4545
16248TIP3    H170159   2.434   6.026  11.852  0.4332  1.3025 -0.4587
16248TIP3    H270160   2.564   5.963  11.809  0.3969  1.2030 -0.4243
16249TIP3   OH270161   3.561   0.189  16.965  0.2675  0.2878  0.0322
16249TIP3    H170162   3.608   0.217  17.043 -0.6267  0.1162  0.6415
16249TIP3    H270163   3.610   0.228  16.892  0.2051  1.7486  0.7536
16250TIP3   OH270164   0.401   6.699   2.157  0.4095  0.0917  0.0148
16250TIP3    H170165   0.389   6.783   2.112 -0.4732  0.4185  0.8542
16250TIP3    H270166   0.441   6.643   2.090  2.8309  1.7173  0.0030
16251TIP3   OH270167   5.069   5.347  14.450 -0.0771 -0.1104 -0.1359
16251TIP3    H170168   5.103   5.424  14.405 -0.4050  1.2358  1.8453
16251TIP3    H270169   5.144   5.288  14.458  0.3176  0.2575 -1.1355
16252TIP3   OH270170   2.302   2.728   5.833 -0.5853  0.1699 -0.7447
16252TIP3    H170171   2.263   2.690   5.754  2.5074 -1.0840 -1.7218
16252TIP3    H270172   2.236   2.791   5.864 -3.3511 -1.8547 -2.2987
16253TIP3   OH270173   1.329   5.947   1.005  0.1282 -0.2370  0.2371
16253TIP3    H170174   1.287   5.863   1.019  0.0888 -0.5312 -1.5398
16253TIP3    H270175   1.400   5.949   1.070 -0.5348 -1.1747  0.9980
16254TIP3   OH270176   2.214   3.215  12.288  0.4801  0.4252 -0.5666
16254TIP3    H170177   2.136   3.194  12.340  1.7812  1.9076  2.0836
16254TIP3    H270178   2.194   3.183  12.200 -2.6751 -0.1772  0.3246
16255TIP3   OH270179   5.495   2.449  16.304  0.2614  0.5069 -0.5051
16255TIP3    H170180   5.462   2.512  16.368  0.5832  0.3679 -0.2026
16255TIP3    H270181   5.556   2.499  16.249 -0.0744  0.6444 -0.7547
16256TIP3   OH270182   6.461   6.321  15.796  0.1874 -0.0113 -0.0816
16256TIP3    H170183   6.392   6.276  15.844  0.3933  0.9601  1.1685
16256TIP3    H270184   6.415   6.377  15.734 -0.1441  0.2916  0.4347
16257TIP3   OH270185   3.230   0.866  17.157 -0.3058 -0.2848 -0.1374
16257TIP3    H170186   3.145   0.908  17.165  0.2569  0.7509  0.4044
16257TIP3    H270187   3.213   0.787  17.105 -1.2744  0.8755 -1.6101
16258TIP3   OH270188   1.355   4.534  14.186  0.1562 -0.3352 -0.2188
16258TIP3    H170189   1.450   4.527  14.190  0.2393  1.2597  1.2471
16258TIP3    H270190   1.333   4.595  14.256 -2.2934 -3.7206  2.1520
16259TIP3   OH270191   4.930   5.001  14.661 -0.6388 -0.5170  0.0453
16259TIP3    H170192   4.996   5.034  14.721 -2.1212  1.9911  0.3893
16259TIP3    H270193   4.946   5.049  14.579 -1.1004 -0.9737 -0.3118
16260TIP3   OH270194   6.332   0.972  11.158  0.3214 -0.8165 -0.3839
16260TIP3    H170195   6.334   1.033  11.084  1.3483 -0.1377  0.1912
16260TIP3    H270196   6.421   0.975  11.194 -0.8949  1.0536  2.6593
16261TIP3   OH270197   2.868   2.158  14.071  0.1335  0.5611 -0.4961
16261TIP3    H170198   2.930   2.226  14.046  0.2619  0.1025 -1.4350
16261TIP3    H270199   2.829   2.130  13.988  1.0001 -1.3925 -0.2642
16262TIP3   OH270200   5.153   1.264  15.556 -0.3855 -0.1188  0.1972
16262TIP3    H170201   5.212   1.301  15.622 -1.1077  1.2790  0.0810
16262TIP3    H270202   5.098   1.203  15.604 -0.9485  0.9389  0.9135
16263TIP3   OH270203   5.759   3.425   5.915  0.4762 -0.5080 -0.4689
16263TIP3    H170204   5.742   3.331   5.921 -0.2705 -0.3282  0.3195
16263TIP3    H270205   5.815   3.444   5.990  0.7402 -0.3448 -0.7035
16264TIP3   OH270206   2.110   3.468   4.974 -0.1306  0.5365 -0.2294
16264TIP3    H170207   2.146   3.520   5.047 -0.1055  1.0591 -0.6127
16264TIP3    H270208   2.183   3.415   4.944  0.0138  0.7510 -0.2564
16265TIP3   OH270209   4.465   1.362  16.440 -0.6204 -0.1767  0.0549
16265TIP3    H170210   4.419   1.312  16.373 -1.4834 -0.7637  1.0861
16265TIP3    H270211   4.399   1.382  16.506  0.6022 -1.0916  1.5890
16266TIP3   OH270212   3.975   4.187  14.293  0.3927  0.3138  0.4456
16266TIP3    H170213   4.069   4.171  14.302  0.8398  2.3733 -0.4703
16266TIP3    H270214   3.966   4.230  14.208 -1.2726  1.0775  1.0009
16267TIP3   OH270215   0.017   5.597   4.032 -0.2888  0.2514  0.5201
16267TIP3    H170216  -0.019   5.526   3.980 -0.9791  0.9806 -0.0032
16267TIP3    H270217   0.090   5.557   4.080 -0.6389 -0.7883  0.1957
16268TIP3   OH270218   5.739   2.283   0.459  0.1458 -0.2862  0.2408
16268TIP3    H170219   5.742   2.301   0.365  1.7182  1.2534  0.5769
16268TIP3    H270220   5.660   2.328   0.489 -0.6868 -1.2641 -0.4133
16269TIP3   OH270221   2.514   3.380  14.363  0.4324 -0.1570  0.4235
16269TIP3    H170222   2.553   3.316  14.304  1.4969  1.0275 -0.1720
16269TIP3    H270223   2.525   3.342  14.450  0.3219 -1.1547  0.0034
16270TIP3   OH270224   5.704   0.580  12.895  0.2101  0.7953  0.3509
16270TIP3    H170225   5.631   0.583  12.832  0.1348 -0.3291  0.3768
16270TIP3    H270226   5.661   0.588  12.980  0.2205  1.2545  0.3161
16271TIP3   OH270227   0.828   1.040   0.267  0.5998  0.4963  0.5557
16271TIP3    H170228   0.771   1.107   0.305  0.1957  1.3544 -1.4768
16271TIP3    H270229   0.876   1.087   0.198  1.4364 -0.9651  0.1371
16272TIP3   OH270230   0.922   1.746   4.264  0.4208 -0.8443 -0.5002
16272TIP3    H170231   0.977   1.780   4.334  0.8391 -1.2204 -0.6417
16272TIP3    H270232   0.962   1.779   4.184 -1.5371  1.7684 -0.4938
16273TIP3   OH270233   2.301   0.247  10.395 -0.2695 -0.7752  0.3040
16273TIP3    H170234   2.209   0.254  10.419  0.1296 -3.7462  3.0318
16273TIP3    H270235   2.345   0.314  10.446 -0.8028  0.1531 -0.4413
16274TIP3   OH270236   0.437   3.070  15.311  0.3746 -0.2930  0.9608
16274TIP3    H170237   0.486   3.149  15.333 -0.3749  0.5799 -0.4323
16274TIP3    H270238   0.502   3.010  15.275  0.5859  0.4951  0.0253
16275TIP3   OH270239   0.012   0.251  16.829 -0.2177  0.0332 -0.1723
16275TIP3    H170240  -0.078   0.250  16.796 -0.9986  0.8213  1.8996
16275TIP3    H270241   0.036   0.343  16.830  0.5843 -0.1679 -0.5981
16276TIP3   OH270242   0.316   0.715   0.670  0.6015  0.9064 -0.4526
16276TIP3    H170243   0.322   0.809   0.684 -0.3409  1.0586 -1.0691
16276TIP3    H270244   0.240   0.687   0.722  0.7556  0.5138 -0.4338
16277TIP3   OH270245   4.571   1.819  15.402  0.0887  0.0122 -0.1469
16277TIP3    H170246   4.519   1.894  15.373  0.5257  0.1487 -0.5876
16277TIP3    H270247   4.658   1.834  15.365 -0.3346 -1.7233 -1.9843
16278TIP3   OH270248   1.919   5.995  13.323 -0.1368 -0.0827  0.3970
16278TIP3    H170249   1.990   5.991  13.387 -1.9814 -0.6902  2.4774
16278TIP3    H270250   1.880   5.907  13.326 -0.1157 -0.1901 -1.7438
16279TIP3   OH270251   3.133   3.906  17.223  0.4568 -0.1639 -0.6750
16279TIP3    H170252   3.139   3.998  17.200 -2.2880  0.0974 -0.5839
16279TIP3    H270253   3.041   3.884  17.208  0.7442 -2.4960  0.7490
16280TIP3   OH270254   3.010   2.401   4.576 -0.0614 -0.8033 -0.3183
16280TIP3    H170255   2.999   2.496   4.565 -1.4316 -0.8658  0.3795
16280TIP3    H270256   2.988   2.365   4.490 -1.7291 -0.6402  0.0307
16281TIP3   OH270257   0.875   5.342  12.159  0.3114  0.1793  0.6243
16281TIP3    H170258   0.969   5.360  12.158  0.7660 -2.1125 -2.0361
16281TIP3    H270259   0.835   5.428  12.154  2.3286  1.0392 -2.1331
16282TIP3   OH270260   3.271   6.408  13.894 -0.1307 -0.5571 -0.5264
16282TIP3    H170261   3.314   6.476  13.947 -0.9988 -2.0586  2.1885
16282TIP3    H270262   3.234   6.456  13.820 -0.3075  1.8799  1.0719
16283TIP3   OH270263   3.399   1.166   3.185 -0.6265 -0.2953 -0.1704
16283TIP3    H170264   3.410   1.260   3.196  0.6889 -0.2650 -1.5783
16283TIP3    H270265   3.308   1.155   3.158 -0.8554  0.5458  0.2624
16284TIP3   OH270266   3.635   5.093  16.190  0.0057  0.2953  0.6259
16284TIP3    H170267   3.549   5.056  16.208  0.4834 -1.1197  0.0849
16284TIP3    H270268   3.673   5.034  16.125  1.2679  1.0750  0.6392
16285TIP3   OH270269   4.502   3.957   3.592  0.1829  0.3173 -0.3389
16285TIP3    H170270   4.548   3.873   3.599 -0.0471  0.1514 -0.8643
16285TIP3    H270271   4.532   3.994   3.509 -2.1258 -0.6863 -1.6708
16286TIP3   OH270272   5.169   0.245  16.982  0.0558  0.8410 -0.1668
16286TIP3    H170273   5.128   0.286  17.058 -1.6473  1.0177 -1.1366
16286TIP3    H270274   5.251   0.292  16.970 -0.0947  1.4161  1.0192
16287TIP3   OH270275   5.775   5.471  16.440  1.0187 -0.5606  0.2940
16287TIP3    H170276   5.784   5.566  16.450  2.2324 -0.4931 -1.1689
16287TIP3    H270277   5.732   5.442  16.520  1.6986  1.0801  1.2751
16288TIP3   OH270278   1.982   2.854   5.869  0.2252  0.0522 -0.1314
16288TIP3    H170279   1.985   2.767   5.909  0.8541  0.6931  1.2810
16288TIP3    H270280   1.896   2.888   5.892 -0.1550 -0.3329 -0.9851
16289TIP3   OH270281   5.698   1.351  15.804 -0.4708  0.7891 -0.4126
16289TIP3    H170282   5.723   1.409  15.731 -1.2149  0.9446 -0.5463
16289TIP3    H270283   5.776   1.350  15.860 -0.2364  1.4522 -0.7107
16290TIP3   OH270284   3.181   6.257   4.536  0.3478  1.0247 -0.3686
16290TIP3    H170285   3.211   6.207   4.612 -2.4000  0.2431  0.2865
16290TIP3    H270286   3.193   6.348   4.560 -0.8561  0.7935  1.2121
16291TIP3   OH270287   3.692   4.338  14.509 -0.4830 -0.2960  0.3091
16291TIP3    H170288   3.669   4.261  14.457 -1.2483  0.3479 -0.3201
16291TIP3    H270289   3.745   4.303  14.581 -0.5023 -1.3595 -0.1764
16292TIP3   OH270290   2.744   4.821  11.987  0.0903  0.0448  0.5671
16292TIP3    H170291   2.689   4.830  11.909 -2.6055 -0.5801  2.3333
16292TIP3    H270292   2.769   4.911  12.009 -1.1332  0.4539  0.3381
16293TIP3   OH270293   6.522   0.249   3.048 -0.1790 -0.1728  0.6875
16293TIP3    H170294   6.440   0.295   3.066 -0.4709  0.6054 -2.4104
16293TIP3    H270295   6.496   0.169   3.004  0.6941 -0.2533  0.3078
16294TIP3   OH270296   2.384   4.619   5.046  0.0481  0.6995 -0.1194
16294TIP3    H170297   2.318   4.573   4.995 -0.0501  0.4519  0.2323
16294TIP3    H270298   2.366   4.595   5.137  0.9904  0.1516 -0.0691
16295TIP3   OH270299   0.484   1.367   5.344  0.0179  0.2999  0.1303
16295TIP3    H170300   0.402   1.411   5.367 -0.4585 -1.6571  2.4946
16295TIP3    H270301   0.551   1.434   5.355 -0.9318  1.0774  1.3523
16296TIP3   OH270302   5.521   2.423   4.294 -0.3395 -0.1767 -0.3958
16296TIP3    H170303   5.540   2.338   4.254  0.1911 -1.2354  1.9572
16296TIP3    H270304   5.463   2.402   4.368 -2.5165  1.8623 -1.4606
16297TIP3   OH270305   0.156   4.735   0.060 -0.4248 -0.0874  0.0831
16297TIP3    H170306   0.193   4.760  -0.025  3.1597  2.5356  2.2324
16297TIP3    H270307   0.194   4.649   0.078  1.1993  0.6416  0.2831
16298TIP3   OH270308   4.040   5.611  15.783 -0.5126 -0.4512  0.2681
16298TIP3    H170309   3.959   5.633  15.737  0.3727  0.8526 -0.7195
16298TIP3    H270310   4.012   5.584  15.871 -1.9013  1.5391  0.4680
16299TIP3   OH270311   2.024   1.378  14.589  0.2427  0.2922  0.3156
16299TIP3    H170312   2.053   1.290  14.563  1.4679  0.3813  1.3289
16299TIP3    H270313   1.955   1.400  14.526  0.8401 -0.8580 -0.7657
16300TIP3   OH270314   4.278   1.993  13.202 -0.3453 -0.0037 -0.1833
16300TIP3    H170315   4.313   1.915  13.245  1.6901  0.6600 -0.5535
16300TIP3    H270316   4.212   1.959  13.141 -0.2560 -1.3312  0.4382
16301TIP3   OH270317   1.921   6.071   4.258 -0.1734  0.4960  0.1982
16301TIP3    H170318   1.918   6.032   4.345 -0.8828  0.2493  0.0662
16301TIP3    H270319   1.844   6.127   4.254  0.9011  2.0264  0.4278
16302TIP3   OH270320   4.733   1.164  15.826  0.1989  0.0649 -0.2493
16302TIP3    H170321   4.645   1.182  15.859  0.1749 -0.3105 -0.1162
16302TIP3    H270322   4.747   1.231  15.758 -0.0180  0.3960  0.0306
16303TIP3   OH270323   3.890   2.847  11.398  0.7479  0.0390  0.4211
16303TIP3    H170324   3.801   2.818  11.379  0.9405  0.3354 -0.9893
16303TIP3    H270325   3.930   2.772  11.443  0.5363 -1.0428 -1.1305
16304TIP3   OH270326   5.855   0.402   5.616  0.7707  0.8135  0.9723
16304TIP3    H170327   5.895   0.407   5.703  1.0863  0.3336  0.8551
16304TIP3    H270328   5.784   0.467   5.619  0.8803  0.9126  1.5338
16305TIP3   OH270329   0.348   3.566   4.974  0.4135  0.0622  0.0394
16305TIP3    H170330   0.342   3.553   4.879 -0.2324  1.5006 -0.1308
16305TIP3    H270331   0.328   3.480   5.011 -0.2222 -0.2987 -1.1137
16306TIP3   OH270332   1.827   2.927   2.220 -0.1464 -0.1939 -0.0391
16306TIP3    H170333   1.810   2.872   2.296 -1.1434 -2.8726 -2.1316
16306TIP3    H270334   1.905   2.978   2.244  0.9746 -2.6894  1.8616
16307TIP3   OH270335   4.911   3.145   5.090 -0.2497  0.3914  0.0785
16307TIP3    H170336   4.949   3.059   5.109  0.8895  0.9730  0.5139
16307TIP3    H270337   4.925   3.195   5.170 -0.5046  1.1185 -0.3336
16308TIP3   OH270338   1.997   1.248   3.662 -0.2517 -0.8063  0.1034
16308TIP3    H170339   1.986   1.319   3.599  0.3963  0.5919  1.5357
16308TIP3    H270340   1.914   1.200   3.658 -0.6525 -0.0528 -0.9634
16309TIP3   OH270341   3.452   2.231  16.278  0.3370 -0.6436  0.0269
16309TIP3    H170342   3.493   2.283  16.347  0.1789 -0.0507 -0.3187
16309TIP3    H270343   3.522   2.211  16.216 -0.0556  1.1256 -1.0214
16310TIP3   OH270344   2.670   4.507  13.197  0.3955 -0.8023  0.1678
16310TIP3    H170345   2.630   4.564  13.131 -0.7351  0.9668  2.3263
16310TIP3    H270346   2.749   4.553  13.224  1.1799 -1.8141 -0.3662
16311TIP3   OH270347   5.005   2.652   2.087 -0.1395 -0.3486  0.8903
16311TIP3    H170348   5.084   2.613   2.123 -0.2073 -0.0075  1.4094
16311TIP3    H270349   5.036   2.723   2.030  0.0424 -1.9751 -1.0932
16312TIP3   OH270350   2.003   2.027  16.687  0.1196  0.0710  1.3573
16312TIP3    H170351   2.025   2.061  16.773  0.8116  1.2330  0.7361
16312TIP3    H270352   1.915   1.991  16.697  0.3278 -0.1024  2.6229
16313TIP3   OH270353   6.005   5.624  16.066  0.5019  0.2336 -0.1031
16313TIP3    H170354   5.919   5.636  16.106 -0.0737 -0.2755 -1.1678
16313TIP3    H270355   6.036   5.540  16.100  0.1295 -0.0721 -0.5128
16314TIP3   OH270356   3.332   6.095   0.327 -0.5915  0.3229 -0.6375
16314TIP3    H170357   3.248   6.092   0.371 -0.1429 -1.7228  0.1357
16314TIP3    H270358   3.395   6.068   0.393  0.1891 -2.0265 -2.2602
16315TIP3   OH270359   1.507   4.952  14.477  0.1791  0.0054 -0.2316
16315TIP3    H170360   1.587   4.934  14.525 -0.0475 -2.4602 -0.7000
16315TIP3    H270361   1.438   4.946  14.544  0.2983  1.4649  0.0419
16316TIP3   OH270362   5.457   2.040  16.208 -0.0773 -0.3401 -0.7632
16316TIP3    H170363   5.426   2.123  16.172  1.0392  1.2372  1.8049
16316TIP3    H270364   5.377   1.987  16.217 -0.7512  0.3033 -2.7264
16317TIP3   OH270365   4.232   5.033   4.863 -0.0788 -0.2088  0.1502
16317TIP3    H170366   4.161   5.080   4.907 -2.4779  0.5236 -4.1727
16317TIP3    H270367   4.188   4.982   4.795  3.3648 -1.5230 -1.1950
16318TIP3   OH270368   0.452   5.377  11.860 -0.1166 -0.0617  0.0783
16318TIP3    H170369   0.430   5.423  11.941  1.5879 -1.0424  1.1464
16318TIP3    H270370   0.478   5.446  11.799 -2.2395  0.7603  0.0525
16319TIP3   OH270371   2.434   6.320  12.715  0.4931  0.0902  0.6796
16319TIP3    H170372   2.421   6.369  12.633 -1.1251 -0.2422  0.7368
16319TIP3    H270373   2.511   6.265  12.697  0.8617  0.8683 -0.2094
16320TIP3   OH270374   0.282   4.831   4.238 -0.6836 -0.2039  0.1810
16320TIP3    H170375   0.223   4.756   4.246 -3.2531  1.7845  0.5418
16320TIP3    H270376   0.298   4.839   4.144 -1.5497 -0.3606  0.0179
16321TIP3   OH270377   0.878   2.025   5.150 -0.5198  0.4338  0.7021
16321TIP3    H170378   0.901   2.118   5.153 -1.6306  0.7322  0.2329
16321TIP3    H270379   0.938   1.983   5.213  0.2575  1.3978  0.6143
16322TIP3   OH270380   2.012   2.086  13.248  0.3178  0.2875  0.0811
16322TIP3    H170381   2.038   2.107  13.338 -0.3706 -4.8042  1.6075
16322TIP3    H270382   1.917   2.098  13.247  0.3233  0.3272  0.0121
16323TIP3   OH270383   0.868   0.638   2.217  0.2148 -0.3407 -0.1270
16323TIP3    H170384   0.815   0.647   2.296  0.9378 -0.3586  0.3728
16323TIP3    H270385   0.957   0.621   2.250  0.5615 -0.1319 -0.9405
16324TIP3   OH270386   0.029   4.031   5.248 -0.7595  0.1087 -0.3281
16324TIP3    H170387   0.065   4.038   5.160 -0.2459 -0.4234 -0.1626
16324TIP3    H270388   0.050   4.114   5.290 -1.6191  0.6357 -0.9346
16325TIP3   OH270389   3.086   3.678  12.818 -0.0329  0.2396  0.3814
16325TIP3    H170390   3.092   3.678  12.722 -0.7316  0.2021  0.3339
16325TIP3    H270391   3.155   3.738  12.847  0.9172 -0.6040 -0.0966
16326TIP3   OH270392   1.545   5.231  16.607  0.1268  0.0384  0.4921
16326TIP3    H170393   1.574   5.319  16.630  0.9279 -0.5879  1.9811
16326TIP3    H270394   1.613   5.174  16.641 -0.6571 -1.2029  0.0272
16327TIP3   OH270395   5.436   5.663   5.475 -0.5784 -0.1842  0.3731
16327TIP3    H170396   5.484   5.583   5.496 -1.0936 -0.1916  1.5663
16327TIP3    H270397   5.487   5.733   5.515 -0.4445  0.0265 -0.1617
16328TIP3   OH270398   4.113   6.181   1.969  0.5462  0.5380  0.4105
16328TIP3    H170399   4.029   6.206   1.931  0.5384 -0.0155  0.0611
16328TIP3    H270400   4.173   6.251   1.941  0.2942  0.7233  0.3274
16329TIP3   OH270401   2.862   0.318  16.031  0.1422 -0.0664  0.0429
16329TIP3    H170402   2.952   0.338  16.058  0.1244 -0.9834  0.7879
16329TIP3    H270403   2.809   0.387  16.073  0.2146 -0.9838  1.6649
16330TIP3   OH270404   1.064   4.169   0.166  0.5914 -0.2806  0.0263
16330TIP3    H170405   0.974   4.201   0.164  0.6913  0.0651  0.8414
16330TIP3    H270406   1.090   4.176   0.258  1.1530 -1.2040 -0.0505
16331TIP3   OH270407   6.569   3.378  12.929  0.1279  0.5118 -0.0619
16331TIP3    H170408   6.618   3.304  12.893  0.6121  1.8015 -2.1304
16331TIP3    H270409   6.636   3.434  12.968  0.1877  1.6883 -1.8278
16332TIP3   OH270410   6.473   2.216   3.214 -0.2040  0.0681 -0.3383
16332TIP3    H170411   6.392   2.191   3.259 -0.5024  0.9926 -0.3505
16332TIP3    H270412   6.491   2.305   3.246  0.3973  0.1482 -0.9055
16333TIP3   OH270413   2.794   6.766   0.924 -0.4927 -0.5817 -0.1765
16333TIP3    H170414   2.712   6.720   0.938 -0.7376  0.4393  1.9198
16333TIP3    H270415   2.857   6.724   0.982  0.0021 -0.1630 -0.3979
16334TIP3   OH270416   0.460   0.621  13.199 -0.3162  0.3322  0.5865
16334TIP3    H170417   0.527   0.638  13.132  0.8073 -0.5113  1.4693
16334TIP3    H270418   0.465   0.698  13.256 -0.7960  0.7305  0.0991
16335TIP3   OH270419   2.794   0.689  10.792 -0.1393 -0.1799  0.6708
16335TIP3    H170420   2.879   0.651  10.817  0.4048  0.6881  0.1588
16335TIP3    H270421   2.811   0.733  10.709 -1.7839 -2.4938 -0.9298
16336TIP3   OH270422   5.773   2.347   5.633 -0.6983 -0.4183  0.1962
16336TIP3    H170423   5.740   2.426   5.674 -1.5012 -1.4378  1.5509
16336TIP3    H270424   5.852   2.375   5.586 -1.2809  1.2703  0.2102
16337TIP3   OH270425   0.668   0.652   2.034  0.0234 -0.4353  0.1519
16337TIP3    H170426   0.759   0.641   2.062  0.1516  0.4728  0.0918
16337TIP3    H270427   0.636   0.727   2.084 -0.6950 -0.7442  0.1631
16338TIP3   OH270428   5.288   1.665  11.295  0.3145  0.4499 -0.2208
16338TIP3    H170429   5.288   1.749  11.249 -0.8344  1.0647  0.8741
16338TIP3    H270430   5.336   1.682  11.376 -1.1303  0.4518  0.6605
16339TIP3   OH270431   2.610   1.505  16.860 -0.2248 -0.1742  0.4220
16339TIP3    H170432   2.637   1.463  16.942  0.0232 -1.3679 -0.2440
16339TIP3    H270433   2.519   1.529  16.874 -0.0828 -0.0817  1.1702
16340TIP3   OH270434   5.183   0.233  12.511  0.2358  0.2211  0.3748
16340TIP3    H170435   5.173   0.328  12.510 -1.2701  0.0886 -1.8651
16340TIP3    H270436   5.238   0.214  12.434 -0.5458 -0.8011  0.0585
16341TIP3   OH270437   6.348   5.742   3.118  0.2826 -0.0574  0.2092
16341TIP3    H170438   6.346   5.649   3.095 -0.1257  0.6106 -2.6165
16341TIP3    H270439   6.431   5.753   3.164  1.0994 -1.5002 -0.8608
16342TIP3   OH270440   1.380   4.768   1.710 -0.4621  0.1744  0.5293
16342TIP3    H170441   1.335   4.818   1.779  0.3954 -0.4700  1.5607
16342TIP3    H270442   1.326   4.690   1.699 -1.5945  1.1241 -0.8161
16343TIP3   OH270443   5.955   6.017  10.685  0.1063  0.1746 -0.4811
16343TIP3    H170444   5.900   6.011  10.607 -1.0702  1.6522  0.2058
16343TIP3    H270445   6.039   6.050  10.653  0.0461 -0.4754 -1.3069
16344TIP3   OH270446   6.542   5.089  11.285 -0.0082 -0.3084  0.2796
16344TIP3    H170447   6.487   5.054  11.355  1.0105 -1.6502  0.4278
16344TIP3    H270448   6.511   5.046  11.206 -0.8106  0.8128 -0.0223
16345TIP3   OH270449   3.736   4.878  12.641 -0.5728 -0.4266 -0.0945
16345TIP3    H170450   3.791   4.939  12.690 -0.6799 -0.9418  0.6790
16345TIP3    H270451   3.797   4.835  12.580 -0.2714 -0.3975  0.1818
16346TIP3   OH270452   1.694   1.008   5.749  0.6395 -0.3609 -0.4474
16346TIP3    H170453   1.730   1.043   5.668  0.0248 -1.3738 -1.1823
16346TIP3    H270454   1.762   0.949   5.782  2.5675  3.0229  1.9052
16347TIP3   OH270455   3.494   4.754   1.280 -0.4066  0.1500 -0.5382
16347TIP3    H170456   3.485   4.699   1.357  1.9057  0.1857 -0.2116
16347TIP3    H270457   3.405   4.787   1.264 -1.2692 -1.3341  0.9692
16348TIP3   OH270458   5.814   4.943  11.446 -0.2305  0.3393  0.3928
16348TIP3    H170459   5.873   4.998  11.497  0.7194  0.6551 -1.0023
16348TIP3    H270460   5.768   4.890  11.511  1.2446  0.4388  1.5418
16349TIP3   OH270461   0.267   3.370   1.209  0.9262  0.4114 -0.4236
16349TIP3    H170462   0.361   3.387   1.198  0.9314 -0.0527 -1.1685
16349TIP3    H270463   0.258   3.276   1.194  0.2441  0.5744 -1.1191
16350TIP3   OH270464   6.386   2.429  12.869  0.2334  0.2935 -0.4562
16350TIP3    H170465   6.398   2.474  12.786 -0.7906  0.4817 -0.5080
16350TIP3    H270466   6.355   2.497  12.929 -0.5598 -0.1767 -0.3280
16351TIP3   OH270467   0.183   4.778   6.387 -0.3072  0.0454 -0.2560
16351TIP3    H170468   0.172   4.701   6.331  0.5897 -0.2514 -0.0313
16351TIP3    H270469   0.117   4.768   6.455 -0.7715 -0.0767 -0.7243
16352TIP3   OH270470   5.863   6.070   4.175  0.1840 -0.0081 -0.2553
16352TIP3    H170471   5.849   6.160   4.204 -0.9376 -0.3309  0.2168
16352TIP3    H270472   5.878   6.020   4.255  0.8977 -0.2344 -0.5210
16353TIP3   OH270473   6.621   0.478  15.116 -0.4369  0.0924  0.1546
16353TIP3    H170474   6.542   0.428  15.139  0.1351 -1.7737 -1.7809
16353TIP3    H270475   6.592   0.569  15.115 -2.4585 -0.5229 -0.0310
16354TIP3   OH270476   1.600   6.573   2.191  0.3903 -0.0817 -0.1268
16354TIP3    H170477   1.611   6.626   2.112  1.7574 -1.0551 -0.5997
16354TIP3    H270478   1.526   6.516   2.171  1.2198 -0.8660 -1.0223
16355TIP3   OH270479   6.225   1.357  15.355  0.1470  0.5391 -0.3269
16355TIP3    H170480   6.135   1.343  15.385  0.6650  1.3989  1.7348
16355TIP3    H270481   6.231   1.452  15.345 -0.2639  0.2344 -4.1170
16356TIP3   OH270482   0.054   4.686  12.404  0.0314  0.5618 -0.6520
16356TIP3    H170483   0.049   4.597  12.440 -0.9433  0.6413 -0.5862
16356TIP3    H270484   0.137   4.721  12.438 -0.1997  0.1297  0.3695
16357TIP3   OH270485   5.569   2.281  15.318 -0.1150 -0.2646 -0.1568
16357TIP3    H170486   5.539   2.315  15.402  0.4527  0.0049 -0.0591
16357TIP3    H270487   5.505   2.313  15.255  0.2905  0.8231 -0.0364
16358TIP3   OH270488   5.327   0.520  16.620  0.2121 -0.2436  0.1110
16358TIP3    H170489   5.354   0.594  16.674  0.5737  0.1434 -0.5900
16358TIP3    H270490   5.389   0.520  16.547  0.3483 -1.3661  0.2156
16359TIP3   OH270491   0.304   5.430   2.828 -0.3049 -0.5780  0.3481
16359TIP3    H170492   0.252   5.496   2.873  0.6932  1.7074 -1.6859
16359TIP3    H270493   0.335   5.372   2.897  0.4745  2.2970  2.5105
16360TIP3   OH270494   5.241   2.894   1.431 -0.5905  0.1540  0.4552
16360TIP3    H170495   5.272   2.982   1.410 -1.5258  0.2728 -0.5070
16360TIP3    H270496   5.320   2.843   1.449  0.1251  0.5657 -1.4584
16361TIP3   OH270497   6.264   4.714  15.579 -0.2693  0.0226 -0.0480
16361TIP3    H170498   6.241   4.787  15.636  2.5604 -0.0182  1.2674
16361TIP3    H270499   6.286   4.754  15.495 -0.2440  0.5406  0.2053
16362TIP3   OH270500   1.303   1.666   1.722 -0.1237  0.2262  0.5654
16362TIP3    H170501   1.242   1.700   1.786 -0.8338 -1.1229  0.6212
16362TIP3    H270502   1.289   1.571   1.722  0.6903  0.0791 -0.7197
16363TIP3   OH270503   6.091   2.228   5.105  0.2624  0.2495  0.0209
16363TIP3    H170504   6.094   2.217   5.200 -0.9787 -3.3436 -0.2841
16363TIP3    H270505   6.001   2.256   5.087  1.2785  3.7802  0.0880
16364TIP3   OH270506   0.606   6.292  13.051 -0.3050  0.1729  0.0111
16364TIP3    H170507   0.628   6.202  13.029 -0.0758  0.0559  0.6885
16364TIP3    H270508   0.636   6.345  12.977  0.7772 -0.1574  0.2182
16365TIP3   OH270509   2.990   5.129   4.012  0.7725 -0.5920 -0.2393
16365TIP3    H170510   2.977   5.041   3.977  1.0736 -1.4772  1.7923
16365TIP3    H270511   2.954   5.124   4.101  2.5188  0.7895  0.5631
16366TIP3   OH270512   6.082   4.023  13.203 -0.2253  0.4968  0.1907
16366TIP3    H170513   6.003   3.969  13.198 -0.2225  0.6052 -1.7347
16366TIP3    H270514   6.115   4.024  13.113  1.2590  1.5030  0.7331
16367TIP3   OH270515   3.396   5.526  15.457 -0.0224 -0.1684  0.4142
16367TIP3    H170516   3.426   5.479  15.535  0.6670  0.2021  0.3789
16367TIP3    H270517   3.346   5.600  15.491  0.6790  0.2612  0.5184
16368TIP3   OH270518   3.223   2.723  11.560  0.1916 -0.4262 -0.5505
16368TIP3    H170519   3.269   2.662  11.619 -1.3276  0.6831  1.8758
16368TIP3    H270520   3.293   2.776  11.521  1.1298  0.1078  1.7750
16369TIP3   OH270521   6.147   0.205  10.946 -0.5087 -0.0201  0.6294
16369TIP3    H170522   6.185   0.292  10.962 -0.9940  0.0825  1.2698
16369TIP3    H270523   6.057   0.213  10.977 -1.1509 -0.1662 -1.1648
16370TIP3   OH270524   0.837   3.628   1.359  0.5101 -0.1058 -0.9959
16370TIP3    H170525   0.863   3.540   1.332  0.1330 -1.1483  1.8341
16370TIP3    H270526   0.870   3.636   1.449 -0.0534  2.3956 -0.9853
16371TIP3   OH270527   6.322   3.917  12.485 -0.6499  0.6558  0.5677
16371TIP3    H170528   6.351   3.866  12.561 -0.1167  1.3005  0.8048
16371TIP3    H270529   6.373   3.998  12.490 -0.1455  0.4407 -0.8324
16372TIP3   OH270530   5.636   6.269   4.758 -0.0326 -0.0274  0.0270
16372TIP3    H170531   5.576   6.234   4.691  0.3407  0.9741 -0.8465
16372TIP3    H270532   5.607   6.228   4.839 -1.7039  0.1874 -0.4343
16373TIP3   OH270533   0.009   1.221   3.635  0.4742  0.0464  0.4450
16373TIP3    H170534  -0.062   1.238   3.697  1.1374 -1.3259  1.6053
16373TIP3    H270535  -0.009   1.134   3.601 -0.0834  0.9401 -1.5906
16374TIP3   OH270536   2.280   5.020  13.600  0.1195  0.1981 -0.5800
16374TIP3    H170537   2.252   5.061  13.682 -0.6786 -0.5608 -0.4678
16374TIP3    H270538   2.375   5.011  13.609 -0.0965 -0.8679  0.7167
16375TIP3   OH270539   4.116   1.295  12.055  0.0338 -0.6029 -0.4850
16375TIP3    H170540   4.146   1.296  11.964  2.1738 -1.9210  0.1583
16375TIP3    H270541   4.074   1.209  12.064 -0.0509 -0.5293 -0.2015
16376TIP3   OH270542   3.606   2.552   2.564 -0.0412 -0.1118  0.2514
16376TIP3    H170543   3.628   2.566   2.472 -0.1297  0.5090  0.3248
16376TIP3    H270544   3.689   2.567   2.611  0.1586 -1.0525  0.2216
16377TIP3   OH270545   0.982   1.706  12.584  0.3535  0.2596 -0.2527
16377TIP3    H170546   0.886   1.705  12.589  0.2545  3.1848 -0.6298
16377TIP3    H270547   1.009   1.626  12.629 -2.1510  1.0087  2.7598
16378TIP3   OH270548   1.314   1.494  13.932  0.3093  0.0621 -0.1737
16378TIP3    H170549   1.268   1.578  13.935 -0.7269 -0.5475  1.1826
16378TIP3    H270550   1.381   1.501  14.000 -0.1347 -0.4210  0.3125
16379TIP3   OH270551   3.213   6.520  16.873  0.2098 -0.0501 -0.0406
16379TIP3    H170552   3.179   6.491  16.789  0.9844  0.5119 -0.5546
16379TIP3    H270553   3.304   6.542  16.856  0.1400  0.8921  0.7469
16380TIP3   OH270554   4.646   0.911   2.534  0.9343  0.0122  0.5507
16380TIP3    H170555   4.626   0.975   2.602  1.2483  0.5110  0.1736
16380TIP3    H270556   4.604   0.830   2.564 -0.0664  0.5757  0.6776
16381TIP3   OH270557   5.400   2.102   2.073  0.2288  0.3788 -0.2519
16381TIP3    H170558   5.364   2.014   2.080 -1.6830  1.0619 -1.2262
16381TIP3    H270559   5.324   2.160   2.077  1.4230  1.9700 -0.0429
16382TIP3   OH270560   1.517   3.229  14.620  0.1992  0.1063  0.0074
16382TIP3    H170561   1.519   3.283  14.541 -1.0105  0.5213  0.2503
16382TIP3    H270562   1.424   3.225  14.644  0.6919  1.0118  2.1233
16383TIP3   OH270563   6.422   4.557   2.795 -0.2524 -0.1530  0.0847
16383TIP3    H170564   6.506   4.602   2.787 -1.2082  1.5017 -0.9606
16383TIP3    H270565   6.392   4.577   2.883  0.4600 -0.7913  0.4799
16384TIP3   OH270566   2.233   4.422  15.752 -0.1390  0.1893 -0.4023
16384TIP3    H170567   2.315   4.396  15.794  0.9535  1.5531 -1.6253
16384TIP3    H270568   2.223   4.515  15.775 -0.0006  0.7079 -2.3590
16385TIP3   OH270569   4.567   4.530   3.732  0.8275  0.2181  0.0074
16385TIP3    H170570   4.474   4.539   3.753  0.7038  0.0769 -0.4793
16385TIP3    H270571   4.612   4.581   3.800  0.5092 -1.4213  1.4914
16386TIP3   OH270572   6.699   1.813   2.149  0.3413  0.5837 -0.4352
16386TIP3    H170573   6.627   1.766   2.107  0.1312 -0.4413  1.0306
16386TIP3    H270574   6.668   1.831   2.237  1.9678 -0.1332  0.3178
16387TIP3   OH270575   0.863   4.000  13.733  0.2796 -0.4343 -0.2943
16387TIP3    H170576   0.842   4.059  13.660  1.3135  1.1644  0.6877
16387TIP3    H270577   0.895   3.920  13.690 -1.1025 -0.3032 -1.6262
16388TIP3   OH270578   3.120   2.731   5.734  0.6793  0.4187 -0.2039
16388TIP3    H170579   3.027   2.748   5.718  0.6904  0.1143 -0.5869
16388TIP3    H270580   3.124   2.708   5.827  0.4839  1.2149  0.0077
16389TIP3   OH270581   6.528   3.765   1.332 -0.1418  0.1684  0.7874
16389TIP3    H170582   6.594   3.762   1.401  0.8666  1.7874 -0.0743
16389TIP3    H270583   6.565   3.711   1.262  0.0981  0.7618  0.4545
16390TIP3   OH270584   5.258   5.330   2.720 -0.1320  0.1107 -0.4988
16390TIP3    H170585   5.296   5.382   2.649 -1.5889  1.1473 -0.5373
16390TIP3    H270586   5.319   5.256   2.731  2.3393  2.1635  0.0316
16391TIP3   OH270587   1.824   1.051   5.484 -0.4408  0.3436  0.3675
16391TIP3    H170588   1.754   1.000   5.443 -0.1758  0.1266  0.1794
16391TIP3    H270589   1.835   1.127   5.426  0.3121 -0.2447 -0.2727
16392TIP3   OH270590   4.243   4.694   4.847 -0.0600 -0.0469  0.4259
16392TIP3    H170591   4.154   4.700   4.882 -0.6088 -1.3474 -0.7136
16392TIP3    H270592   4.243   4.756   4.774 -0.1434 -0.3534  0.1697
16393TIP3   OH270593   1.812   3.642   3.711  0.1687 -0.0506  0.2724
16393TIP3    H170594   1.812   3.703   3.638 -1.0023  0.7218  0.9061
16393TIP3    H270595   1.735   3.588   3.698 -0.3896  0.4908  1.2566
16394TIP3   OH270596   4.321   4.426  14.919 -0.7062  0.6296 -0.2634
16394TIP3    H170597   4.365   4.502  14.957  0.0284  0.7859 -1.3993
16394TIP3    H270598   4.386   4.356  14.922 -0.2839  0.9257 -2.1612
16395TIP3   OH270599   5.848   2.564   4.746  0.2528 -0.5153 -0.3918
16395TIP3    H170600   5.869   2.639   4.802 -2.0070  0.1100 -0.3293
16395TIP3    H270601   5.905   2.575   4.670  0.4544  0.8840 -0.0579
16396TIP3   OH270602   4.252   2.501  11.545  0.4058  0.2347  0.6430
16396TIP3    H170603   4.173   2.459  11.581 -1.6082 -1.1737 -4.9049
16396TIP3    H270604   4.324   2.461  11.594 -2.1238 -0.1501  4.2984
16397TIP3   OH270605   5.350   6.075   4.390  0.3005 -0.0320 -0.6117
16397TIP3    H170606   5.281   6.058   4.326  1.4290 -0.0606 -1.8448
16397TIP3    H270607   5.419   6.118   4.339  0.7507  0.9548  0.8302
16398TIP3   OH270608   2.293   0.539  16.944 -0.1534 -0.0603 -0.9493
16398TIP3    H170609   2.278   0.449  16.973 -1.1896  0.7330  1.1300
16398TIP3    H270610   2.334   0.581  17.020 -1.2206  1.6412 -1.2936
16399TIP3   OH270611   0.733   4.696  12.197 -0.2550 -0.3627  0.1853
16399TIP3    H170612   0.668   4.755  12.157 -0.2566 -0.9051 -0.6121
16399TIP3    H270613   0.741   4.624  12.135  2.5051  0.5947 -0.6214
16400TIP3   OH270614   4.994   0.320  14.171 -0.5529  0.8842  0.1319
16400TIP3    H170615   4.954   0.400  14.138 -2.6500  0.4072  1.3964
16400TIP3    H270616   4.948   0.250  14.125  1.0128  0.3747 -0.6968
16401TIP3   OH270617   1.885   4.844  15.631  0.1591 -0.3525  0.3353
16401TIP3    H170618   1.805   4.792  15.637 -0.4397  0.7295  2.1896
16401TIP3    H270619   1.862   4.917  15.573  0.2168 -0.7400 -0.1851
16402TIP3   OH270620   6.468   1.243   1.880  0.1897  0.1040 -0.6455
16402TIP3    H170621   6.426   1.175   1.826 -0.4972 -0.2578  0.3186
16402TIP3    H270622   6.468   1.321   1.824 -0.4648 -0.2743 -1.1935
16403TIP3   OH270623   0.158   1.947   2.498  0.2091 -0.2643 -0.3409
16403TIP3    H170624   0.091   1.993   2.448 -0.4021  0.9088  1.5042
16403TIP3    H270625   0.116   1.927   2.582  1.7735 -0.6325  0.3742
16404TIP3   OH270626   2.523   3.019   2.000  0.1204 -0.1184  0.6798
16404TIP3    H170627   2.517   3.048   1.909  1.0952  0.9603  0.9385
16404TIP3    H270628   2.436   3.037   2.037 -0.1392 -0.1456  0.0858
16405TIP3   OH270629   2.893   2.054  12.450  0.0782 -0.3766 -0.3079
16405TIP3    H170630   2.853   2.090  12.529 -1.5718 -0.1133 -1.2439
16405TIP3    H270631   2.981   2.029  12.477  0.2179  1.5469  1.1219
16406TIP3   OH270632   3.685   3.025   4.116 -0.4116 -0.1602 -0.4034
16406TIP3    H170633   3.643   3.087   4.175  0.4817 -0.0055  0.0803
16406TIP3    H270634   3.612   2.978   4.075 -1.0378 -0.8972  1.5020
16407TIP3   OH270635   4.236   6.276   4.810 -0.1484 -0.4826 -0.2191
16407TIP3    H170636   4.235   6.180   4.820  1.0740 -0.3799  1.0229
16407TIP3    H270637   4.317   6.303   4.853 -0.8965  1.1923  0.1440
16408TIP3   OH270638   2.863   2.444  16.056  0.2217 -0.1074  0.9756
16408TIP3    H170639   2.902   2.399  16.131  1.7678 -1.3615 -0.5389
16408TIP3    H270640   2.898   2.533  16.060  0.0536 -0.0724  1.8904
16409TIP3   OH270641   0.106   4.842  15.346  0.7174 -0.0611  0.0402
16409TIP3    H170642   0.141   4.760  15.382 -1.4604 -0.5375  1.1736
16409TIP3    H270643   0.039   4.869  15.410  0.5459  1.9326 -0.9656
16410TIP3   OH270644   1.508   4.207  11.321  0.2967 -0.4041  0.1640
16410TIP3    H170645   1.559   4.170  11.392 -1.1698 -2.2067  0.3057
16410TIP3    H270646   1.445   4.264  11.364  2.4850  2.3006 -0.0477
16411TIP3   OH270647   2.149   1.864  14.095 -0.3728  0.3946  0.0485
16411TIP3    H170648   2.169   1.828  14.182  0.3290 -0.6235 -0.5159
16411TIP3    H270649   2.076   1.811  14.063  0.7360 -0.6472 -0.8344
16412TIP3   OH270650   0.893   3.478  12.581  0.1851 -0.6516  0.1220
16412TIP3    H170651   0.844   3.457  12.501  1.7194 -2.0940 -0.4665
16412TIP3    H270652   0.919   3.393  12.616 -0.9459 -0.0735  2.4904
16413TIP3   OH270653   4.368   2.263  14.923  0.0519  0.4979  0.3882
16413TIP3    H170654   4.430   2.317  14.972  1.5660  0.1237 -1.0675
16413TIP3    H270655   4.409   2.176  14.919 -0.1555  0.4652 -1.3188
16414TIP3   OH270656   3.747   4.398  14.129  0.5354 -0.0627 -0.5938
16414TIP3    H170657   3.693   4.463  14.083  1.4412  1.1560  0.0274
16414TIP3    H270658   3.699   4.380  14.209 -0.1402 -0.8152 -1.1567
16415TIP3   OH270659   5.766   3.646   2.713  0.1434 -0.6904  0.1746
16415TIP3    H170660   5.751   3.701   2.790  0.5588  0.6081 -0.6571
16415TIP3    H270661   5.859   3.656   2.694 -0.2726  0.2888 -1.4522
16416TIP3   OH270662   3.176   3.160   2.008  0.3917  0.4356  0.4199
16416TIP3    H170663   3.246   3.150   1.943  0.7685  2.6503  0.4623
16416TIP3    H270664   3.112   3.218   1.966 -0.9382 -0.7221  0.7926
16417TIP3   OH270665   1.810   4.046  12.168 -0.4683  0.5967  0.1823
16417TIP3    H170666   1.779   4.136  12.157  0.1832  0.4009 -4.4148
16417TIP3    H270667   1.881   4.052  12.231  0.2053  3.5126 -0.7625
16418TIP3   OH270668   6.242   2.700   2.655 -0.0382  0.3315 -0.4576
16418TIP3    H170669   6.234   2.633   2.724 -1.3907  1.1711  0.2036
16418TIP3    H270670   6.297   2.658   2.588 -0.1756 -1.1361  0.3247
16419TIP3   OH270671   3.274   4.242   1.903 -0.4701  0.1214  0.4932
16419TIP3    H170672   3.361   4.275   1.883 -0.3814 -0.2090  0.3358
16419TIP3    H270673   3.237   4.218   1.817 -0.0914 -1.2946  0.7182
16420TIP3   OH270674   6.720   0.667   5.919 -0.2774  0.2555  0.3710
16420TIP3    H170675   6.815   0.662   5.912 -0.4635 -2.1959 -0.8734
16420TIP3    H270676   6.703   0.658   6.013  0.7734  2.9078  0.8765
16421TIP3   OH270677   0.737   3.895  10.834  0.4051  0.1627  0.3427
16421TIP3    H170678   0.787   3.966  10.874  1.1463 -0.2780  0.2122
16421TIP3    H270679   0.729   3.829  10.903  0.3389  0.0684  0.2452
16422TIP3   OH270680   5.793   3.358   3.999 -0.4833  0.3846  0.3904
16422TIP3    H170681   5.856   3.390   3.934 -0.5887 -0.1439  0.0236
16422TIP3    H270682   5.845   3.349   4.079  0.1161 -0.7970 -0.1022
16423TIP3   OH270683   0.377   2.236  11.695 -0.8631 -0.5485  0.3963
16423TIP3    H170684   0.382   2.179  11.618 -2.2644  0.2925 -0.3478
16423TIP3    H270685   0.344   2.180  11.765 -0.1107 -1.1876  0.2368
16424TIP3   OH270686   0.349   5.224   3.020  0.2767 -0.5664 -0.1991
16424TIP3    H170687   0.402   5.256   3.093  0.0538 -0.5628 -0.0357
16424TIP3    H270688   0.392   5.144   2.991  2.3047  1.2369 -2.2847
16425TIP3   OH270689   3.047   2.845  14.844  0.4418 -0.1400 -0.2991
16425TIP3    H170690   3.029   2.801  14.927 -1.2238 -0.1497 -0.6615
16425TIP3    H270691   3.108   2.786  14.799 -0.6618 -1.3868 -0.1706
16426TIP3   OH270692   5.127   2.339   2.516  0.2869 -0.3607  0.6295
16426TIP3    H170693   5.097   2.251   2.541 -1.9620 -0.2127 -1.3834
16426TIP3    H270694   5.220   2.328   2.497  0.1273 -2.2106  0.8423
16427TIP3   OH270695   0.313   2.682  15.455 -0.1228  0.2965  0.1220
16427TIP3    H170696   0.243   2.629  15.493 -1.4482  0.9312 -1.3665
16427TIP3    H270697   0.393   2.647  15.493 -0.8057 -3.6811 -1.8261
16428TIP3   OH270698   4.112   3.698   3.531  0.3029  0.0631 -0.3788
16428TIP3    H170699   4.119   3.620   3.585 -1.1108 -0.1160 -0.4336
16428TIP3    H270700   4.044   3.677   3.467 -0.2282  1.4016 -0.2763
16429TIP3   OH270701   2.075   4.339  16.197 -0.0130  0.1805 -0.4112
16429TIP3    H170702   2.101   4.387  16.118 -1.5336  0.8376 -0.5241
16429TIP3    H270703   2.055   4.406  16.261 -0.7428 -0.3176 -0.1096
16430TIP3   OH270704   6.031   4.370  17.033  0.2824  0.0781 -0.1000
16430TIP3    H170705   6.059   4.341  16.946 -1.8724  1.1019 -1.1700
16430TIP3    H270706   6.010   4.463  17.022  1.1584  0.5371  1.8221
16431TIP3   OH270707   4.201   1.269  12.999  0.0133  0.0883  0.2164
16431TIP3    H170708   4.135   1.293  13.064 -0.1404  0.4423 -0.0672
16431TIP3    H270709   4.228   1.352  12.961 -0.5613 -0.1843 -0.8170
16432TIP3   OH270710   4.764   5.826  15.323  0.0991 -0.0244 -0.0942
16432TIP3    H170711   4.784   5.738  15.291 -1.8043 -0.1700 -1.0137
16432TIP3    H270712   4.849   5.869  15.334  1.0285 -1.8999  0.1441
16433TIP3   OH270713   3.605   5.027  12.432 -0.4285  0.1203 -0.7814
16433TIP3    H170714   3.596   4.962  12.502 -0.5629  0.3136 -0.6185
16433TIP3    H270715   3.699   5.036  12.420 -0.1728  3.5589  2.6336
16434TIP3   OH270716   3.608   2.891  11.092 -0.3404 -0.0869  0.1613
16434TIP3    H170717   3.564   2.899  11.007 -1.3801 -1.2700  0.5850
16434TIP3    H270718   3.600   2.979  11.130 -0.2479  0.3380 -0.7698
16435TIP3   OH270719   0.397   2.059   1.321  0.6841 -0.2653  0.4324
16435TIP3    H170720   0.463   2.033   1.257 -0.2666  2.6216 -1.8457
16435TIP3    H270721   0.338   1.984   1.327  0.1943 -0.2341 -2.9616
16436TIP3   OH270722   0.501   5.586  13.537  0.3383 -0.2689  0.0982
16436TIP3    H170723   0.480   5.561  13.627 -3.6798  1.7352 -0.1664
16436TIP3    H270724   0.493   5.682  13.537  1.1507 -0.1802 -2.1833
16437TIP3   OH270725   1.846   3.422  11.929  0.4574 -0.5643 -0.2903
16437TIP3    H170726   1.862   3.431  12.023 -0.9634 -0.0721 -0.0831
16437TIP3    H270727   1.876   3.504  11.891  0.4077 -0.4988 -0.1861
16438TIP3   OH270728   2.749   4.255   4.754 -0.1127  0.2136 -0.5512
16438TIP3    H170729   2.739   4.183   4.816 -0.3514  0.3346 -0.4507
16438TIP3    H270730   2.661   4.290   4.743  0.0723  0.7953 -0.2328
16439TIP3   OH270731   2.699   3.073   2.751  0.0139 -0.3555 -0.3133
16439TIP3    H170732   2.637   3.004   2.729  0.3462 -1.7787  2.9571
16439TIP3    H270733   2.784   3.039   2.722  0.1226 -1.2070  0.9467
16440TIP3   OH270734   2.561   4.904  12.412  0.1501 -0.0253  0.0611
16440TIP3    H170735   2.593   4.954  12.486  0.4611  0.7604 -0.6077
16440TIP3    H270736   2.546   4.968  12.343 -0.4234 -0.7087 -0.4655
16441TIP3   OH270737   0.313   2.997  13.001 -0.4629  0.3728  0.3509
16441TIP3    H170738   0.408   3.001  13.012 -0.0848 -0.6050 -2.2174
16441TIP3    H270739   0.280   2.969  13.087  1.4631  1.5553  1.5219
16442TIP3   OH270740   4.207   6.277   0.658  0.1520 -0.1957 -0.8918
16442TIP3    H170741   4.294   6.316   0.656 -0.1938  0.5242 -2.3181
16442TIP3    H270742   4.185   6.262   0.566 -1.8571  1.0395 -0.6413
16443TIP3   OH270743   2.397   3.457  14.025 -0.1102 -0.5421  0.4450
16443TIP3    H170744   2.439   3.508  14.095  0.0622  0.0758 -0.0975
16443TIP3    H270745   2.304   3.463  14.044 -0.1919  1.2267 -0.4298
16444TIP3   OH270746   4.367   4.752   0.421  0.4119 -0.1979 -0.1863
16444TIP3    H170747   4.365   4.826   0.361  1.1260 -0.9287 -1.1089
16444TIP3    H270748   4.324   4.681   0.374  1.9895 -1.1017 -0.2772
16445TIP3   OH270749   3.232   0.999   2.016  1.2428  0.4639  0.0170
16445TIP3    H170750   3.151   1.014   1.967  1.8245  1.6698 -0.6021
16445TIP3    H270751   3.221   0.913   2.056 -0.2010  0.4711 -0.3476
16446TIP3   OH270752   3.252   0.403   5.159  0.3634 -0.1744 -0.0081
16446TIP3    H170753   3.186   0.472   5.152  0.8844  0.3350  0.0649
16446TIP3    H270754   3.205   0.323   5.136 -0.3272  0.1577  0.2377
16447TIP3   OH270755   1.821   2.258   5.546 -0.0630 -0.5138  0.1040
16447TIP3    H170756   1.773   2.320   5.491  1.2433  0.7997  0.4258
16447TIP3    H270757   1.894   2.230   5.491  2.7057  2.7119  1.9612
16448TIP3   OH270758   3.034   4.291   3.718 -0.0010 -0.3756  0.6393
16448TIP3    H170759   3.118   4.320   3.683  1.1855 -3.3203  0.8935
16448TIP3    H270760   2.970   4.312   3.650  1.1025  0.8547 -0.0263
16449TIP3   OH270761   4.953   4.884   4.231 -0.0679  0.6808 -0.4523
16449TIP3    H170762   4.944   4.963   4.283  1.8281  0.9489 -0.4843
16449TIP3    H270763   5.036   4.845   4.261 -0.5402 -0.8162 -1.0469
16450TIP3   OH270764   1.937   2.931  14.399  0.3930  0.1002  0.3655
16450TIP3    H170765   1.942   2.962  14.490  1.3340 -1.3644  0.8208
16450TIP3    H270766   2.010   2.870  14.390  0.8438  0.9058 -1.6482
16451TIP3   OH270767   1.433   1.143  15.594  0.4842 -0.1985  0.1425
16451TIP3    H170768   1.509   1.172  15.644  0.7836 -0.7983  0.0397
16451TIP3    H270769   1.361   1.197  15.627  0.4259 -1.4238  2.1307
16452TIP3   OH270770   2.469   4.596  16.656  0.7673 -1.1535  0.2285
16452TIP3    H170771   2.479   4.649  16.735  0.1456 -0.2348 -0.2984
16452TIP3    H270772   2.446   4.659  16.588 -0.8057 -2.1914 -0.2276
16453TIP3   OH270773   1.845   4.696  16.814 -0.3735 -0.4375  0.3080
16453TIP3    H170774   1.807   4.641  16.882  0.1023 -0.6301  0.4225
16453TIP3    H270775   1.803   4.781  16.824 -0.6814 -0.6158  0.5094
16454TIP3   OH270776   3.242   2.090  16.838 -0.1482  0.1415 -0.4605
16454TIP3    H170777   3.314   2.124  16.785 -0.9952  1.4956 -0.7621
16454TIP3    H270778   3.217   2.008  16.796  0.8822 -0.0933 -0.6330
16455TIP3   OH270779   0.429   2.090   5.172  0.6996  0.4572 -0.1448
16455TIP3    H170780   0.369   2.162   5.151  0.0961 -0.2961 -1.0295
16455TIP3    H270781   0.516   2.126   5.154  0.2756  0.2198 -2.9351
16456TIP3   OH270782   3.681   0.491  14.458  0.1651 -0.1810  0.1288
16456TIP3    H170783   3.657   0.528  14.543  1.7395 -0.4596  0.7137
16456TIP3    H270784   3.676   0.565  14.398 -1.0781 -0.0103  0.4429
16457TIP3   OH270785   4.885   0.291   4.407 -0.1105  0.3067 -0.8331
16457TIP3    H170786   4.843   0.377   4.403 -0.2740  0.2665 -0.0286
16457TIP3    H270787   4.956   0.296   4.342  1.2389  1.7795  0.7063
16458TIP3   OH270788   0.261   3.756  14.375  0.1296 -0.2833  0.5735
16458TIP3    H170789   0.209   3.721  14.303 -0.0435 -0.5589  0.8309
16458TIP3    H270790   0.197   3.795  14.434  0.2990  0.2308  0.4216
16459TIP3   OH270791   1.706   1.939  14.494  0.0741 -0.1826  0.2434
16459TIP3    H170792   1.611   1.935  14.503  0.0973 -1.1606  0.0141
16459TIP3    H270793   1.727   1.881  14.421  0.7390  0.9803 -0.5135
16460TIP3   OH270794   6.591   5.854   4.841 -0.6562 -0.6871 -0.3063
16460TIP3    H170795   6.509   5.877   4.798 -0.5636 -0.0560 -0.1382
16460TIP3    H270796   6.653   5.841   4.769 -0.5725  0.1034 -0.3759
16461TIP3   OH270797   0.161   3.440   5.803  0.3561 -0.1392 -0.7517
16461TIP3    H170798   0.231   3.462   5.742  1.3408 -1.3603 -0.0823
16461TIP3    H270799   0.136   3.524   5.842  1.1292  0.3652 -1.3205
16462TIP3   OH270800   2.127   6.780   2.525  0.0401  0.1237  0.3080
16462TIP3    H170801   2.146   6.835   2.449 -1.6147 -0.2608 -0.4063
16462TIP3    H270802   2.159   6.831   2.600  0.8971  0.8825 -0.5695
16463TIP3   OH270803   4.617   5.810   2.445 -0.8006  0.0699 -0.4730
16463TIP3    H170804   4.540   5.819   2.501 -1.2151 -1.9961 -0.7047
16463TIP3    H270805   4.691   5.814   2.506 -0.9806  3.0153 -0.3389
16464TIP3   OH270806   2.214   3.582   0.343  0.0675  1.1291 -0.0106
16464TIP3    H170807   2.223   3.658   0.286 -1.2488  1.2476 -0.0871
16464TIP3    H270808   2.288   3.588   0.404  2.0794  0.4404 -2.3209
16465TIP3   OH270809   1.167   5.112  15.356  0.0603 -0.4233  0.7831
16465TIP3    H170810   1.090   5.113  15.414 -1.9732 -1.0899 -1.8371
16465TIP3    H270811   1.192   5.019  15.352 -0.0602 -0.4299  0.2431
16466TIP3   OH270812   5.987   3.077   3.746 -0.2487 -0.3065  0.4015
16466TIP3    H170813   5.958   3.074   3.655 -1.6355 -1.9759  0.8719
16466TIP3    H270814   6.039   3.157   3.752  0.9162 -0.8429 -2.1550
16467TIP3   OH270815   2.834   3.718   5.847  0.1601 -0.1176 -1.2863
16467TIP3    H170816   2.824   3.654   5.777 -1.8566 -0.2217 -0.9480
16467TIP3    H270817   2.847   3.802   5.802 -0.5713 -0.2681 -1.7830
16468TIP3   OH270818   2.146   0.375   3.346  0.7567 -0.1701  0.0985
16468TIP3    H170819   2.054   0.360   3.370  0.9874 -1.5240  0.1765
16468TIP3    H270820   2.147   0.370   3.251  0.6937  0.1608  0.0812
16469TIP3   OH270821   1.674   4.221  12.817 -0.2874 -0.3744 -0.1164
16469TIP3    H170822   1.738   4.262  12.758  0.5980  1.2528  1.9222
16469TIP3    H270823   1.590   4.258  12.790  0.0079 -0.2467 -0.8842
16470TIP3   OH270824   6.551   0.232   5.504 -0.4544  0.6888  0.4085
16470TIP3    H170825   6.542   0.140   5.480 -0.2585  1.0571 -1.1033
16470TIP3    H270826   6.514   0.237   5.592 -1.2331 -0.6742  0.1760
16471TIP3   OH270827   0.810   2.556  15.232  0.0711 -0.0499 -0.2280
16471TIP3    H170828   0.854   2.633  15.195 -0.4313 -0.1056 -0.9453
16471TIP3    H270829   0.834   2.557  15.324  0.8362  0.4401 -0.4276
16472TIP3   OH270830   1.101   5.796  16.454  0.1838  0.1622 -0.0788
16472TIP3    H170831   1.162   5.823  16.522 -0.0716  1.3283 -0.3123
16472TIP3    H270832   1.154   5.743  16.394  0.7630  0.4385  0.1865
16473TIP3   OH270833   0.540   6.035  11.765  0.0096  0.1064 -0.0569
16473TIP3    H170834   0.456   6.011  11.805 -0.6566 -0.6201 -1.8327
16473TIP3    H270835   0.605   6.012  11.831 -1.1981  1.2480  1.6091
16474TIP3   OH270836   2.876   1.918  15.290  0.0300 -0.3994 -0.7130
16474TIP3    H170837   2.944   1.852  15.306 -0.0782 -0.5737 -0.9554
16474TIP3    H270838   2.916   1.978  15.226  0.3833  0.1728  0.0424
16475TIP3   OH270839   5.096   4.937   1.293  0.3089  0.1691  0.1703
16475TIP3    H170840   5.068   4.963   1.205  1.5524 -0.9765 -0.5816
16475TIP3    H270841   5.125   5.018   1.335 -2.8519  1.1953  0.5277
16476TIP3   OH270842   0.220   2.325   3.942  0.8071 -0.2670  0.2096
16476TIP3    H170843   0.181   2.361   3.862  1.9757 -1.9979 -1.1745
16476TIP3    H270844   0.156   2.343   4.010 -0.7025  0.2802 -1.3159
16477TIP3   OH270845   6.683   4.095  14.484  0.0276  0.6492 -0.1542
16477TIP3    H170846   6.752   4.161  14.484 -1.2226  1.9878 -0.8645
16477TIP3    H270847   6.616   4.130  14.542 -0.0220 -0.7002  0.6248
16478TIP3   OH270848   5.528   5.142  16.789  0.2381  0.1250  0.4905
16478TIP3    H170849   5.580   5.097  16.723  0.4935 -0.4177  1.0536
16478TIP3    H270850   5.522   5.079  16.862 -2.4194 -0.4211 -0.1291
16479TIP3   OH270851   3.666   2.554  17.218 -0.1474  0.2993  0.2751
16479TIP3    H170852   3.649   2.515  17.132 -0.3620  0.8861  0.0495
16479TIP3    H270853   3.665   2.649  17.202  0.0583  0.4049  0.8780
16480TIP3   OH270854   0.232   1.935   1.730 -0.5380  0.1911 -0.5239
16480TIP3    H170855   0.306   1.995   1.724 -1.9690  1.8972 -1.8389
16480TIP3    H270856   0.266   1.850   1.701  1.4768  0.3917  1.1956
16481TIP3   OH270857   0.042   0.419  14.808  0.5661 -0.6005  0.4939
16481TIP3    H170858   0.087   0.488  14.761 -0.4188 -0.0390  0.3676
16481TIP3    H270859  -0.044   0.414  14.768  0.4265 -1.5037  0.8867
16482TIP3   OH270860   1.407   6.104  11.822 -0.6298 -0.4025  0.3233
16482TIP3    H170861   1.315   6.128  11.819 -0.2353  1.1609  0.4121
16482TIP3    H270862   1.454   6.182  11.791  0.6731 -1.1166  0.4392
16483TIP3   OH270863   2.330   6.035  14.113 -0.0477  0.3836 -0.5059
16483TIP3    H170864   2.269   5.964  14.091  0.0842  0.0894  0.0648
16483TIP3    H270865   2.383   6.046  14.034 -0.0172 -0.2025 -0.5707
16484TIP3   OH270866   3.241   5.985  13.867 -0.4184  0.6715 -0.4853
16484TIP3    H170867   3.318   5.990  13.924  0.4066 -0.9049 -1.4180
16484TIP3    H270868   3.193   6.066  13.884  0.1562  0.5221  1.9464
16485TIP3   OH270869   5.877   1.939  13.793 -0.7920  0.7649 -0.2016
16485TIP3    H170870   5.879   2.023  13.748  0.2639 -1.3990 -4.5522
16485TIP3    H270871   5.805   1.891  13.751 -1.5936 -0.4000  2.4203
16486TIP3   OH270872   0.203   4.496   2.495 -0.2298 -0.2166  0.3109
16486TIP3    H170873   0.286   4.543   2.509  0.2916 -1.4136  1.2883
16486TIP3    H270874   0.217   4.410   2.534 -1.7640 -0.6192  0.0066
16487TIP3   OH270875   4.658   0.586   5.652  0.0609 -0.0267  0.9057
16487TIP3    H170876   4.567   0.562   5.640 -0.2295  0.1973  2.6214
16487TIP3    H270877   4.705   0.502   5.653 -0.0677 -0.1293 -0.2428
16488TIP3   OH270878   2.036   4.500  11.163  0.1249 -0.2640  0.2398
16488TIP3    H170879   2.081   4.559  11.103  0.4333 -1.1492 -0.4077
16488TIP3    H270880   1.976   4.450  11.108  0.9685 -1.6272  0.5500
16489TIP3   OH270881   3.214   2.302   4.034 -0.3178 -0.1068 -0.2104
16489TIP3    H170882   3.141   2.360   4.013 -0.1331 -0.2136 -1.2003
16489TIP3    H270883   3.283   2.329   3.973 -0.2752 -1.4666 -0.7661
16490TIP3   OH270884   3.687   2.492   0.672 -0.2679  0.2091  0.1761
16490TIP3    H170885   3.614   2.448   0.716  0.1208 -0.1077  0.5120
16490TIP3    H270886   3.737   2.420   0.631  1.5066  0.1145  2.4098
16491TIP3   OH270887   0.009   4.500  15.045 -0.0990 -0.5191 -0.3369
16491TIP3    H170888   0.024   4.443  14.969  2.5022 -1.3762  0.7648
16491TIP3    H270889   0.026   4.588  15.012  1.1537 -0.8976 -0.7153
16492TIP3   OH270890   4.778   1.343   0.592  0.0501  0.1203 -0.4430
16492TIP3    H170891   4.738   1.287   0.526  0.5018 -0.4384 -0.2407
16492TIP3    H270892   4.799   1.285   0.665  2.6226  0.1267 -1.1526
16493TIP3   OH270893   5.008   4.864   3.912  0.6032  0.4561  0.3302
16493TIP3    H170894   5.002   4.847   4.007  1.6561  0.8649  0.4752
16493TIP3    H270895   5.085   4.814   3.884 -0.0847 -0.1873 -0.4358
16494TIP3   OH270896   3.918   0.646   3.315 -0.4879  0.4202 -0.2897
16494TIP3    H170897   3.981   0.716   3.299 -0.2709  0.5643  1.1060
16494TIP3    H270898   3.915   0.638   3.411  0.8189 -2.6207 -0.4233
16495TIP3   OH270899   4.045   2.535  12.313  0.2128  0.0804  0.0023
16495TIP3    H170900   3.974   2.476  12.288  1.9332 -1.7980 -0.6259
16495TIP3    H270901   4.017   2.621  12.282 -1.4435 -0.7540 -0.8833
16496TIP3   OH270902   6.739   5.396   2.147 -0.0548  0.1611 -0.0761
16496TIP3    H170903   6.695   5.315   2.174  2.4382 -1.4838 -0.7068
16496TIP3    H270904   6.691   5.466   2.191 -1.7299 -1.7409  1.1970
16497TIP3   OH270905   0.896   6.281  15.425  0.0844  0.8328  0.3755
16497TIP3    H170906   0.977   6.320  15.392 -0.6267  0.5365 -1.8567
16497TIP3    H270907   0.831   6.350  15.416 -0.2928  0.4805  0.4118
16498TIP3   OH270908   3.658   5.434  13.113  0.0820 -0.8932 -1.1466
16498TIP3    H170909   3.593   5.417  13.181  0.6622  0.8507 -0.1068
16498TIP3    H270910   3.725   5.367  13.127  0.2226 -0.5140  0.0531
16499TIP3   OH270911   3.303   1.399   1.993  0.2411 -0.5010  0.3847
16499TIP3    H170912   3.323   1.490   1.973  1.2947 -0.2206  2.5718
16499TIP3    H270913   3.208   1.397   2.006 -0.3939 -0.5498 -3.5684
16500TIP3   OH270914   2.415   3.646   0.499 -0.2508  0.3428  0.2541
16500TIP3    H170915   2.426   3.711   0.569 -0.6915  0.5067  0.1695
16500TIP3    H270916   2.500   3.604   0.493  0.5311  2.0515 -0.8463
16501TIP3   OH270917   5.279   4.255  12.419 -0.1058  0.0387 -0.6686
16501TIP3    H170918   5.245   4.264  12.330 -1.4347  0.7748 -0.0923
16501TIP3    H270919   5.216   4.198  12.463 -0.1578  0.7386  0.1690
16502TIP3   OH270920   5.614   6.249   4.015 -0.2535  0.1046 -0.3124
16502TIP3    H170921   5.670   6.326   4.003 -0.0379  0.1390  0.8712
16502TIP3    H270922   5.530   6.273   3.975 -0.1233  0.8791 -0.1124
16503TIP3   OH270923   2.244   3.017   3.555  0.2397  0.5438 -0.1878
16503TIP3    H170924   2.149   3.029   3.552  0.2156  0.1478 -0.9190
16503TIP3    H270925   2.277   3.097   3.598 -0.6527 -0.5032  2.5554
16504TIP3   OH270926   4.550   1.183  16.077  0.1650 -0.1755 -0.0529
16504TIP3    H170927   4.520   1.272  16.094  0.0570 -0.2721  0.2728
16504TIP3    H270928   4.544   1.139  16.162 -2.3398 -1.2466 -0.7166
16505TIP3   OH270929   1.517   2.501  12.314 -0.1796 -0.0921 -0.2641
16505TIP3    H170930   1.523   2.554  12.393  0.1885  0.5007 -0.6883
16505TIP3    H270931   1.579   2.541  12.253 -0.0399 -0.8894 -0.6532
16506TIP3   OH270932   1.549   4.490  16.764 -0.6937 -0.0258 -0.2576
16506TIP3    H170933   1.547   4.443  16.681 -0.1320 -1.0639  0.3097
16506TIP3    H270934   1.610   4.440  16.819  0.3602  1.6900  0.1644
16507TIP3   OH270935   6.347   0.007  10.188  0.0503  0.0863 -0.4382
16507TIP3    H170936   6.271  -0.024  10.138 -0.1243  0.7721 -0.5953
16507TIP3    H270937   6.421  -0.042  10.152 -0.4238 -1.1337  0.2213
16508TIP3   OH270938   2.558   1.181   2.993 -0.3994  0.2331  0.1249
16508TIP3    H170939   2.639   1.135   2.971  0.1169  0.0735  2.2549
16508TIP3    H270940   2.576   1.272   2.971  0.3574  0.1937  0.5499
16509TIP3   OH270941   1.222   4.610   0.293  0.4629 -0.3467 -0.8449
16509TIP3    H170942   1.274   4.550   0.239  2.6919 -0.6572  1.5600
16509TIP3    H270943   1.252   4.697   0.268  1.4063 -0.4863 -0.2107
16510TIP3   OH270944   5.357   3.349   0.090  0.3173 -0.1905 -0.1080
16510TIP3    H170945   5.321   3.436   0.073  0.0073 -0.5072 -1.1082
16510TIP3    H270946   5.368   3.346   0.185 -1.3130  0.3095  0.1179
16511TIP3   OH270947   3.708   6.546  13.054 -0.0737  0.1223 -0.2603
16511TIP3    H170948   3.696   6.488  12.978 -0.2217 -0.5520  0.2809
16511TIP3    H270949   3.743   6.627  13.016  1.1028 -0.6660 -0.9039
16512TIP3   OH270950   4.735   3.659  12.979  0.4214 -0.0212 -0.1563
16512TIP3    H170951   4.815   3.662  12.926 -0.2031  1.1795 -1.0711
16512TIP3    H270952   4.670   3.706  12.926 -0.6834 -0.3119  0.9235
16513TIP3   OH270953   1.503   5.675   2.306 -0.1464  0.4659  0.0961
16513TIP3    H170954   1.420   5.641   2.339  0.0731  0.5149  0.7086
16513TIP3    H270955   1.560   5.598   2.300 -0.6644  0.1904 -1.6931
16514TIP3   OH270956   6.010   4.297   4.303 -0.2172  0.6817  0.3503
16514TIP3    H170957   6.066   4.364   4.261  0.4913 -0.6999 -0.9689
16514TIP3    H270958   6.012   4.223   4.242 -2.5238  0.1408  0.8877
16515TIP3   OH270959   1.263   1.756   6.609 -0.0024 -0.5940  0.0649
16515TIP3    H170960   1.214   1.812   6.669 -0.7369  1.5717 -2.4792
16515TIP3    H270961   1.350   1.797   6.604  0.4807 -1.5346  0.6646
16516TIP3   OH270962   4.774   3.278  13.476 -0.2333  0.1971 -0.1499
16516TIP3    H170963   4.772   3.281  13.380  0.6761 -0.4691 -0.2012
16516TIP3    H270964   4.867   3.270  13.498 -0.4776 -0.2095  0.7645
16517TIP3   OH270965   6.375   3.408  14.725  0.6278 -0.6242  0.4811
16517TIP3    H170966   6.319   3.384  14.651  1.3197 -0.3429 -0.1407
16517TIP3    H270967   6.314   3.427  14.796 -0.0602 -0.3417 -0.1809
16518TIP3   OH270968   2.815   0.959  11.405 -0.0338  0.0770 -0.1138
16518TIP3    H170969   2.763   0.896  11.354  1.1597 -0.0268 -1.2282
16518TIP3    H270970   2.906   0.940  11.381  0.5414  0.1523  1.9478
16519TIP3   OH270971   5.857   4.357  11.368 -0.2650 -0.3384  0.6965
16519TIP3    H170972   5.777   4.322  11.408  0.6698 -0.1011  2.8212
16519TIP3    H270973   5.926   4.333  11.429  0.9447  1.6662  0.1271
16520TIP3   OH270974   2.199   6.453  13.792  0.3358  0.4649 -0.8014
16520TIP3    H170975   2.291   6.454  13.764  1.1624 -0.6480  1.7305
16520TIP3    H270976   2.171   6.363  13.778  0.1477  0.3981 -0.0051
16521TIP3   OH270977   0.660   1.296  12.086 -0.2889 -0.3359 -0.2126
16521TIP3    H170978   0.698   1.214  12.055 -0.6871 -0.4754 -0.3321
16521TIP3    H270979   0.662   1.353  12.010  2.2973  0.6088  0.5007
16522TIP3   OH270980   4.100   2.104   4.242 -0.1108  0.1042  0.6170
16522TIP3    H170981   4.175   2.046   4.253 -1.1304 -1.3482  0.0869
16522TIP3    H270982   4.088   2.145   4.327 -0.1912 -1.4765  1.3810
16523TIP3   OH270983   6.253   4.936   1.449  0.5578  0.0268  0.7885
16523TIP3    H170984   6.160   4.915   1.451  0.6813 -0.6429 -0.3370
16523TIP3    H270985   6.258   5.019   1.401  0.5355  0.1483  0.9933
16524TIP3   OH270986   0.559   6.156   3.556 -0.5126 -0.1172 -0.8156
16524TIP3    H170987   0.472   6.145   3.518 -0.9561  2.8126 -0.8063
16524TIP3    H270988   0.619   6.137   3.484 -1.1642 -1.3312 -1.0504
16525TIP3   OH270989   4.976   3.933   1.197 -0.1605 -0.0830  0.3495
16525TIP3    H170990   4.996   3.950   1.105 -1.7310 -0.1998 -0.0280
16525TIP3    H270991   4.916   4.003   1.222 -0.0032 -0.2437  1.1809
16526TIP3   OH270992   0.184   5.647   4.522 -0.0722  0.2324 -0.4084
16526TIP3    H170993   0.221   5.725   4.480  1.2204 -0.2122 -0.1453
16526TIP3    H270994   0.258   5.586   4.526 -1.3919 -1.4838 -1.7718
16527TIP3   OH270995   4.941   6.366  14.239  0.4375 -0.1686 -0.2461
16527TIP3    H170996   4.901   6.440  14.194  0.8571 -0.4576 -1.1029
16527TIP3    H270997   5.033   6.389  14.249 -0.1869  1.1534  3.0832
16528TIP3   OH270998   3.374   5.304  12.539 -0.1558 -0.0977 -0.2857
16528TIP3    H170999   3.433   5.368  12.500 -0.1443 -1.3764 -2.4390
16528TIP3    H271000   3.425   5.264  12.609 -0.0421  1.9622  0.8422
16529TIP3   OH271001   0.433   6.152  14.123 -0.3086 -0.0251  0.8322
16529TIP3    H171002   0.497   6.194  14.065  0.2056 -0.2151  1.2609
16529TIP3    H271003   0.408   6.221  14.185  0.8286 -0.4622  1.7780
16530TIP3   OH271004   3.887   3.041   6.060 -0.0730  0.1802 -0.7757
16530TIP3    H171005   3.925   2.956   6.037  1.3525  0.4089  0.6846
16530TIP3    H271006   3.806   3.019   6.106 -0.5870 -0.3440 -1.9037
16531TIP3   OH271007   2.160   1.216   4.961 -0.2840  0.5829  0.1619
16531TIP3    H171008   2.180   1.220   5.055 -1.2774  2.1311  0.3273
16531TIP3    H271009   2.119   1.301   4.942 -0.2456  0.2064 -1.6368
16532TIP3   OH271010   6.275   2.129   1.357  0.2545  0.1429 -0.1723
16532TIP3    H171011   6.363   2.142   1.321  0.3607 -1.6065 -0.6117
16532TIP3    H271012   6.231   2.074   1.292 -1.0413  0.7086  0.2199
16533TIP3   OH271013   6.182   3.082  11.793  0.3725 -0.0813  0.3072
16533TIP3    H171014   6.120   3.043  11.855 -1.5252  0.1625 -1.3942
16533TIP3    H271015   6.187   3.020  11.721 -0.4350  1.4063 -1.0718
16534TIP3   OH271016   6.341   2.078   4.644  0.7493 -0.2115  0.0299
16534TIP3    H171017   6.417   2.033   4.682  1.9517  1.9143  0.2327
16534TIP3    H271018   6.284   2.096   4.719  2.3605  2.5298  0.6562
16535TIP3   OH271019   3.758   2.140   0.336 -0.3484  0.1638  0.0990
16535TIP3    H171020   3.843   2.159   0.296 -1.4358 -1.3291 -3.1347
16535TIP3    H271021   3.776   2.071   0.400  1.1493  1.1529  0.7618
16536TIP3   OH271022   0.263   3.724  10.864  0.0450 -0.0460 -0.1324
16536TIP3    H171023   0.215   3.644  10.885 -1.3491  0.6536 -0.6052
16536TIP3    H271024   0.223   3.756  10.783  2.4259 -0.3252 -1.4437
16537TIP3   OH271025   4.038   5.005  12.242  0.3879  0.9436  0.1213
16537TIP3    H171026   4.095   5.012  12.166 -0.1570  0.4828 -0.3301
16537TIP3    H271027   3.982   5.082  12.238 -0.6271  0.1832 -0.7652
16538TIP3   OH271028   4.213   3.190   1.956 -0.6450 -0.0684 -0.1015
16538TIP3    H171029   4.131   3.171   2.001 -2.4651  1.6991 -2.5168
16538TIP3    H271030   4.186   3.239   1.878  2.7301  0.6614 -0.8692
16539TIP3   OH271031   3.291   0.292  12.654  0.7582  0.3846 -0.6464
16539TIP3    H171032   3.333   0.235  12.589 -0.3543  2.0624 -2.9304
16539TIP3    H271033   3.311   0.381  12.624 -0.1974  1.1842  1.0432
16540TIP3   OH271034   6.164   6.021  10.508  0.4437 -0.6811  0.1605
16540TIP3    H171035   6.228   5.964  10.465  2.0382  0.0418  1.5560
16540TIP3    H271036   6.152   6.093  10.446 -1.0436 -2.1336 -1.2925
16541TIP3   OH271037   4.218   0.249  11.092 -0.2930 -0.3516 -0.3254
16541TIP3    H171038   4.314   0.255  11.086 -0.3445 -1.1374 -2.6021
16541TIP3    H271039   4.187   0.304  11.020 -1.5966  0.7909  1.0826
16542TIP3   OH271040   0.787   0.844   0.105 -0.1369  0.1931 -0.2361
16542TIP3    H171041   0.808   0.905   0.176  1.7610  1.4081 -1.7957
16542TIP3    H271042   0.857   0.778   0.110 -1.6436 -1.3609  0.8391
16543TIP3   OH271043   6.733   0.787  14.902 -0.1050  0.5558 -0.2678
16543TIP3    H171044   6.675   0.786  14.826 -0.2696 -0.8339 -0.1391
16543TIP3    H271045   6.821   0.787  14.866 -0.1766  0.9088 -0.4494
16544TIP3   OH271046   3.542   2.757   6.467 -0.6804 -0.4625  0.4166
16544TIP3    H171047   3.486   2.734   6.541 -0.6517 -0.4000  0.4587
16544TIP3    H271048   3.501   2.836   6.430  0.4237  0.6997  1.6079
16545TIP3   OH271049   4.278   3.079   6.060  0.2876  0.4479  0.0831
16545TIP3    H171050   4.213   3.118   6.001 -0.5924 -0.2290  0.5921
16545TIP3    H271051   4.286   3.142   6.131 -1.2456 -0.3480  0.9806
16546TIP3   OH271052   5.652   3.309   0.168  0.3652 -0.1056  0.0138
16546TIP3    H171053   5.624   3.256   0.242  1.5907  1.2297  1.4803
16546TIP3    H271054   5.572   3.326   0.118 -0.4264 -1.2145  0.8981
16547TIP3   OH271055   0.714   4.984  17.222 -0.2134 -0.3754 -0.1984
16547TIP3    H171056   0.778   5.048  17.252 -0.4236 -0.5419  0.6264
16547TIP3    H271057   0.747   4.954  17.137 -0.9943  2.0600 -1.3944
16548TIP3   OH271058   0.521   1.076   4.373  0.1182 -0.0145 -0.1874
16548TIP3    H171059   0.455   1.110   4.433 -0.7835 -1.8731 -0.0945
16548TIP3    H271060   0.477   1.070   4.289  0.7966  0.7378 -0.5965
16549TIP3   OH271061   3.119   2.308  16.325 -0.0452  0.1841 -0.0959
16549TIP3    H171062   3.176   2.377  16.289  0.7676  0.5030  1.7261
16549TIP3    H271063   3.031   2.345  16.320 -0.1543 -0.3436 -3.0241
16550TIP3   OH271064   4.035   1.177   4.196  0.1087  0.1654  0.1405
16550TIP3    H171065   3.989   1.187   4.112  1.5347 -1.2434 -0.8532
16550TIP3    H271066   3.985   1.111   4.244 -0.2064  0.3133  0.0120
16551TIP3   OH271067   5.408   1.092  14.915  0.0485  0.3911 -0.6487
16551TIP3    H171068   5.431   1.001  14.897 -0.2688  0.3643 -0.9198
16551TIP3    H271069   5.326   1.087  14.963  0.3659  0.5069 -0.0946
16552TIP3   OH271070   1.606   5.520  15.299  0.1138  0.3980 -0.7628
16552TIP3    H171071   1.667   5.592  15.316 -1.1593  0.9797  1.4800
16552TIP3    H271072   1.520   5.560  15.301 -0.5183 -0.9031 -1.2805
16553TIP3   OH271073   2.450   0.674   6.676  0.4124 -0.5079 -0.1959
16553TIP3    H171074   2.511   0.728   6.625  3.2257 -2.7646  0.6585
16553TIP3    H271075   2.441   0.721   6.758  0.9585 -0.1180 -0.3507
16554TIP3   OH271076   4.605   6.067  12.004 -0.1592  0.3838 -0.7046
16554TIP3    H171077   4.632   5.977  12.018 -0.6372  0.3043 -0.2717
16554TIP3    H271078   4.678   6.107  11.958  0.7924  0.2233  0.6232
16555TIP3   OH271079   0.372   6.778  15.938 -0.0223  0.2015  0.2787
16555TIP3    H171080   0.379   6.818  16.025 -0.0857  0.7617  0.0300
16555TIP3    H271081   0.335   6.691  15.954 -1.2467  0.7893  0.6892
16556TIP3   OH271082   3.037   0.050   3.895  0.0124 -0.2938  0.1111
16556TIP3    H171083   2.991  -0.030   3.920  1.4436 -1.1422  0.0761
16556TIP3    H271084   3.020   0.111   3.967 -0.3716 -0.9149  0.5480
16557TIP3   OH271085   6.599   0.782  10.689 -0.5969 -0.5644 -0.1564
16557TIP3    H171086   6.617   0.874  10.670 -0.2083 -0.6036  0.0183
16557TIP3    H271087   6.586   0.742  10.604  2.1152 -0.9512 -0.4107
16558TIP3   OH271088   1.890   1.522   5.389  0.6131 -0.3216  0.2934
16558TIP3    H171089   1.812   1.546   5.339  0.4387  2.0083  1.5715
16558TIP3    H271090   1.901   1.428   5.374 -1.2257 -0.2750 -1.5593
16559TIP3   OH271091   2.089   5.579  12.064  0.0566 -0.0574  0.2976
16559TIP3    H171092   2.139   5.560  11.984 -0.0418  0.3991  0.1316
16559TIP3    H271093   2.037   5.656  12.043 -0.4412 -0.3086  0.5988
16560TIP3   OH271094   2.721   0.233   5.907  0.0277  0.8099  0.3583
16560TIP3    H171095   2.801   0.232   5.959 -1.1033  0.8668  2.1521
16560TIP3    H271096   2.748   0.262   5.820  2.3006 -1.2671  0.3363
16561TIP3   OH271097   4.028   2.562   0.661 -0.0450  0.0853  0.5367
16561TIP3    H171098   4.121   2.564   0.684 -0.0189  0.8813  0.3850
16561TIP3    H271099   4.025   2.515   0.578  0.3583  1.0725 -0.0487
16562TIP3   OH271100   5.883   0.402  10.677 -0.1887 -0.0845  0.7991
16562TIP3    H171101   5.918   0.413  10.589 -0.1775  0.1980  0.8377
16562TIP3    H271102   5.911   0.480  10.724 -0.5228 -0.0544  0.9455
16563TIP3   OH271103   1.738   5.634   1.164  0.0462  0.2848 -0.4470
16563TIP3    H171104   1.782   5.668   1.242  2.8922 -1.0347 -1.4289
16563TIP3    H271105   1.727   5.541   1.181 -1.5841  0.4412 -0.5946
16564TIP3   OH271106   0.562   0.780  12.579  0.0435  0.5765 -0.5307
16564TIP3    H171107   0.489   0.756  12.522 -0.1866  0.7162 -0.3010
16564TIP3    H271108   0.534   0.863  12.619 -0.1091  0.1280  0.3119
16565TIP3   OH271109   2.216   0.962   4.725 -0.4466  0.0504 -0.0989
16565TIP3    H171110   2.136   1.016   4.725  0.2206  1.0521 -0.7348
16565TIP3    H271111   2.222   0.929   4.635 -0.2674 -0.2134  0.0101
16566TIP3   OH271112   3.684   6.586   5.441 -0.0379 -0.3102 -0.5029
16566TIP3    H171113   3.648   6.549   5.522 -0.0913  0.4588 -0.1700
16566TIP3    H271114   3.741   6.518   5.406 -0.1548 -0.7125  0.0918
16567TIP3   OH271115   2.889   0.041  13.319 -0.1900  0.0743  0.2849
16567TIP3    H171116   2.876   0.131  13.288 -0.2060 -0.0477 -0.0558
16567TIP3    H271117   2.960   0.007  13.265  2.4054  1.1095  2.9088
16568TIP3   OH271118   2.494   4.334  16.683  0.2428  0.3303  0.0613
16568TIP3    H171119   2.586   4.328  16.710 -0.2753 -1.2887  1.5059
16568TIP3    H271120   2.482   4.427  16.662  1.9952  0.7036  0.6111
16569TIP3   OH271121   0.706   3.198   2.680  0.0516  0.4042  0.6443
16569TIP3    H171122   0.750   3.171   2.760  1.3694  0.1295 -0.1641
16569TIP3    H271123   0.630   3.139   2.674 -0.8104  1.3191  2.3767
16570TIP3   OH271124   2.121   1.664  11.681  0.0358 -0.0277  0.0145
16570TIP3    H171125   2.148   1.651  11.772  0.3767 -2.1305 -0.3639
16570TIP3    H271126   2.151   1.753  11.660 -1.2680  1.0177  2.3543
16571TIP3   OH271127   4.339   5.052   0.634 -0.4321  0.0805 -0.1302
16571TIP3    H171128   4.433   5.054   0.654 -0.0242  1.8368 -2.0201
16571TIP3    H271129   4.297   5.083   0.714  0.7499  1.1880  0.0857
16572TIP3   OH271130   2.018   4.955  10.962 -0.7573 -0.0158  0.3978
16572TIP3    H171131   2.046   4.897  10.891 -2.4233 -0.3361 -0.0010
16572TIP3    H271132   1.946   5.006  10.925  1.3348  3.0924  0.3907
16573TIP3   OH271133   5.827   3.428  16.322  0.4766 -0.2149  0.6044
16573TIP3    H171134   5.882   3.349  16.322 -0.3449 -0.7902  0.0199
16573TIP3    H271135   5.761   3.411  16.389  1.0571  0.5200  1.3758
16574TIP3   OH271136   1.408   5.774   4.498  0.1133 -0.2421 -0.1922
16574TIP3    H171137   1.406   5.786   4.403 -1.6540 -0.3619 -0.1952
16574TIP3    H271138   1.468   5.701   4.512  1.3859  0.5970 -1.1013
16575TIP3   OH271139   4.930   5.438   6.520 -0.3680 -0.2952 -0.4010
16575TIP3    H171140   4.874   5.399   6.453  0.4270 -0.7662 -0.7966
16575TIP3    H271141   4.918   5.383   6.597  0.9173 -1.4704 -1.0224
16576TIP3   OH271142   3.468   6.151  14.824  0.2741 -0.3079  0.1719
16576TIP3    H171143   3.392   6.177  14.771 -0.8479 -0.4432  1.6998
16576TIP3    H271144   3.524   6.228  14.824 -1.4906  1.0353  1.9022
16577TIP3   OH271145   6.419   1.162   1.422 -0.6974 -0.4570  0.6959
16577TIP3    H171146   6.356   1.179   1.492 -1.0141 -2.8176  1.0174
16577TIP3    H271147   6.456   1.076   1.443  3.1443  1.1133  0.9061
16578TIP3   OH271148   4.295   1.826  11.164  0.0480 -0.4328  0.1835
16578TIP3    H171149   4.233   1.871  11.222  0.9351  1.2072 -0.1263
16578TIP3    H271150   4.308   1.886  11.091  2.7527 -0.3258  0.7246
16579TIP3   OH271151   0.635   3.424  14.563  0.4624 -0.0739  0.0819
16579TIP3    H171152   0.622   3.330  14.571  0.4144 -0.0272  0.5958
16579TIP3    H271153   0.602   3.446  14.476 -0.6399 -0.3473  0.4200
16580TIP3   OH271154   4.900   3.205   6.595  0.6469 -0.5841  0.3651
16580TIP3    H171155   4.981   3.159   6.614  0.5553 -0.9133 -0.0408
16580TIP3    H271156   4.874   3.174   6.508 -0.5811 -1.4305  1.0143
16581TIP3   OH271157   0.354   1.203   4.542  0.6129  0.2176  0.6061
16581TIP3    H171158   0.304   1.224   4.622 -1.4893 -0.4624 -0.4889
16581TIP3    H271159   0.323   1.267   4.478  1.3098 -0.0980 -0.0429
16582TIP3   OH271160   5.640   4.351  12.103 -0.2390  0.1175  0.0277
16582TIP3    H171161   5.620   4.434  12.060  0.6781 -0.2491 -1.1463
16582TIP3    H271162   5.704   4.373  12.171 -0.9006  0.5455  0.5158
16583TIP3   OH271163   6.743   3.763   1.496  0.5558 -0.3896 -0.1368
16583TIP3    H171164   6.738   3.802   1.584  1.5918 -0.8447  0.1314
16583TIP3    H271165   6.834   3.734   1.488  0.1230 -1.5894 -0.8327
16584TIP3   OH271166   3.917   2.564   4.389  0.2940 -0.0005 -0.0505
16584TIP3    H171167   3.921   2.487   4.447 -1.6306 -0.1978 -0.1646
16584TIP3    H271168   3.825   2.590   4.389  0.6049  1.1750 -1.5089
16585TIP3   OH271169   4.251   3.162  16.402 -0.0312 -0.7693  0.3501
16585TIP3    H171170   4.184   3.094  16.403  0.3056 -1.1702 -1.6871
16585TIP3    H271171   4.314   3.133  16.336  0.1616  1.4514 -0.4936
16586TIP3   OH271172   4.033   0.848   2.810  0.3389 -0.5036 -0.3584
16586TIP3    H171173   3.942   0.827   2.790  0.4487 -0.5778 -0.7844
16586TIP3    H271174   4.031   0.882   2.900 -0.0314 -0.9938 -0.1835
16587TIP3   OH271175   1.348   3.366  12.486 -0.5074 -0.0769 -0.2650
16587TIP3    H171176   1.335   3.272  12.497  0.3548 -0.4001 -1.8621
16587TIP3    H271177   1.310   3.385  12.400  1.1343  0.6512 -0.8547
16588TIP3   OH271178   3.835   5.569  14.255 -0.1779  0.4482 -0.9897
16588TIP3    H171179   3.804   5.629  14.323 -2.5167 -1.3727 -0.4022
16588TIP3    H271180   3.834   5.622  14.175  1.4888  2.2722  0.1319
16589TIP3   OH271181   0.850   4.001   0.846  0.2942  0.1676  0.2610
16589TIP3    H171182   0.860   3.932   0.911 -0.0780  1.3340  1.5885
16589TIP3    H271183   0.841   3.955   0.763 -1.3142 -1.4237  1.2859
16590TIP3   OH271184   3.471   5.032  11.757 -0.1616  0.0083  0.4670
16590TIP3    H171185   3.430   5.066  11.837  0.1959  0.6021  0.4011
16590TIP3    H271186   3.565   5.040  11.772 -0.0933  0.4591 -0.1499
16591TIP3   OH271187   5.279   6.260  14.472  0.0510  0.4734 -0.0749
16591TIP3    H171188   5.199   6.308  14.492 -0.5962  0.0584 -1.6054
16591TIP3    H271189   5.346   6.328  14.464 -0.3052  0.8904  0.4123
16592TIP3   OH271190   3.389   5.845   5.904 -0.2114 -0.1168 -0.3340
16592TIP3    H171191   3.420   5.925   5.862 -2.3882  1.2755  0.6466
16592TIP3    H271192   3.429   5.846   5.991 -0.6644  0.1714 -0.1304
16593TIP3   OH271193   6.194   1.323  14.901 -0.1664  0.1690 -0.3727
16593TIP3    H171194   6.113   1.363  14.934 -0.7612 -1.5024  0.2255
16593TIP3    H271195   6.164   1.248  14.849  1.0677 -1.4136  1.1756
16594TIP3   OH271196   5.216   6.289   2.886 -0.3353 -0.3218  0.2411
16594TIP3    H171197   5.267   6.233   2.946  3.4254  1.3913 -1.2301
16594TIP3    H271198   5.254   6.273   2.800 -1.9609  1.4586 -0.8502
16595TIP3   OH271199   5.881   6.001  16.093  0.0631  0.4755  0.9274
16595TIP3    H171200   5.953   5.975  16.035  0.8253  0.8018  1.7194
16595TIP3    H271201   5.898   5.954  16.174 -1.3289 -0.4339  0.7055
16596TIP3   OH271202   5.321   2.349   4.502 -0.3619 -0.0804  0.0339
16596TIP3    H171203   5.285   2.410   4.439  1.6071  1.7247  0.5878
16596TIP3    H271204   5.251   2.334   4.565 -1.5940 -0.1758 -1.3513
16597TIP3   OH271205   5.341   2.485   1.302 -0.6294 -0.4123  0.5194
16597TIP3    H171206   5.290   2.482   1.222  0.0417  1.4146  0.0031
16597TIP3    H271207   5.430   2.462   1.275 -0.5871 -0.7320  0.9166
16598TIP3   OH271208   6.604   1.774  10.857  0.1484  0.6762  0.2598
16598TIP3    H171209   6.697   1.795  10.843 -0.0939  0.4845 -1.9545
16598TIP3    H271210   6.558   1.853  10.829 -0.4118  0.2267 -0.0829
16599TIP3   OH271211   5.422   4.600   2.005  0.1279 -0.1788 -0.2590
16599TIP3    H171212   5.385   4.590   1.917  2.1337 -0.2991 -1.1309
16599TIP3    H271213   5.483   4.673   1.997 -1.6446  1.5861  1.7386
16600TIP3   OH271214   0.968   4.476  12.781 -0.7267 -0.3484  0.2232
16600TIP3    H171215   0.873   4.467  12.774 -0.4884 -1.8162 -1.3933
16600TIP3    H271216   1.003   4.408  12.724  1.3056  0.5289  0.3785
16601TIP3   OH271217   2.197   5.148  13.070 -0.0405 -0.9723 -0.0550
16601TIP3    H171218   2.166   5.109  13.151  2.0636 -2.1837  0.2097
16601TIP3    H271219   2.255   5.218  13.098 -0.4910 -0.4097 -0.5249
16602TIP3   OH271220   0.185   6.456  12.035  0.1351  0.0766  0.1590
16602TIP3    H171221   0.259   6.420  11.986 -0.8564  1.4328 -2.4096
16602TIP3    H271222   0.112   6.398  12.014 -0.0090 -0.1098  1.1353
16603TIP3   OH271223   3.011   2.315  12.167  0.4587  0.4740 -0.6536
16603TIP3    H171224   2.929   2.268  12.180  0.5409  0.3114 -0.7271
16603TIP3    H271225   3.008   2.386  12.231  0.6059  0.0150 -0.1409
16604TIP3   OH271226   3.349   0.636   4.186 -0.5590 -0.3945 -0.3554
16604TIP3    H171227   3.334   0.543   4.201  1.1486 -0.6220 -0.0006
16604TIP3    H271228   3.425   0.657   4.239 -0.4412  1.0226 -1.0678
16605TIP3   OH271229   4.764   5.565   5.356  0.3146 -0.4027  0.3441
16605TIP3    H171230   4.703   5.547   5.285  0.8871  1.3554 -0.6363
16605TIP3    H271231   4.847   5.529   5.325  0.6334  0.6326 -0.0382
16606TIP3   OH271232   3.927   2.332  15.810  0.8163  0.1681  0.4378
16606TIP3    H171233   3.858   2.307  15.750  0.0102 -1.6058  2.0280
16606TIP3    H271234   3.891   2.404  15.861  0.3485 -0.3551  0.8538
16607TIP3   OH271235   0.493   4.584  11.551 -0.2425 -0.2334 -0.0871
16607TIP3    H171236   0.475   4.582  11.645 -0.2452 -2.7685 -0.1082
16607TIP3    H271237   0.588   4.591  11.545 -0.0827 -1.9264  0.1499
16608TIP3   OH271238   1.321   4.499  12.276 -0.5743 -0.3833  0.4200
16608TIP3    H171239   1.342   4.578  12.226  2.1429  0.7922  3.1497
16608TIP3    H271240   1.250   4.526  12.335 -2.6366 -1.2885 -1.5906
16609TIP3   OH271241   5.240   4.857   0.285  0.6537 -0.4079  0.3142
16609TIP3    H171242   5.314   4.796   0.292  0.6553 -0.2885  1.4657
16609TIP3    H271243   5.171   4.816   0.337  0.0493 -0.3028 -0.4037
16610TIP3   OH271244   2.154   0.674   4.869  0.6166 -0.2469  0.3101
16610TIP3    H171245   2.157   0.769   4.867 -3.3108 -0.0794 -2.1672
16610TIP3    H271246   2.196   0.647   4.786 -0.8413 -0.5360 -0.3419
16611TIP3   OH271247   4.691   5.054  13.254 -0.1571  0.2826 -0.0447
16611TIP3    H171248   4.769   4.999  13.257 -0.6133 -0.5059 -1.6718
16611TIP3    H271249   4.657   5.052  13.343  1.1812 -0.1097  0.4629
16612TIP3   OH271250   6.170   3.574   2.114 -0.8816  0.0079  0.0472
16612TIP3    H171251   6.249   3.618   2.145 -1.0939  0.6743 -0.3436
16612TIP3    H271252   6.132   3.534   2.192 -0.3059 -0.0819  0.2822
16613TIP3   OH271253   6.094   4.537  15.707  0.4834 -0.6137  0.5440
16613TIP3    H171254   6.037   4.584  15.768 -0.4411 -0.7952 -0.1694
16613TIP3    H271255   6.157   4.603  15.678 -1.1377  0.3749 -0.8746
16614TIP3   OH271256   3.858   1.595  15.019  0.3905 -0.0432  0.7212
16614TIP3    H171257   3.914   1.611  15.096 -3.2189  3.1266  2.8570
16614TIP3    H271258   3.772   1.574  15.055 -1.3599  1.3347 -2.4266
16615TIP3   OH271259   1.556   2.359   0.293  0.4612 -0.1478  0.2494
16615TIP3    H171260   1.585   2.437   0.342 -0.1551  0.6246 -0.5934
16615TIP3    H271261   1.580   2.378   0.203  0.6111 -1.1000  0.0874
16616TIP3   OH271262   1.023   3.057   4.089  0.6876 -0.3329 -0.1028
16616TIP3    H171263   1.079   2.982   4.110  0.4467 -0.4465  0.1382
16616TIP3    H271264   1.036   3.071   3.995  3.7401  1.7993  0.5733
16617TIP3   OH271265   4.517   2.112  13.259  0.3274  0.1770  0.2893
16617TIP3    H171266   4.490   2.202  13.242  0.3021 -0.2922 -2.5425
16617TIP3    H271267   4.439   2.059  13.240  0.7944 -0.5442  0.3422
16618TIP3   OH271268   1.603   4.390   3.735  0.0801 -0.9220  0.0123
16618TIP3    H171269   1.631   4.415   3.647  2.7086  0.6419  1.2140
16618TIP3    H271270   1.646   4.306   3.751 -1.0501 -1.5979 -0.4941
16619TIP3   OH271271   3.626   1.342  12.251  0.0872 -0.0939  0.0369
16619TIP3    H171272   3.549   1.399  12.245  1.1633  1.3352 -0.6602
16619TIP3    H271273   3.657   1.334  12.160  1.4073  0.2694  0.4431
16620TIP3   OH271274   6.109   6.636   2.046 -0.1091  0.1906  0.5154
16620TIP3    H171275   6.089   6.604   2.134  0.2657  1.6944  1.1606
16620TIP3    H271276   6.098   6.731   2.052  1.3820  0.4560 -0.6590
16621TIP3   OH271277   3.615   2.107  12.061  0.3098  0.4002  0.1373
16621TIP3    H171278   3.625   2.012  12.067  0.1861  0.5205  2.6129
16621TIP3    H271279   3.540   2.128  12.116  0.5352  1.9768 -0.1120
16622TIP3   OH271280   0.751   3.675   3.447 -0.1428  0.0061 -0.3087
16622TIP3    H171281   0.679   3.738   3.440 -1.5368 -1.3576  1.4868
16622TIP3    H271282   0.828   3.728   3.469 -1.3084  1.0723  1.2108
16623TIP3   OH271283   4.427   0.847  16.672  0.1036  0.0400 -0.3896
16623TIP3    H171284   4.423   0.867  16.578 -0.0493 -3.1973 -1.1224
16623TIP3    H271285   4.520   0.849  16.693  0.2249 -0.3052 -0.8726
16624TIP3   OH271286   6.760   0.125   3.019  0.8422  0.0467 -0.0232
16624TIP3    H171287   6.824   0.161   3.081  0.0019 -0.2567  1.0285
16624TIP3    H271288   6.676   0.158   3.049 -0.0223 -3.0625  1.2046
16625TIP3   OH271289   0.711   6.737   3.152  0.0015 -0.2951 -0.2061
16625TIP3    H171290   0.736   6.823   3.185  1.1829 -0.9304  0.6080
16625TIP3    H271291   0.736   6.676   3.222 -1.3848 -1.2381 -0.5048
16626TIP3   OH271292   3.891   3.998  16.730  0.4074 -0.0284  0.2153
16626TIP3    H171293   3.927   3.931  16.788  2.5339 -0.1330 -1.2046
16626TIP3    H271294   3.807   4.021  16.771  0.1237 -2.7581  1.2942
16627TIP3   OH271295   0.352   0.315  11.745  0.2356 -0.1210 -0.2473
16627TIP3    H171296   0.398   0.274  11.818  0.2228 -1.5659 -1.0320
16627TIP3    H271297   0.267   0.271  11.742 -0.0719  0.4855 -0.6389
16628TIP3   OH271298   4.939   3.480  15.528  0.0249 -0.1451 -0.4067
16628TIP3    H171299   4.950   3.386  15.543 -0.8984  0.0538  1.7472
16628TIP3    H271300   4.981   3.521  15.604 -1.1818  1.1023 -0.3946
16629TIP3   OH271301   6.130   5.131   5.402 -0.1395 -0.4510  0.2029
16629TIP3    H171302   6.105   5.222   5.418  1.2663  0.4193 -2.1997
16629TIP3    H271303   6.079   5.106   5.324  0.0169 -1.4821  0.4248
16630TIP3   OH271304   5.153   1.535  16.628 -0.0563  1.2317 -0.4875
16630TIP3    H171305   5.217   1.567  16.564  0.0875 -0.1505 -1.0549
16630TIP3    H271306   5.199   1.539  16.712  1.3717 -1.3275 -1.1140
16631TIP3   OH271307   3.858   4.370   5.627  0.2428  0.0159  0.5766
16631TIP3    H171308   3.864   4.359   5.532  1.0920 -0.1094  0.6343
16631TIP3    H271309   3.768   4.399   5.643  0.0277 -0.2012 -0.2394
16632TIP3   OH271310   1.922   5.920   3.788  0.7001 -0.0115 -0.3056
16632TIP3    H171311   1.847   5.944   3.843  0.7871  1.1163 -0.6666
16632TIP3    H271312   1.920   5.824   3.786  0.3835 -0.0528  1.2129
16633TIP3   OH271313   6.529   1.369   4.884 -0.2979  0.1380 -0.0225
16633TIP3    H171314   6.478   1.335   4.957 -0.3721 -2.3008 -1.1529
16633TIP3    H271315   6.464   1.401   4.822 -0.2951  0.7958  0.3141
16634TIP3   OH271316   6.209   2.955   0.291  0.0386 -0.5800  0.0518
16634TIP3    H171317   6.240   2.986   0.377  1.3122 -1.4673 -0.0752
16634TIP3    H271318   6.268   2.996   0.228 -1.2009  0.4591 -0.4531
16635TIP3   OH271319   5.235   6.271   4.958  0.2540  0.1309 -0.2835
16635TIP3    H171320   5.235   6.258   5.053  0.4758  0.1292 -0.2827
16635TIP3    H271321   5.200   6.359   4.946  0.3496  0.1819 -0.1921
16636TIP3   OH271322   4.620   5.618  15.937 -0.1312  0.4222  0.6515
16636TIP3    H171323   4.621   5.622  15.842  0.1122  0.5362  0.6587
16636TIP3    H271324   4.533   5.651  15.961 -0.3348  0.0285  0.4536
16637TIP3   OH271325   2.408   5.393  11.760 -0.5114  0.2400  0.4517
16637TIP3    H171326   2.474   5.457  11.733 -1.0647  0.7656  0.3430
16637TIP3    H271327   2.341   5.444  11.805 -0.9069 -0.2764  0.4575
16638TIP3   OH271328   1.893   3.416  13.935 -0.3939  0.1348  0.0731
16638TIP3    H171329   1.877   3.509  13.920  1.0676  0.5884  1.2174
16638TIP3    H271330   1.834   3.371  13.875  0.5828  1.8113 -2.1834
16639TIP3   OH271331   2.962   2.279  13.325 -0.4219 -0.5047  0.8199
16639TIP3    H171332   2.912   2.273  13.244 -1.0200  0.4914  1.1057
16639TIP3    H271333   2.912   2.340  13.379  1.7325  1.4594  0.6634
16640TIP3   OH271334   3.551   1.201  11.643 -0.3825  0.2130 -0.6723
16640TIP3    H171335   3.584   1.184  11.554 -1.0130 -0.4691 -0.7756
16640TIP3    H271336   3.498   1.124  11.664  0.7049 -0.1419  0.7592
16641TIP3   OH271337   3.287   1.282   1.562 -0.3119  0.2593 -0.4171
16641TIP3    H171338   3.253   1.193   1.565  1.1370 -0.2792  0.3229
16641TIP3    H271339   3.215   1.337   1.594 -0.7297 -0.7738  0.4236
16642TIP3   OH271340   2.603   1.830   5.548  0.1042  0.3485 -0.0862
16642TIP3    H171341   2.606   1.849   5.642 -3.3644 -1.3277  0.4428
16642TIP3    H271342   2.559   1.907   5.510  0.5343  0.5373 -0.2088
16643TIP3   OH271343   2.049   1.405  11.937  0.2325 -0.9605  0.1445
16643TIP3    H171344   2.033   1.367  12.024  0.1727 -0.6737  0.2621
16643TIP3    H271345   2.144   1.400  11.926  0.4417  0.5849  0.9807
16644TIP3   OH271346   2.682   1.998  16.902  0.5655  0.2546  0.5145
16644TIP3    H171347   2.769   1.972  16.870  0.7679 -0.8751  1.9098
16644TIP3    H271348   2.650   1.921  16.948 -1.0073  0.8194  0.4020
16645TIP3   OH271349   3.319   5.762  16.008 -0.2210  0.7384 -0.3059
16645TIP3    H171350   3.406   5.777  15.970 -0.1138  0.3510 -0.2079
16645TIP3    H271351   3.294   5.675  15.978  0.5025 -0.2104  1.7268
16646TIP3   OH271352   4.215   2.932  16.261  0.1790  0.1231  0.6374
16646TIP3    H171353   4.187   2.849  16.223 -0.0798  0.8002 -0.7036
16646TIP3    H271354   4.311   2.927  16.261  0.2946  1.0837 -2.4679
16647TIP3   OH271355   3.992   6.174  16.968 -0.0951  0.5047  0.0357
16647TIP3    H171356   4.049   6.125  16.909 -0.9128  0.1564 -0.4662
16647TIP3    H271357   3.905   6.167  16.930 -0.4764  1.0797  0.7719
16648TIP3   OH271358   3.919   3.943   5.334  0.2603 -0.4776 -0.0542
16648TIP3    H171359   3.956   3.974   5.417 -1.1226 -0.6285  0.6222
16648TIP3    H271360   3.927   3.848   5.338 -0.3481 -0.5168  0.1518
16649TIP3   OH271361   4.292   1.614   2.291 -0.5019 -0.4722 -0.4622
16649TIP3    H171362   4.318   1.698   2.327 -1.7043 -0.6420  0.8481
16649TIP3    H271363   4.277   1.559   2.368 -0.1515 -1.7579 -1.2972
16650TIP3   OH271364   2.071   0.346   2.228  0.0324 -0.4443 -0.2161
16650TIP3    H171365   2.150   0.390   2.261  0.5377 -1.3433 -0.2018
16650TIP3    H271366   2.027   0.313   2.307 -1.3175  1.6218 -0.0800
16651TIP3   OH271367   0.897   3.541  11.819  1.1973 -0.3078 -0.5588
16651TIP3    H171368   0.963   3.490  11.772  2.6419  0.4873  0.5708
16651TIP3    H271369   0.873   3.611  11.758  0.5303 -1.2711 -1.4173
16652TIP3   OH271370   3.403   5.909   0.018 -0.0536 -0.2407 -0.1668
16652TIP3    H171371   3.366   5.998   0.020 -1.2308 -0.7446  1.5958
16652TIP3    H271372   3.399   5.880   0.109  1.2323 -1.7511 -0.5796
16653TIP3   OH271373   2.127   3.211   4.361  0.0296  0.1235  0.1266
16653TIP3    H171374   2.089   3.129   4.329 -0.6458  1.0781 -1.6044
16653TIP3    H271375   2.148   3.194   4.453 -1.6732 -1.4512  0.2577
16654TIP3   OH271376   6.630   4.473  16.695 -0.5979 -0.3386 -0.0270
16654TIP3    H171377   6.570   4.406  16.663 -0.9819  0.6883 -1.4703
16654TIP3    H271378   6.602   4.490  16.785  0.0557 -2.7317  0.6573
16655TIP3   OH271379   5.210   0.045   6.396 -0.0669 -0.2194 -0.4661
16655TIP3    H171380   5.171   0.133   6.400 -0.2524 -0.2255 -1.7229
16655TIP3    H271381   5.162   0.001   6.326  0.5366 -1.0633 -0.3544
16656TIP3   OH271382   0.007   2.083  13.107 -0.1030  0.2779  0.4897
16656TIP3    H171383   0.090   2.041  13.131 -0.8276 -1.5800 -0.1680
16656TIP3    H271384  -0.059   2.036  13.158 -1.0409 -0.0490 -0.9950
16657TIP3   OH271385   4.250   6.579  12.126  0.3323  0.0120 -0.3097
16657TIP3    H171386   4.279   6.658  12.172 -1.4424  1.4974 -1.6439
16657TIP3    H271387   4.225   6.519  12.196  2.6006  0.2496  0.7485
16658TIP3   OH271388   2.047   4.287  12.885  0.3144  0.2663 -0.0837
16658TIP3    H171389   2.026   4.343  12.960  1.9864  0.7231  0.0611
16658TIP3    H271390   2.078   4.205  12.924  0.7437  0.3349 -0.2782
16659TIP3   OH271391   3.489   4.062  12.913  0.3636  0.2056  0.4893
16659TIP3    H171392   3.473   3.992  12.976 -3.7903  0.4883 -0.1105
16659TIP3    H271393   3.408   4.114  12.913  2.3565  3.4964 -1.0028
16660TIP3   OH271394   1.880   2.478   0.739  0.5042  0.2139  0.2853
16660TIP3    H171395   1.792   2.477   0.701  0.6013 -3.0391 -0.0625
16660TIP3    H271396   1.865   2.470   0.834  0.4215 -0.7327  0.1959
16661TIP3   OH271397   1.187   2.695   6.221 -0.8610  0.2838 -0.0321
16661TIP3    H171398   1.104   2.710   6.266 -0.6861  0.2522  0.2955
16661TIP3    H271399   1.237   2.639   6.280 -0.1626  1.2280  0.2690
16662TIP3   OH271400   0.319   0.514   0.477  0.4915 -0.5481 -0.4265
16662TIP3    H171401   0.335   0.576   0.548 -0.2536 -1.5571  0.6453
16662TIP3    H271402   0.383   0.444   0.492 -0.1939 -1.1481 -0.2748
16663TIP3   OH271403   1.379   4.997  13.220 -0.3887  0.2389  0.5837
16663TIP3    H171404   1.467   5.024  13.247 -0.1940  0.8194 -0.6188
16663TIP3    H271405   1.374   5.020  13.127 -0.7307 -2.5715 -0.1483
16664TIP3   OH271406   1.623   1.140   3.955  0.0290 -0.2845 -0.4149
16664TIP3    H171407   1.594   1.049   3.958  1.4855 -0.7714 -0.7158
16664TIP3    H271408   1.667   1.148   3.870 -0.7798  0.9259 -0.7383
16665TIP3   OH271409   6.087   3.449   2.367 -0.0997  0.3180  0.2603
16665TIP3    H171410   6.116   3.424   2.454  0.0008  2.0241  0.7384
16665TIP3    H271411   6.108   3.374   2.312  0.4229 -0.5173  1.5859
16666TIP3   OH271412   4.792   0.053   1.343 -0.0137 -0.4577 -0.1556
16666TIP3    H171413   4.705   0.094   1.343 -0.4067 -1.2384  1.3069
16666TIP3    H271414   4.774  -0.041   1.345  0.8372 -0.6063  1.6148
16667TIP3   OH271415   2.830   1.445  12.048 -0.3901 -0.1291  0.2925
16667TIP3    H171416   2.912   1.494  12.057 -0.9491  1.2712 -2.0167
16667TIP3    H271417   2.858   1.353  12.042  0.8997  0.1991  1.0816
16668TIP3   OH271418   5.649   4.490   1.553  0.0598 -0.1804 -0.1580
16668TIP3    H171419   5.595   4.432   1.500 -0.1513  2.2882 -2.7343
16668TIP3    H271420   5.739   4.462   1.537  0.0711  1.2044 -2.7125
16669TIP3   OH271421   4.643   3.753   3.290 -0.4363  0.7477 -0.0330
16669TIP3    H171422   4.588   3.831   3.292 -1.6288 -0.0920  0.9120
16669TIP3    H271423   4.582   3.680   3.298  0.6974 -0.2728 -0.4740
16670TIP3   OH271424   3.338   5.021   1.207  0.8680 -0.2795 -0.1793
16670TIP3    H171425   3.416   5.076   1.196  1.5792 -1.4784 -1.1357
16670TIP3    H271426   3.265   5.077   1.181  1.4683  0.6264  0.0714
16671TIP3   OH271427   1.352   4.115   4.852  0.1121  0.0877  0.0304
16671TIP3    H171428   1.316   4.041   4.901 -0.4815 -0.1896 -0.8106
16671TIP3    H271429   1.325   4.192   4.901  0.7817 -0.2462  0.9439
16672TIP3   OH271430   2.260   0.098   4.931  0.5113 -0.2981  0.8585
16672TIP3    H171431   2.300   0.014   4.909 -0.0598 -0.6933  1.3171
16672TIP3    H271432   2.168   0.088   4.908  0.6344  0.5617 -0.0566
16673TIP3   OH271433   0.220   0.276  13.272 -0.2433 -0.1121  0.0299
16673TIP3    H171434   0.238   0.196  13.223 -1.3366  0.0676 -0.6690
16673TIP3    H271435   0.299   0.290  13.325  0.0569 -1.4981 -0.0395
16674TIP3   OH271436   0.317   6.753  12.642 -0.0717  0.2762  0.2204
16674TIP3    H171437   0.338   6.845  12.627 -0.7611  0.0772 -2.1880
16674TIP3    H271438   0.304   6.746  12.737  0.3699  2.5607  0.4697
16675TIP3   OH271439   4.158   1.173  15.232  0.3281 -0.0484 -0.1234
16675TIP3    H171440   4.113   1.175  15.147  1.2236  1.8524 -0.5881
16675TIP3    H271441   4.112   1.238  15.285  1.9753  1.3432 -0.3454
16676TIP3   OH271442   5.351   2.366  14.544  0.1779 -0.1418  0.1212
16676TIP3    H171443   5.411   2.302  14.505  1.8568  1.2899  0.2804
16676TIP3    H271444   5.331   2.426  14.473 -1.3889 -0.8211 -0.0257
16677TIP3   OH271445   3.001   4.529  14.972 -0.4524 -0.0714  0.3129
16677TIP3    H171446   2.927   4.469  14.956  0.4944 -1.3635  0.7019
16677TIP3    H271447   3.074   4.489  14.925 -0.0287  1.3039 -0.2153
16678TIP3   OH271448   3.192   0.591   1.866 -0.3544  0.6370 -0.2984
16678TIP3    H171449   3.277   0.561   1.835  0.1854  0.9121  0.8821
16678TIP3    H271450   3.143   0.511   1.885  1.0947  0.4537  2.8793
16679TIP3   OH271451   0.256   4.345  13.404  0.2005  0.3884 -0.1058
16679TIP3    H171452   0.191   4.276  13.389  1.9456 -1.0419 -1.2057
16679TIP3    H271453   0.298   4.356  13.319 -0.1136  2.8898  0.0331
16680TIP3   OH271454   5.059   3.255  13.406  0.4836  0.3538  0.0866
16680TIP3    H171455   5.033   3.182  13.349  0.8082  0.1688  0.1698
16680TIP3    H271456   5.094   3.212  13.484  0.2288  0.6046  0.3397
16681TIP3   OH271457   1.519   1.783  15.022  0.3269 -0.0767  0.0389
16681TIP3    H171458   1.509   1.701  14.973 -3.1644  0.0666  0.3747
16681TIP3    H271459   1.586   1.764  15.087 -0.0639 -2.5103 -0.2042
16682TIP3   OH271460   3.246   4.507  12.927  0.1722  0.6181  0.0970
16682TIP3    H171461   3.243   4.562  12.849 -1.9774  0.5556  0.1202
16682TIP3    H271462   3.179   4.542  12.985  1.7262  0.6478  1.9309
16683TIP3   OH271463   5.448   1.929  11.795  0.3978 -0.2051 -0.0658
16683TIP3    H171464   5.537   1.959  11.774  0.2698  0.0542 -0.2348
16683TIP3    H271465   5.393   2.006  11.782  0.0777 -0.4947 -0.4350
16684TIP3   OH271466   2.262   1.377   0.626  0.7341  0.0602 -0.2184
16684TIP3    H171467   2.221   1.319   0.562  1.6049 -1.0144  0.1802
16684TIP3    H271468   2.356   1.369   0.609  0.9276  0.3491  0.6952
16685TIP3   OH271469   4.009   3.880   4.789  0.3880  0.2672  0.1081
16685TIP3    H171470   4.104   3.879   4.803  0.4452 -0.5727 -0.3440
16685TIP3    H271471   3.972   3.886   4.878  0.8087 -2.2407  0.4883
16686TIP3   OH271472   2.776   3.170   2.181  0.1806 -0.0219  0.2937
16686TIP3    H171473   2.802   3.159   2.272  1.3353  1.0916  0.1067
16686TIP3    H271474   2.766   3.265   2.170 -0.0820 -0.1602 -0.6964
16687TIP3   OH271475   3.689   1.452   3.839 -0.1926 -0.4204  0.4162
16687TIP3    H171476   3.783   1.469   3.846  0.0471 -1.0311 -1.1542
16687TIP3    H271477   3.674   1.377   3.898  0.4692 -0.9199 -0.0448
16688TIP3   OH271478   4.899   1.875   2.928 -0.3975 -0.0594 -0.0209
16688TIP3    H171479   4.982   1.835   2.903  0.3558  2.1160 -1.1187
16688TIP3    H271480   4.846   1.874   2.849 -0.7123  0.2842  0.1807
16689TIP3   OH271481   6.610   2.317   5.328  0.4110  0.4225  0.2674
16689TIP3    H171482   6.591   2.364   5.246  0.5938 -1.2825 -0.7880
16689TIP3    H271483   6.540   2.252   5.335  1.2360 -0.4426  0.6587
16690TIP3   OH271484   2.081   0.163  13.592 -0.3198  0.4942 -0.4029
16690TIP3    H171485   2.004   0.129  13.546 -0.0084 -0.4699 -0.2256
16690TIP3    H271486   2.132   0.085  13.613  0.1500  1.0326  0.4800
16691TIP3   OH271487   3.259   4.137  11.481 -0.2948 -0.2970  0.4526
16691TIP3    H171488   3.263   4.228  11.508 -0.6754 -0.0950 -0.1634
16691TIP3    H271489   3.293   4.137  11.391 -1.0468 -0.6420  0.1676
16692TIP3   OH271490   0.234   2.714  11.808 -0.0296 -0.2659  0.1521
16692TIP3    H171491   0.321   2.701  11.846  1.1703 -0.6328 -2.5574
16692TIP3    H271492   0.199   2.626  11.797 -0.4413 -0.1567  0.5865
16693TIP3   OH271493   4.878   2.960  12.371  0.0087  0.0650 -0.5787
16693TIP3    H171494   4.821   3.037  12.370 -2.5504 -1.7442 -3.1783
16693TIP3    H271495   4.845   2.907  12.443 -0.5137 -0.2211 -1.0291
16694TIP3   OH271496   5.364   1.614  16.450 -0.6280 -0.0484 -0.0102
16694TIP3    H171497   5.324   1.544  16.399 -0.2305 -1.6825  1.8540
16694TIP3    H271498   5.455   1.618  16.419 -0.9744  0.5040 -0.9809
16695TIP3   OH271499   6.298   2.541   4.351  0.1137 -0.2447  0.4158
16695TIP3    H171500   6.294   2.527   4.445 -0.4443 -0.3128  0.3857
16695TIP3    H271501   6.215   2.584   4.329  0.0988 -0.5226 -0.0909
16696TIP3   OH271502   6.118   2.935  13.294 -0.3372  0.2842 -0.1041
16696TIP3    H171503   6.032   2.969  13.317  0.1963  1.9083 -0.4482
16696TIP3    H271504   6.168   3.012  13.266  0.7600 -0.8438 -1.3320
16697TIP3   OH271505   5.899   0.048  13.238 -0.4695  0.0814 -0.1021
16697TIP3    H171506   5.845   0.122  13.265  0.3830  0.2656  1.1564
16697TIP3    H271507   5.965   0.039  13.307 -1.0071 -2.3246  0.1585
16698TIP3   OH271508   4.097   5.630   5.277 -0.7245 -0.3810 -0.1234
16698TIP3    H171509   4.012   5.632   5.322 -0.5849 -0.9884  0.1619
16698TIP3    H271510   4.159   5.607   5.345 -0.2415  0.6387 -0.2040
16699TIP3   OH271511   0.910   4.628   0.107  0.7485 -0.5635  0.5165
16699TIP3    H171512   0.997   4.660   0.128  0.1408  0.8971  0.8477
16699TIP3    H271513   0.909   4.623   0.011  0.1157  2.5652  0.3233
16700TIP3   OH271514   0.879   4.022   1.946  0.1287 -0.1101  0.2818
16700TIP3    H171515   0.893   4.014   1.852  0.2294 -0.8835  0.3638
16700TIP3    H271516   0.904   4.113   1.966  1.6386 -0.4148 -0.1563
16701TIP3   OH271517   6.061   2.204   5.371  0.3521  0.2877  0.3274
16701TIP3    H171518   6.067   2.292   5.407 -0.6366 -0.2875  1.9305
16701TIP3    H271519   6.046   2.148   5.447  0.0972 -1.1654 -0.7770
16702TIP3   OH271520   1.017   2.808  11.630  0.1675 -0.6044  0.3113
16702TIP3    H171521   1.029   2.715  11.649  1.6064 -0.3605  0.6225
16702TIP3    H271522   1.100   2.837  11.594 -0.1634  0.6390  0.5115
16703TIP3   OH271523   4.412   3.290   2.117 -0.1287 -0.1956 -0.3705
16703TIP3    H171524   4.388   3.200   2.097 -1.1335  0.0308 -0.2055
16703TIP3    H271525   4.402   3.337   2.034  1.4019 -0.4463 -0.6968
16704TIP3   OH271526   5.913   1.126   1.476 -0.5535  0.2030 -0.1597
16704TIP3    H171527   5.997   1.124   1.521 -1.1859  1.0354  1.0963
16704TIP3    H271528   5.887   1.218   1.478 -1.6561 -0.1018 -0.2053
16705TIP3   OH271529   1.422   0.801   5.136  0.4144 -0.3558  0.1900
16705TIP3    H171530   1.353   0.754   5.183  1.1940 -0.8823  0.8295
16705TIP3    H271531   1.385   0.888   5.120 -1.1493 -1.2615 -1.2671
16706TIP3   OH271532   3.094   4.811  12.318  0.0118 -0.7235 -0.0542
16706TIP3    H171533   3.101   4.904  12.339 -1.1036 -0.7755  0.6211
16706TIP3    H271534   3.181   4.776  12.333  0.4633  0.2414 -0.4189
16707TIP3   OH271535   1.163   5.084  13.636 -0.6624 -0.0774  0.5318
16707TIP3    H171536   1.190   5.171  13.609 -1.4227  0.1048  0.3707
16707TIP3    H271537   1.183   5.028  13.561  1.5938 -0.3770  1.3227
16708TIP3   OH271538   3.447   1.294  11.966 -0.5458 -0.5321 -0.5527
16708TIP3    H171539   3.357   1.265  11.981 -0.1479 -1.3623  0.2671
16708TIP3    H271540   3.499   1.213  11.964  0.4774  0.0456  1.1444
16709TIP3   OH271541   2.852   1.147   3.426 -0.3080  0.2639  0.8612
16709TIP3    H171542   2.767   1.137   3.384  0.2389 -1.0398  0.0246
16709TIP3    H271543   2.883   1.233   3.399 -1.3021  0.6906  1.0642
16710TIP3   OH271544   0.355   6.239   0.829 -0.2494 -0.5212  0.1874
16710TIP3    H171545   0.343   6.169   0.765 -1.8785 -0.0155 -0.0749
16710TIP3    H271546   0.410   6.304   0.784 -0.6851 -0.5596 -0.3974
16711TIP3   OH271547   1.706   3.285   1.587  0.2703 -0.2460 -0.1892
16711TIP3    H171548   1.756   3.259   1.510 -0.7416  1.5629 -1.4867
16711TIP3    H271549   1.615   3.266   1.564 -0.1247  1.1561  0.2089
16712TIP3   OH271550   3.500   4.874   5.229  0.3545  0.2534 -0.6323
16712TIP3    H171551   3.527   4.937   5.296 -1.9281  1.7526 -1.0531
16712TIP3    H271552   3.493   4.927   5.149  1.7387 -1.2484 -1.7869
16713TIP3   OH271553   6.166   0.463   5.075  0.4989  0.4073 -0.3526
16713TIP3    H171554   6.188   0.456   4.983 -1.0871 -0.2377 -0.7021
16713TIP3    H271555   6.150   0.556   5.089  0.1213  0.4210 -0.8766
16714TIP3   OH271556   1.068   2.985   0.652  0.0166  0.0583  0.2914
16714TIP3    H171557   1.075   2.955   0.561  1.5935  0.7969  0.1560
16714TIP3    H271558   1.019   2.916   0.696  0.6468 -1.0872 -0.7716
16715TIP3   OH271559   3.929   0.749  17.038  0.3468 -0.1288 -0.6767
16715TIP3    H171560   4.016   0.710  17.035  0.8723  0.4463  3.3374
16715TIP3    H271561   3.872   0.679  17.070  0.0312  0.5037  0.1764
16716TIP3   OH271562   2.643   6.003   4.753 -0.4639 -0.1629  0.0139
16716TIP3    H171563   2.702   6.078   4.766 -0.3074 -0.1537 -0.7087
16716TIP3    H271564   2.636   5.995   4.658 -0.5441 -1.0223  0.0928
16717TIP3   OH271565   0.952   6.776  14.183  0.1009 -0.3525 -0.2368
16717TIP3    H171566   0.894   6.828  14.128 -0.3753 -1.3405 -0.6842
16717TIP3    H271567   0.894   6.710  14.223  0.6932 -0.5477  0.3188
16718TIP3   OH271568   4.116   0.003   5.731 -0.3279 -0.5739  0.0051
16718TIP3    H171569   4.025  -0.024   5.741 -0.9774  0.6222 -2.3709
16718TIP3    H271570   4.133   0.059   5.807 -2.0806  0.4556 -0.3382
16719TIP3   OH271571   5.409   4.142  10.811  0.1831  0.3240  0.2539
16719TIP3    H171572   5.384   4.200  10.883  1.7630  1.0989  0.2011
16719TIP3    H271573   5.504   4.151  10.805  0.4487 -2.2368  0.1965
16720TIP3   OH271574   0.232   0.309   1.778  0.7259  0.1879  0.2464
16720TIP3    H171575   0.236   0.322   1.873  2.2864  1.0279  0.0737
16720TIP3    H271576   0.200   0.219   1.768  0.8642 -0.0211  1.5589
16721TIP3   OH271577   3.360   1.304  12.720  0.5319  0.0476  0.0164
16721TIP3    H171578   3.436   1.312  12.664 -0.6511 -0.8258 -1.7533
16721TIP3    H271579   3.295   1.363  12.681  0.0066  0.1277  0.9882
16722TIP3   OH271580   4.094   2.299   3.864  0.2568  0.0225 -0.1720
16722TIP3    H171581   4.023   2.343   3.912  0.2775  0.4537 -0.5335
16722TIP3    H271582   4.094   2.341   3.778  0.2143 -0.7546 -0.5561
16723TIP3   OH271583   4.275   2.901   5.497  0.1089  0.1141 -0.1268
16723TIP3    H171584   4.278   2.981   5.549 -0.1497  1.1517 -1.6790
16723TIP3    H271585   4.195   2.909   5.445  0.8584 -0.4520 -1.4000
16724TIP3   OH271586   0.624   4.484   3.838 -0.2747 -0.1907  0.2151
16724TIP3    H171587   0.549   4.531   3.802  0.1737  1.3167  1.1821
16724TIP3    H271588   0.633   4.407   3.783 -0.4756  1.3130 -1.9875
16725TIP3   OH271589   3.395   5.156   0.398 -0.0501 -0.5231  0.0930
16725TIP3    H171590   3.306   5.124   0.412 -1.0791  1.2424 -2.0363
16725TIP3    H271591   3.449   5.107   0.460 -2.2289 -2.9302  0.1589
16726TIP3   OH271592   6.773   0.255  14.316 -0.7321  0.3423  0.0279
16726TIP3    H171593   6.731   0.324  14.368  1.6111  1.0069  1.1191
16726TIP3    H271594   6.808   0.301  14.240 -1.4390 -0.1010 -0.5663
16727TIP3   OH271595   1.503   2.241  11.259 -0.0690 -0.6327  0.3703
16727TIP3    H171596   1.581   2.260  11.311  1.0001  3.3759 -2.4041
16727TIP3    H271597   1.430   2.251  11.320  1.4673 -2.7019  2.5895
16728TIP3   OH271598   0.971   4.965  11.717 -0.1437 -0.4065  0.0313
16728TIP3    H171599   0.923   5.016  11.651  1.9203  2.6883  0.8263
16728TIP3    H271600   0.934   4.994  11.800  0.2370 -1.0984  0.4387
16729TIP3   OH271601   0.274   1.452  11.399  0.3966 -0.5640  0.0944
16729TIP3    H171602   0.357   1.451  11.446  0.9542  1.7074 -0.7364
16729TIP3    H271603   0.259   1.361  11.373  1.9755 -1.1984  1.3612
16730TIP3   OH271604   0.231   3.886  15.444 -0.1804  0.4670 -0.1269
16730TIP3    H171605   0.146   3.867  15.483 -0.6153  1.4219 -0.5813
16730TIP3    H271606   0.217   3.967  15.395  1.0210  0.6808 -0.1249
16731TIP3   OH271607   0.052   5.784  16.443  0.2739 -0.2204 -0.2821
16731TIP3    H171608   0.081   5.754  16.530  1.0230  0.4583 -0.2924
16731TIP3    H271609   0.132   5.786  16.391 -0.2410 -0.9941 -1.0995
16732TIP3   OH271610   1.236   4.219   5.649  0.0982  0.1339 -0.6272
16732TIP3    H171611   1.249   4.310   5.674 -1.0183 -0.7814  3.6680
16732TIP3    H271612   1.141   4.208   5.648  0.2513 -1.3640  0.4237
16733TIP3   OH271613   2.182   0.938   1.747  0.4769  0.4520 -0.1330
16733TIP3    H171614   2.159   1.008   1.686  0.6294  1.1802  0.6418
16733TIP3    H271615   2.116   0.943   1.816  1.1610  0.5728  0.5140
16734TIP3   OH271616   2.393   1.122  14.440  0.2482 -0.1089 -0.4343
16734TIP3    H171617   2.404   1.028  14.424  0.3862  0.1231 -1.7867
16734TIP3    H271618   2.478   1.151  14.475  0.1892 -0.4902  0.0291
16735TIP3   OH271619   0.904   3.066   4.982 -0.0557 -0.3395 -0.3923
16735TIP3    H171620   0.964   3.015   4.928  1.9477  3.3019 -1.8288
16735TIP3    H271621   0.941   3.062   5.071  2.1494  1.4236 -1.1645
16736TIP3   OH271622   0.964   0.430   0.920 -0.2077 -0.1461 -0.1440
16736TIP3    H171623   1.038   0.381   0.884 -0.0647 -0.2919  0.3410
16736TIP3    H271624   0.889   0.400   0.870  0.0089 -0.2651 -0.3978
16737TIP3   OH271625   6.453   1.840   2.406 -0.3396 -0.0475 -0.4247
16737TIP3    H171626   6.416   1.798   2.328  1.5393 -1.3097 -0.6628
16737TIP3    H271627   6.469   1.768   2.466 -1.2931  0.8673  0.9614
16738TIP3   OH271628   1.206   5.700   2.809 -0.0520  0.7047 -0.3833
16738TIP3    H171629   1.147   5.626   2.791  0.2704  0.7592 -1.7682
16738TIP3    H271630   1.250   5.715   2.725  1.2845  1.2349  0.4110
16739TIP3   OH271631   0.889   3.009   3.668  0.1396 -0.0103  0.2234
16739TIP3    H171632   0.942   3.062   3.608  0.8712 -1.2371 -0.2422
16739TIP3    H271633   0.800   3.044   3.659  0.6737  1.3889  0.2297
16740TIP3   OH271634   2.269   5.795   0.296 -0.2346 -0.2080 -0.1755
16740TIP3    H171635   2.252   5.807   0.203  1.4255 -0.8570 -0.5793
16740TIP3    H271636   2.225   5.713   0.319  1.5626 -1.4446 -1.0204
16741TIP3   OH271637   1.196   0.422  15.729  0.2524 -0.3566  0.1624
16741TIP3    H171638   1.152   0.505  15.711  0.6027 -0.2558 -0.2293
16741TIP3    H271639   1.155   0.360  15.668  1.1506 -0.1050 -0.7188
16742TIP3   OH271640   3.296   4.403  16.876  0.1567 -0.0632  0.0473
16742TIP3    H171641   3.224   4.342  16.895 -0.4029 -0.3077 -2.6480
16742TIP3    H271642   3.253   4.477  16.832  1.7007 -0.8938 -2.9834
16743TIP3   OH271643   3.119   1.858   1.283 -0.1524 -0.3277  0.6037
16743TIP3    H171644   3.067   1.877   1.361  1.3737  0.1631  1.5198
16743TIP3    H271645   3.203   1.899   1.300 -0.2431  0.9936 -1.9162
16744TIP3   OH271646   6.442   3.614  12.313 -0.5656  0.1890  0.6277
16744TIP3    H171647   6.492   3.552  12.366 -0.1049  0.9590  1.1133
16744TIP3    H271648   6.449   3.697  12.361  0.8459  1.1778 -1.2415
16745TIP3   OH271649   5.950   4.612  14.605 -0.1055  0.5532 -0.2823
16745TIP3    H171650   6.028   4.625  14.660 -1.8733  0.1290  2.4114
16745TIP3    H271651   5.882   4.664  14.647 -1.3491  0.7586 -2.4873
16746TIP3   OH271652   1.560   5.171  11.751 -0.0942 -0.5516 -0.0285
16746TIP3    H171653   1.578   5.113  11.824 -0.9222 -1.4000 -0.4880
16746TIP3    H271654   1.489   5.128  11.703 -1.4810  1.3787  0.2464
16747TIP3   OH271655   3.581   2.595  11.110 -0.3925 -0.0295  0.2974
16747TIP3    H171656   3.623   2.677  11.136 -0.8554 -0.4320  2.4006
16747TIP3    H271657   3.538   2.615  11.026  2.3492  0.9015 -0.9194
16748TIP3   OH271658   6.233   4.215  14.923 -0.0704 -0.0534 -0.1426
16748TIP3    H171659   6.256   4.201  15.015 -0.6469 -1.4088 -0.1918
16748TIP3    H271660   6.290   4.155  14.875  0.3558  0.7805 -0.6891
16749TIP3   OH271661   5.943   1.034  15.289 -0.4219  1.0483  0.2047
16749TIP3    H171662   5.929   1.120  15.329  1.3823  0.8340  1.3923
16749TIP3    H271663   5.895   0.973  15.345  2.1909  0.7357  2.2274
16750TIP3   OH271664   2.336   0.024   0.183  0.1778 -0.2748  0.1832
16750TIP3    H171665   2.339  -0.065   0.146 -0.0258 -0.5512  0.8280
16750TIP3    H271666   2.244   0.051   0.173  0.0926 -0.4016  0.5993
16751TIP3   OH271667   5.117   4.619  15.637  0.6634  0.5781 -0.2351
16751TIP3    H171668   5.202   4.612  15.595 -0.4734 -1.9768 -2.2683
16751TIP3    H271669   5.117   4.550  15.704  0.0843  0.2948 -0.5152
16752TIP3   OH271670   0.556   0.782  14.703  0.3029  0.1933 -0.0352
16752TIP3    H171671   0.606   0.855  14.740  0.4996 -0.3800  0.8482
16752TIP3    H271672   0.502   0.821  14.635  3.8291  0.4690 -2.8216
16753TIP3   OH271673   5.484   0.135   3.420 -0.5808 -0.4435 -0.1836
16753TIP3    H171674   5.522   0.218   3.391 -1.4637  0.7301  1.9924
16753TIP3    H271675   5.560   0.077   3.430  0.0897  0.2221 -1.1933
16754TIP3   OH271676   4.675   6.435   0.451 -0.4758 -0.4483 -0.2163
16754TIP3    H171677   4.715   6.374   0.389 -0.8161 -1.9171  0.9843
16754TIP3    H271678   4.746   6.457   0.511  0.1046  1.7023 -1.6308
16755TIP3   OH271679   1.584   4.733   4.083 -0.0615 -0.5719 -0.0896
16755TIP3    H171680   1.522   4.746   4.011  1.8984  1.8925 -1.4358
16755TIP3    H271681   1.610   4.641   4.077 -2.5549 -1.2809 -0.3202
16756TIP3   OH271682   0.367   6.161   3.336 -0.7869 -0.8046  0.2450
16756TIP3    H171683   0.370   6.255   3.321  0.4359 -0.7814  0.5088
16756TIP3    H271684   0.396   6.122   3.253 -0.3933 -0.9083  0.4279
16757TIP3   OH271685   4.114   5.313   6.805  0.1775  0.3590  0.2516
16757TIP3    H171686   4.208   5.323   6.789  0.2780 -1.1854 -0.2375
16757TIP3    H271687   4.104   5.221   6.829 -1.3857  0.1797 -0.9982
16758TIP3   OH271688   1.443   3.864  12.314  0.1910  0.4985 -0.6151
16758TIP3    H171689   1.482   3.926  12.375  0.8752  1.6372 -2.1963
16758TIP3    H271690   1.421   3.915  12.237  0.2742 -1.1153 -1.7398
16759TIP3   OH271691   1.658   3.661  16.536 -0.6497  0.0691  0.1743
16759TIP3    H171692   1.683   3.569  16.543 -1.8401 -0.3190 -0.4557
16759TIP3    H271693   1.683   3.699  16.620  0.5826 -0.6396  0.1455
16760TIP3   OH271694   3.295   5.236  16.733 -0.7748  0.2382  0.0563
16760TIP3    H171695   3.322   5.157  16.780  0.5793  0.0513 -0.9811
16760TIP3    H271696   3.359   5.302  16.760  0.8511 -0.2116 -2.4653
16761TIP3   OH271697   3.577   1.001  16.115 -0.5939 -0.4380  0.4624
16761TIP3    H171698   3.601   1.003  16.023  0.4893  0.5699  0.7500
16761TIP3    H271699   3.487   1.031  16.117 -0.6750 -0.6294 -0.2844
16762TIP3   OH271700   2.659   2.601  11.391 -0.0931 -0.0286  0.3165
16762TIP3    H171701   2.702   2.544  11.454 -2.0395 -0.8052  0.9962
16762TIP3    H271702   2.727   2.624  11.328  0.9396 -2.4251  0.4991
16763TIP3   OH271703   1.353   6.352   1.834  0.5949 -0.1571 -0.1556
16763TIP3    H171704   1.304   6.350   1.752  1.3597  0.4176 -0.6366
16763TIP3    H271705   1.442   6.325   1.809  1.6851  3.2389 -0.1178
16764TIP3   OH271706   0.605   3.207   0.452  0.3775 -0.4853 -0.0618
16764TIP3    H171707   0.635   3.186   0.363 -1.9884  1.9178 -1.5065
16764TIP3    H271708   0.651   3.288   0.474 -2.5376  1.5563 -1.0946
16765TIP3   OH271709   3.626   0.375  15.864  0.5221  0.2319  0.1341
16765TIP3    H171710   3.595   0.305  15.806 -0.3917 -0.2376  1.1898
16765TIP3    H271711   3.582   0.360  15.947 -0.0550  2.3405  0.2440
16766TIP3   OH271712   1.400   1.313  15.979  0.2940 -0.0857 -0.1091
16766TIP3    H171713   1.328   1.317  15.916  0.5569  1.0414 -0.3548
16766TIP3    H271714   1.472   1.272  15.930  0.0911 -0.4025 -0.1389
16767TIP3   OH271715   4.181   1.771   4.260 -0.2305 -0.4546  0.1905
16767TIP3    H171716   4.159   1.700   4.320  1.6464 -1.2260  0.0112
16767TIP3    H271717   4.225   1.837   4.315  1.9177 -1.3727 -0.3781
16768TIP3   OH271718   2.391   4.918  15.885  0.6520  0.6784  0.0021
16768TIP3    H171719   2.384   4.961  15.971  1.6713  2.9239 -1.0116
16768TIP3    H271720   2.370   4.987  15.822 -1.0505 -1.1948 -1.5525
16769TIP3   OH271721   5.882   6.430   0.126  0.1223 -0.3508 -0.6964
16769TIP3    H171722   5.856   6.353   0.074  0.1644 -1.6718  1.1723
16769TIP3    H271723   5.969   6.453   0.093  1.1418 -2.6049  0.3078
16770TIP3   OH271724   2.081   3.241  13.603  0.0467 -0.1466 -0.1810
16770TIP3    H171725   2.074   3.226  13.698 -0.1005  3.1615  0.3821
16770TIP3    H271726   2.161   3.196  13.578  0.4704 -0.4880  1.6562
16771TIP3   OH271727   4.252   1.907   3.705 -0.5510 -0.3163 -0.4894
16771TIP3    H171728   4.283   1.845   3.770 -1.4646 -1.3887 -1.0519
16771TIP3    H271729   4.157   1.908   3.716 -0.5035  1.5705  0.0192
16772TIP3   OH271730   5.380   2.356   1.808  0.9030 -0.8722  0.2366
16772TIP3    H171731   5.331   2.438   1.800  0.6124 -1.1744 -1.1275
16772TIP3    H271732   5.442   2.373   1.879  0.7190  0.4654  0.1016
16773TIP3   OH271733   3.609   3.969  13.432 -0.1913 -0.0269 -0.0125
16773TIP3    H171734   3.643   4.000  13.515  1.7600  0.3831 -0.9250
16773TIP3    H271735   3.605   4.048  13.377 -2.2494 -0.1430 -0.0732
16774TIP3   OH271736   3.485   0.920   6.281 -0.1632 -0.1346 -0.5747
16774TIP3    H171737   3.521   0.900   6.368  0.8316  0.8795 -0.7394
16774TIP3    H271738   3.543   0.874   6.220 -0.7711 -0.7234 -0.7021
16775TIP3   OH271739   2.986   2.942  16.019  0.2211  0.2150  0.5876
16775TIP3    H171740   3.033   3.022  16.043  0.6430  0.0546  0.3025
16775TIP3    H271741   2.978   2.947  15.923  0.9529 -0.4701  0.4862
16776TIP3   OH271742   6.050   4.078   2.707  0.0661  0.1368  0.1338
16776TIP3    H171743   6.026   4.106   2.619  0.9833  0.7782  0.0858
16776TIP3    H271744   6.133   4.031   2.696  0.2807  0.3782  0.6730
16777TIP3   OH271745   1.204   5.723   4.664 -0.2439 -0.4032 -0.2282
16777TIP3    H171746   1.262   5.746   4.591  1.3557 -0.3846  1.0203
16777TIP3    H271747   1.214   5.629   4.673 -0.8139 -0.4723 -0.3411
16778TIP3   OH271748   2.451   1.189   0.593  0.2969 -0.2165 -0.0083
16778TIP3    H171749   2.417   1.110   0.633  0.0769  0.7584  1.8039
16778TIP3    H271750   2.546   1.176   0.588  0.0613 -1.4512 -1.7273
16779TIP3   OH271751   1.189   2.299   3.443  0.0395 -0.3586  0.4648
16779TIP3    H171752   1.191   2.250   3.361  0.9183  0.3163  0.0795
16779TIP3    H271753   1.225   2.239   3.508 -2.7910 -1.7412  0.8402
16780TIP3   OH271754   3.408   1.601   2.269 -0.2409 -0.0674 -0.0184
16780TIP3    H171755   3.501   1.581   2.265 -0.4254 -1.2633  1.3235
16780TIP3    H271756   3.403   1.685   2.316  0.1055 -0.5308  0.8605
16781TIP3   OH271757   4.903   1.542  14.781  0.4039  0.6343  0.5789
16781TIP3    H171758   4.931   1.624  14.823  0.2590  0.2941  1.3524
16781TIP3    H271759   4.896   1.479  14.853  3.0567 -0.7774 -0.3035
16782TIP3   OH271760   5.402   4.566  17.174 -0.1048 -0.1961  0.9275
16782TIP3    H171761   5.365   4.614  17.100  1.4130 -0.1158  0.2184
16782TIP3    H271762   5.348   4.487  17.179 -1.5934  0.8052  1.1071
16783TIP3   OH271763   6.351   5.256  13.315  1.2097  0.2669  0.6361
16783TIP3    H171764   6.343   5.342  13.357  2.4072  0.9103 -0.4243
16783TIP3    H271765   6.430   5.262  13.262 -0.5109 -0.3591 -2.1221
16784TIP3   OH271766   3.682   5.813   0.276  0.3013  0.6189 -0.3961
16784TIP3    H171767   3.626   5.764   0.216 -0.2099  1.2314 -0.4213
16784TIP3    H271768   3.714   5.887   0.225  1.8895 -0.2255 -0.6667
16785TIP3   OH271769   6.077   6.033   1.872  0.6101  0.0692  0.4423
16785TIP3    H171770   6.144   6.101   1.869  1.3236 -0.6171  0.7233
16785TIP3    H271771   6.011   6.061   1.808  1.4789  0.4181 -0.3028
16786TIP3   OH271772   0.053   6.426   0.138 -0.2126 -0.1183  0.5911
16786TIP3    H171773  -0.012   6.364   0.171  0.3579 -0.6955  0.6604
16786TIP3    H271774   0.129   6.371   0.116  0.7119  0.6778  1.6915
16787TIP3   OH271775   4.559   4.670   1.529 -0.1396  0.0768 -0.1295
16787TIP3    H171776   4.619   4.626   1.590  0.7143 -1.5027 -2.0183
16787TIP3    H271777   4.472   4.653   1.564  0.3170 -1.2309  0.4009
16788TIP3   OH271778   6.420   0.023   5.868 -0.2492  0.8534  0.1329
16788TIP3    H171779   6.483  -0.027   5.920 -0.5652  0.4175  0.0954
16788TIP3    H271780   6.347   0.039   5.928 -1.3806 -1.1510 -0.6971
16789TIP3   OH271781   3.169   1.837  14.188  0.1790 -0.1755  0.0343
16789TIP3    H171782   3.185   1.864  14.098  1.0096  0.3131  0.3255
16789TIP3    H271783   3.253   1.847  14.232 -0.7986  1.9925  1.4752
16790TIP3   OH271784   2.833   6.134   3.908  0.1077 -0.4591 -0.1355
16790TIP3    H171785   2.773   6.064   3.884  0.0423  0.0128 -1.4152
16790TIP3    H271786   2.777   6.209   3.925  0.2468 -0.3899  0.0159
16791TIP3   OH271787   3.736   2.484   2.914 -0.8438  0.9334  0.2791
16791TIP3    H171788   3.656   2.438   2.936 -0.4084  0.4949  0.9423
16791TIP3    H271789   3.735   2.491   2.818 -2.6106  2.6184  0.3931
16792TIP3   OH271790   4.763   3.632  14.254  0.0697  0.0184  0.2596
16792TIP3    H171791   4.754   3.722  14.284 -1.4096 -0.6916  2.0312
16792TIP3    H271792   4.739   3.579  14.330  0.2453 -1.8592 -0.9758
16793TIP3   OH271793   5.641   5.228   4.577  0.2399  0.3783 -0.9318
16793TIP3    H171794   5.663   5.303   4.523 -0.0688 -0.3649 -2.1012
16793TIP3    H271795   5.578   5.262   4.641 -0.9950  0.8211 -2.3458
16794TIP3   OH271796   1.431   1.185  11.696  0.1340 -0.2499 -0.7509
16794TIP3    H171797   1.412   1.231  11.614 -1.7667 -0.3354 -0.4008
16794TIP3    H271798   1.448   1.095  11.669  0.2419 -0.1181 -1.1271
16795TIP3   OH271799   3.494   0.802   0.328  0.2156 -0.3017  0.3829
16795TIP3    H171800   3.564   0.809   0.262  0.2672 -0.2923  0.4389
16795TIP3    H271801   3.419   0.766   0.280 -0.0173  0.5317  0.1125
16796TIP3   OH271802   2.357   0.516   6.023  0.3290  0.1302  0.6398
16796TIP3    H171803   2.355   0.566   5.941  2.7640  0.2337  0.6215
16796TIP3    H271804   2.272   0.471   6.025  0.5387 -0.5361 -2.3643
16797TIP3   OH271805   6.548   2.862   5.919  0.2037  0.0397  0.0181
16797TIP3    H171806   6.643   2.877   5.918  0.1128  0.7397  1.4454
16797TIP3    H271807   6.537   2.787   5.978  0.1385 -2.1182 -2.6516
16798TIP3   OH271808   1.995   3.139  11.209 -0.0933  0.4448  0.1853
16798TIP3    H171809   2.066   3.084  11.176 -0.4916  0.5732 -0.8972
16798TIP3    H271810   1.924   3.078  11.230 -0.1209  0.4372  0.0705
16799TIP3   OH271811   6.107   4.877  15.786  0.4250  0.5868 -0.5392
16799TIP3    H171812   6.020   4.885  15.825  0.0924 -1.6702 -0.7294
16799TIP3    H271813   6.155   4.820  15.847  1.4557  1.0011 -0.9452
16800TIP3   OH271814   4.274   4.564  12.498 -0.0334 -0.3687 -0.1034
16800TIP3    H171815   4.293   4.653  12.525  0.4445 -1.1571  2.2831
16800TIP3    H271816   4.179   4.557  12.505  0.0784 -0.5496  1.4224
16801TIP3   OH271817   5.631   4.870   3.872  0.2190 -0.7394  0.0899
16801TIP3    H171818   5.637   4.863   3.968 -1.0908 -0.3975  0.2120
16801TIP3    H271819   5.702   4.928   3.847  0.2032 -0.3531  0.9273
16802TIP3   OH271820   4.883   3.261  15.110 -0.0523  0.0017 -0.2759
16802TIP3    H171821   4.799   3.255  15.064  0.1049  2.1299 -0.9044
16802TIP3    H271822   4.865   3.224  15.197 -0.4610 -3.6649 -1.8189
16803TIP3   OH271823   3.695   6.253   3.626 -0.0765  0.1570  0.1070
16803TIP3    H171824   3.649   6.177   3.590 -0.2940  1.3187 -2.1526
16803TIP3    H271825   3.783   6.249   3.588 -0.0458  0.9431  0.0700
16804TIP3   OH271826   6.544   2.081  15.109  0.0538 -0.8761 -0.1215
16804TIP3    H171827   6.583   2.113  15.028  0.6470 -1.5355 -0.1021
16804TIP3    H271828   6.587   2.131  15.178 -1.2772  0.5089 -0.2688
16805TIP3   OH271829   4.049   3.647   4.488  0.7453 -0.7212 -0.0445
16805TIP3    H171830   4.114   3.672   4.422 -0.9005  1.2310 -0.9746
16805TIP3    H271831   4.007   3.570   4.451 -0.7763  0.8795 -1.7454
16806TIP3   OH271832   4.584   1.893   4.123  0.0599  0.4057  0.2255
16806TIP3    H171833   4.588   1.869   4.030 -1.8148  0.6490  0.0622
16806TIP3    H271834   4.491   1.905   4.141  0.4802  1.3504  1.9023
16807TIP3   OH271835   1.655   0.875   2.181 -0.2926 -0.2288  0.2506
16807TIP3    H171836   1.581   0.906   2.234  0.3827  2.4032 -0.2911
16807TIP3    H271837   1.732   0.899   2.231  0.3236  1.2086 -1.3567
16808TIP3   OH271838   0.835   5.605   0.786 -0.3923 -0.9554 -0.4070
16808TIP3    H171839   0.911   5.598   0.843 -1.5119  1.5561  1.5411
16808TIP3    H271840   0.814   5.515   0.761  0.9343 -2.0063  2.0979
16809TIP3   OH271841   2.430   1.997  13.777 -0.2871  0.3799 -0.6758
16809TIP3    H171842   2.497   1.968  13.839  0.2858  1.2830 -0.8574
16809TIP3    H271843   2.366   2.044  13.831  0.2593  1.2468 -0.7668
16810TIP3   OH271844   6.400   2.914  10.666 -0.5089  0.7442 -0.4780
16810TIP3    H171845   6.322   2.959  10.700 -0.9007 -0.5916  0.4216
16810TIP3    H271846   6.366   2.836  10.624  0.4267 -0.5049  1.0277
16811TIP3   OH271847   2.592   6.572   1.663  0.3089  0.1549  0.1106
16811TIP3    H171848   2.501   6.582   1.636  0.5815 -0.8576 -1.1742
16811TIP3    H271849   2.589   6.508   1.734  0.1509 -0.8250 -0.7647
16812TIP3   OH271850   2.209   2.662   3.992 -0.3094  0.4083 -0.0844
16812TIP3    H171851   2.197   2.693   4.082  1.3780  0.7157  0.0602
16812TIP3    H271852   2.218   2.742   3.940 -3.6558  0.2854 -0.9161
16813TIP3   OH271853   1.424   1.450  14.730 -0.6589  0.0084  0.3200
16813TIP3    H171854   1.431   1.515  14.660  0.5316 -0.2461  0.2023
16813TIP3    H271855   1.434   1.366  14.686  0.5980 -0.1323  0.8555
16814TIP3   OH271856   1.231   5.643   3.098 -0.0737 -0.0489 -0.5619
16814TIP3    H171857   1.226   5.628   3.003 -0.9958  1.1372 -0.7195
16814TIP3    H271858   1.305   5.702   3.109  0.4420 -0.7105 -0.4718
16815TIP3   OH271859   5.422   1.983   4.038  0.0288 -0.0696  0.1545
16815TIP3    H171860   5.438   2.000   3.945  0.5902 -1.9561 -0.1104
16815TIP3    H271861   5.445   1.891   4.050 -0.3000  0.0838  2.1132
16816TIP3   OH271862   4.669   1.671  13.641  0.3788  0.0157  0.0229
16816TIP3    H171863   4.595   1.729  13.659 -1.0803 -2.1176  1.0323
16816TIP3    H271864   4.724   1.677  13.719  0.4294  0.3196 -0.0350
16817TIP3   OH271865   2.779   0.278  15.410 -0.0186 -0.0409 -0.4710
16817TIP3    H171866   2.767   0.184  15.398  2.2086 -0.2778 -0.9983
16817TIP3    H271867   2.693   0.310  15.439 -0.2446 -2.5743  1.8154
16818TIP3   OH271868   5.537   0.355   5.931 -0.2356  0.0193 -0.0977
16818TIP3    H171869   5.567   0.444   5.947  0.0098 -0.0926  0.0638
16818TIP3    H271870   5.455   0.366   5.883 -0.9135  0.3553  1.1119
16819TIP3   OH271871   1.402   4.383   4.638 -0.7978  0.2483  0.0074
16819TIP3    H171872   1.399   4.366   4.544 -2.7394  1.1456 -0.1321
16819TIP3    H271873   1.313   4.362   4.669  0.1176 -1.0697  1.8389
16820TIP3   OH271874   1.011   0.117  10.924 -0.3301 -0.2717 -0.0247
16820TIP3    H171875   0.952   0.170  10.871  0.8226  1.1947  0.1255
16820TIP3    H271876   1.098   0.153  10.906  0.2491 -0.8079  1.6336
16821TIP3   OH271877   1.591   5.366   2.906  0.3418  0.3134 -0.3306
16821TIP3    H171878   1.627   5.394   2.821 -0.3712 -0.3640 -0.8691
16821TIP3    H271879   1.503   5.333   2.885 -0.4465  1.5532  0.9015
16822TIP3   OH271880   0.447   3.271  17.012 -0.2510  0.0461  0.3239
16822TIP3    H171881   0.439   3.175  17.017 -2.3975  0.2847  3.3048
16822TIP3    H271882   0.378   3.298  16.953  0.8090 -0.2615 -1.0837
16823TIP3   OH271883   3.145   3.708  14.366 -0.1823 -0.5712  0.4175
16823TIP3    H171884   3.240   3.720  14.370 -0.3276  0.9732 -0.3092
16823TIP3    H271885   3.128   3.634  14.424  1.4191 -0.5937  0.8931
16824TIP3   OH271886   1.819   0.092   2.011 -0.1919  0.2124 -0.0635
16824TIP3    H171887   1.796   0.185   2.010 -3.6842 -0.5461  0.3926
16824TIP3    H271888   1.839   0.073   2.103  1.5656  0.7048 -0.3266
16825TIP3   OH271889   4.546   1.172  14.824 -0.4077  0.4303  0.0369
16825TIP3    H171890   4.457   1.207  14.838 -0.2580  0.7900  0.0883
16825TIP3    H271891   4.537   1.077  14.838 -1.0457  0.2985 -1.1926
16826TIP3   OH271892   3.423   3.156  11.151 -0.1949 -0.1360 -0.0913
16826TIP3    H171893   3.332   3.129  11.165  0.5577 -2.8591 -0.3315
16826TIP3    H271894   3.429   3.173  11.057 -0.8820  1.8406  0.1832
16827TIP3   OH271895   5.485   5.344   4.768  1.0175 -0.0454  0.1716
16827TIP3    H171896   5.524   5.284   4.832  0.8398  0.2106  0.5199
16827TIP3    H271897   5.392   5.321   4.766  1.3126 -1.1665 -1.2255
16828TIP3   OH271898   6.049   6.147   3.777 -0.6587 -0.1293 -0.5149
16828TIP3    H171899   6.103   6.150   3.856 -0.4385 -1.5588 -0.5968
16828TIP3    H271900   6.110   6.125   3.707 -0.7537  1.6728 -1.1970
16829TIP3   OH271901   1.249   2.155  12.304 -0.1821  0.0919 -0.0160
16829TIP3    H171902   1.294   2.193  12.380 -0.4599  0.7697 -0.1863
16829TIP3    H271903   1.224   2.067  12.332 -0.2623  0.3326  0.6700
16830TIP3   OH271904   0.312   3.074   1.258  0.5606  0.2748 -0.2563
16830TIP3    H171905   0.365   2.998   1.237  0.6881  0.3202 -0.0999
16830TIP3    H271906   0.289   3.063   1.350  0.2934  0.2520 -0.3237
16831TIP3   OH271907   3.709   6.270   3.887  0.1217 -0.1168 -0.0304
16831TIP3    H171908   3.742   6.339   3.944  0.5032  0.4319 -0.9081
16831TIP3    H271909   3.727   6.301   3.798  1.8855 -2.0974 -0.4336
16832TIP3   OH271910   0.719   1.911   0.791 -0.4016 -0.1615  0.1825
16832TIP3    H171911   0.656   1.871   0.850  0.0276 -1.1609 -0.0345
16832TIP3    H271912   0.773   1.839   0.760  0.0744  0.5101 -0.5826
16833TIP3   OH271913   6.469   3.320   0.583  0.6454 -0.8392 -0.3264
16833TIP3    H171914   6.546   3.265   0.571  0.6490 -0.9203  0.0677
16833TIP3    H271915   6.405   3.263   0.627  0.7399 -0.4572  0.3093
16834TIP3   OH271916   3.665   5.807   4.121  0.6109 -0.0293 -0.5681
16834TIP3    H171917   3.720   5.880   4.152 -0.2265  1.3695 -2.2560
16834TIP3    H271918   3.728   5.741   4.092  1.4096  0.6575 -0.4289
16835TIP3   OH271919   1.006   6.529  14.570  0.4357 -0.1516  0.2683
16835TIP3    H171920   1.031   6.581  14.647  3.1815  0.4676 -0.9725
16835TIP3    H271921   1.069   6.457  14.569 -2.1409 -2.4471  0.8734
16836TIP3   OH271922   6.108   0.397   3.827 -0.4852 -1.0499  0.0302
16836TIP3    H171923   6.037   0.342   3.794 -1.5467 -0.5753  1.4503
16836TIP3    H271924   6.159   0.421   3.750 -1.0433 -2.5776 -0.8163
16837TIP3   OH271925   1.408   5.102  14.832 -0.2976  0.0395  0.1684
16837TIP3    H171926   1.391   5.164  14.761 -0.3286  0.7949  0.8340
16837TIP3    H271927   1.322   5.065  14.852 -0.0684 -1.2627 -1.1749
16838TIP3   OH271928   5.989   5.236  16.462 -1.0202  0.0941  0.3133
16838TIP3    H171929   5.946   5.312  16.424 -3.0607 -1.7657 -1.2272
16838TIP3    H271930   5.922   5.196  16.517 -0.2810 -1.1416  0.3267
16839TIP3   OH271931   0.013   0.836   2.114  0.4742  0.0062  0.0246
16839TIP3    H171932  -0.077   0.848   2.144  0.7377  0.3029  0.7232
16839TIP3    H271933   0.012   0.866   2.023  0.3713  2.2166  0.7296
16840TIP3   OH271934   2.052   4.877   1.051  0.4249 -0.7959 -0.9456
16840TIP3    H171935   2.006   4.797   1.076  0.6141 -0.6768 -0.1893
16840TIP3    H271936   2.078   4.916   1.134 -0.0619  0.2812 -1.2890
16841TIP3   OH271937   4.706   5.859  12.555  0.3205  0.0970 -0.4997
16841TIP3    H171938   4.779   5.798  12.559 -0.0807 -0.2558  3.0197
16841TIP3    H271939   4.634   5.808  12.518  0.6374 -0.8798  0.2131
16842TIP3   OH271940   0.754   3.468   2.322 -0.3476 -0.2876 -0.2159
16842TIP3    H171941   0.735   3.380   2.356 -1.2752 -0.3028 -0.7355
16842TIP3    H271942   0.781   3.454   2.232 -0.1171 -0.0716 -0.1806
16843TIP3   OH271943   2.251   1.232   0.881 -0.5762 -0.5308 -0.3374
16843TIP3    H171944   2.334   1.187   0.897 -0.1158  0.7489  0.9802
16843TIP3    H271945   2.263   1.272   0.794  0.8172  0.9436  0.4869
16844TIP3   OH271946   5.863   1.437   3.097  0.5442  0.1084 -0.6464
16844TIP3    H171947   5.920   1.513   3.110  0.5309 -0.2078  1.3072
16844TIP3    H271948   5.781   1.475   3.066  0.1283  1.0259  1.5117
16845TIP3   OH271949   4.924   4.865   0.117  0.1223 -0.4392  0.0993
16845TIP3    H171950   4.933   4.869   0.213 -1.1712  1.6328  0.1821
16845TIP3    H271951   4.994   4.921   0.084  0.7835 -1.4305 -0.2015
16846TIP3   OH271952   3.240   0.467  11.411 -0.1641  0.2455  0.2825
16846TIP3    H171953   3.234   0.498  11.320  0.7955 -0.3749 -0.0005
16846TIP3    H271954   3.268   0.375  11.403 -1.1871 -0.1591  1.1664
16847TIP3   OH271955   4.576   3.896  15.915 -0.1230  0.3071 -0.2238
16847TIP3    H171956   4.489   3.855  15.916 -0.2397  0.4821 -1.5804
16847TIP3    H271957   4.634   3.831  15.954 -0.6867 -0.2513 -0.2964
16848TIP3   OH271958   3.751   5.016   6.080 -0.4243 -0.3037 -0.0040
16848TIP3    H171959   3.757   4.972   6.165 -0.9085 -1.4643 -0.5476
16848TIP3    H271960   3.706   4.952   6.024  1.3625 -0.2309 -1.5725
16849TIP3   OH271961   1.572   2.283  12.793  0.2693 -0.6773  0.0642
16849TIP3    H171962   1.537   2.368  12.820 -1.4926 -1.9403  1.8689
16849TIP3    H271963   1.638   2.262  12.859 -1.8162 -2.3109  1.6943
16850TIP3   OH271964   4.322   3.955   3.909  0.2196  1.1331 -0.0285
16850TIP3    H171965   4.304   3.957   3.814  0.0120  1.3087  0.0129
16850TIP3    H271966   4.253   4.010   3.947 -1.3987 -1.1634  0.4921
16851TIP3   OH271967   3.386   5.858   3.769 -0.1985  0.0888 -0.5091
16851TIP3    H171968   3.453   5.926   3.780 -1.2415  1.0815 -0.1432
16851TIP3    H271969   3.307   5.907   3.745 -0.6953 -1.1025 -1.3207
16852TIP3   OH271970   6.203   6.007  14.436 -0.4109  0.2921  0.5594
16852TIP3    H171971   6.239   5.937  14.490  0.0683  1.0994  1.3086
16852TIP3    H271972   6.169   6.071  14.499  0.0289  1.1817 -0.0806
16853TIP3   OH271973   6.469   1.975  13.862  0.3710 -0.5715 -0.3387
16853TIP3    H171974   6.397   1.921  13.896 -0.1155  0.4228  0.2584
16853TIP3    H271975   6.546   1.920  13.870 -0.1664 -1.2844  0.0000
16854TIP3   OH271976   3.388   5.685  14.084  0.1041 -0.0083  0.1858
16854TIP3    H171977   3.435   5.765  14.060  2.0193 -0.6083  1.7962
16854TIP3    H271978   3.300   5.697  14.049  0.5529  2.5290 -0.1342
16855TIP3   OH271979   6.106   5.581   0.941  0.4064 -0.3528 -0.2097
16855TIP3    H171980   6.069   5.517   0.880  0.9944 -0.9517  0.0701
16855TIP3    H271981   6.034   5.599   1.002 -0.3651  0.6460 -1.3643
16856TIP3   OH271982   2.435   4.520  17.110  0.2134 -0.4386  0.7860
16856TIP3    H171983   2.408   4.558  17.194  1.9987  1.0085  0.7251
16856TIP3    H271984   2.398   4.578  17.044  1.1397  0.0199  0.6532
16857TIP3   OH271985   4.336   3.389   1.627 -0.6578  0.2734  0.0535
16857TIP3    H171986   4.306   3.309   1.584  0.2860 -0.9378  1.5720
16857TIP3    H271987   4.363   3.447   1.556 -0.2393 -1.2299 -1.0250
16858TIP3   OH271988   3.346   4.145   6.057 -0.3782  0.3193  0.5775
16858TIP3    H171989   3.342   4.142   6.152 -1.2857  1.3579  0.5845
16858TIP3    H271990   3.254   4.146   6.029 -0.1295 -0.5518 -0.3379
16859TIP3   OH271991   5.701   5.773  15.591 -0.2018 -0.3254 -0.1286
16859TIP3    H171992   5.696   5.817  15.676 -1.7269 -0.3816 -0.1643
16859TIP3    H271993   5.654   5.691  15.603  0.4446 -0.7938 -0.7529
16860TIP3   OH271994   1.070   2.529  16.401  0.4190 -0.4532  0.0653
16860TIP3    H171995   1.028   2.530  16.487  0.2849 -5.0967  0.1636
16860TIP3    H271996   0.999   2.546  16.340 -0.2628 -1.0608  0.6686
16861TIP3   OH271997   3.798   3.234   4.604 -0.1600 -0.0503  0.6932
16861TIP3    H171998   3.847   3.203   4.680  0.3115 -1.2782 -0.1042
16861TIP3    H271999   3.840   3.192   4.529 -0.0917  1.7743 -0.3323
16862TIP3   OH272000   5.317   0.524   0.476  0.0503 -0.3734 -0.1720
16862TIP3    H172001   5.310   0.578   0.398 -0.9303 -1.3433 -0.7735
16862TIP3    H272002   5.288   0.582   0.547 -0.8831 -0.0599 -0.7904
16863TIP3   OH272003   3.881   1.189   0.612  0.5205 -0.4301  0.0342
16863TIP3    H172004   3.968   1.228   0.605  0.8960 -0.4195  3.8856
16863TIP3    H272005   3.862   1.188   0.706 -2.5584 -2.8267 -0.5228
16864TIP3   OH272006   2.762   0.464  16.998  0.1765 -0.3508  0.8753
16864TIP3    H172007   2.745   0.503  16.913  0.3095  1.5626  1.6911
16864TIP3    H272008   2.727   0.375  16.992  1.0351 -0.5382 -1.4493
16865TIP3   OH272009   3.452   3.618   0.451  0.0282 -0.1103  0.5769
16865TIP3    H172010   3.438   3.674   0.528  0.6883  1.3474 -0.3284
16865TIP3    H272011   3.519   3.556   0.479 -0.4180 -0.1953  1.4819
16866TIP3   OH272012   2.028   0.758   3.898 -0.0989 -0.9349 -0.6522
16866TIP3    H172013   2.084   0.698   3.848  0.0216 -1.7811  0.4747
16866TIP3    H272014   1.981   0.702   3.959 -0.0292  0.1094  0.3817
16867TIP3   OH272015   5.288   0.519   2.200  0.6612 -0.2658  0.2879
16867TIP3    H172016   5.213   0.465   2.174  1.4557 -0.6611 -1.2108
16867TIP3    H272017   5.361   0.458   2.203  1.7286  0.8335 -2.1819
16868TIP3   OH272018   4.927   3.601   2.806 -0.1372  0.3409  0.0346
16868TIP3    H172019   4.920   3.563   2.893 -0.4245 -1.1401 -0.6164
16868TIP3    H272020   5.017   3.634   2.801 -0.4694  1.4785  1.2907
16869TIP3   OH272021   2.413   2.385  15.818  0.3493 -0.2889  0.0416
16869TIP3    H172022   2.396   2.472  15.781 -0.2548 -0.7177 -0.7150
16869TIP3    H272023   2.385   2.391  15.909  0.1563  0.2564 -0.0519
16870TIP3   OH272024   2.087   3.116  14.572 -0.0674  0.1402  0.0182
16870TIP3    H172025   2.146   3.190  14.582  0.5397 -0.3219 -0.1164
16870TIP3    H272026   2.001   3.149  14.599  0.1881  0.9069 -0.1085
16871TIP3   OH272027   6.748   1.338   1.701  0.5291 -0.0431  0.4344
16871TIP3    H172028   6.662   1.378   1.716  0.6737 -0.2296  1.8049
16871TIP3    H272029   6.748   1.259   1.755  1.2145 -0.5474 -0.2922
16872TIP3   OH272030   5.237   6.627   5.213 -1.0841 -0.1935  0.2328
16872TIP3    H172031   5.192   6.543   5.198 -1.0132 -0.4311  1.3464
16872TIP3    H272032   5.238   6.637   5.308  1.1974 -0.1756  0.2268
16873TIP3   OH272033   5.938   1.680   0.099  0.4178 -0.3656 -0.4300
16873TIP3    H172034   6.024   1.653   0.130  0.4122  1.3133  1.1841
16873TIP3    H272035   5.877   1.620   0.140  0.8189 -1.6510 -1.6930
16874TIP3   OH272036   4.069   3.644  15.182  0.4947  0.9394 -0.2544
16874TIP3    H172037   4.010   3.719  15.179  0.2580  0.7635 -0.0417
16874TIP3    H272038   4.136   3.668  15.246 -0.3583  0.4081  0.8586
16875TIP3   OH272039   2.718   6.534  16.156  0.6780  0.8683 -0.0575
16875TIP3    H172040   2.648   6.548  16.092  1.2108  1.7523 -0.4554
16875TIP3    H272041   2.677   6.482  16.226 -0.8966  2.9631  0.6284
16876TIP3   OH272042   3.898   1.626   2.144 -0.0489 -1.0165 -0.0343
16876TIP3    H172043   3.918   1.705   2.195 -1.3447  0.8306 -2.2858
16876TIP3    H272044   3.807   1.606   2.165 -0.1405 -1.1061 -0.5105
16877TIP3   OH272045   1.196   5.567  13.634  0.2911  0.5346 -0.5543
16877TIP3    H172046   1.177   5.484  13.589  0.4654  0.3642 -0.3170
16877TIP3    H272047   1.112   5.612  13.638  0.2210  0.4276 -0.8051
16878TIP3   OH272048   5.956   1.178   4.218  0.8874 -0.3062 -0.2204
16878TIP3    H172049   6.032   1.232   4.238  0.1194  1.1972 -1.3047
16878TIP3    H272050   5.887   1.211   4.274  0.3693 -0.0466 -1.0003
16879TIP3   OH272051   2.388   3.604  13.634  0.2477 -0.3580 -0.4363
16879TIP3    H172052   2.435   3.529  13.671  0.0203 -0.8584 -1.1408
16879TIP3    H272053   2.301   3.571  13.615 -1.1134  1.1603  2.8623
16880TIP3   OH272054   2.694   5.203   5.368  0.4623 -0.3753  0.4469
16880TIP3    H172055   2.658   5.277   5.416 -1.3839 -0.2851 -1.0232
16880TIP3    H272056   2.757   5.242   5.308 -0.1551 -0.0321  0.0139
16881TIP3   OH272057   5.628   0.644   5.944 -0.4013 -0.1191 -0.1820
16881TIP3    H172058   5.691   0.687   5.887  1.1233 -1.2012  0.6530
16881TIP3    H272059   5.658   0.665   6.033  0.9672 -3.6172  0.2754
16882TIP3   OH272060   6.016   0.986   2.816 -0.0680  0.2006 -0.2202
16882TIP3    H172061   6.083   0.931   2.776  0.8752  0.5085  0.8890
16882TIP3    H272062   5.962   0.925   2.866  1.0559  0.2452  1.1143
16883TIP3   OH272063   2.526   4.480   2.117  0.1198 -0.2707  0.7651
16883TIP3    H172064   2.593   4.428   2.072 -0.2879 -0.0147 -0.1645
16883TIP3    H272065   2.551   4.571   2.100 -0.9830 -0.1748 -0.3924
16884TIP3   OH272066   2.687   0.081  16.055 -0.4904 -0.6505 -0.0503
16884TIP3    H172067   2.728   0.167  16.049  0.6595 -1.1919 -0.1166
16884TIP3    H272068   2.681   0.051  15.964 -0.6660 -0.7531 -0.0061
16885TIP3   OH272069   5.497   4.061   1.457 -0.0261 -0.0111  0.2072
16885TIP3    H172070   5.530   4.053   1.547  0.2029  0.7837  0.2008
16885TIP3    H272071   5.490   3.971   1.426  0.0667 -0.2837  0.9636
16886TIP3   OH272072   0.055   2.092   2.767  0.0450 -0.5569  0.1386
16886TIP3    H172073   0.120   2.155   2.799 -0.4846 -0.2752  0.6677
16886TIP3    H272074   0.017   2.133   2.690  1.5601 -1.3803 -1.0804
16887TIP3   OH272075   1.893   2.267  13.935  0.1150  0.0624 -0.1590
16887TIP3    H172076   1.844   2.209  13.993 -0.7844  0.5193 -0.4543
16887TIP3    H272077   1.827   2.325  13.897  0.7720  0.1166 -1.2302
16888TIP3   OH272078   5.698   1.059   1.230  0.4431  0.0576  0.2239
16888TIP3    H172079   5.621   1.111   1.254  1.6165  1.7599  0.4322
16888TIP3    H272080   5.685   0.975   1.275 -1.4019  0.2182  0.0409
16889TIP3   OH272081   3.613   1.743  14.456  0.4821  0.1422 -0.5510
16889TIP3    H172082   3.628   1.740  14.551  1.6159  2.5325 -0.6245
16889TIP3    H272083   3.620   1.652  14.428  1.1075 -0.4809  1.5095
16890TIP3   OH272084   5.312   3.819  13.181  0.1047 -0.1859 -0.3054
16890TIP3    H172085   5.351   3.817  13.094  1.1811  0.0093  0.1745
16890TIP3    H272086   5.341   3.738  13.223  0.2007  0.0791  0.1416
16891TIP3   OH272087   4.398   4.349  14.463 -0.2718  0.3036 -0.1668
16891TIP3    H172088   4.325   4.373  14.521 -1.1492  0.7497 -1.4520
16891TIP3    H272089   4.470   4.403  14.494 -0.0752 -1.1340  2.0079
16892TIP3   OH272090   2.592   5.588   2.106  0.5578  0.2410  0.8993
16892TIP3    H172091   2.537   5.665   2.116  0.3486  0.2156 -0.0289
16892TIP3    H272092   2.667   5.605   2.163  1.3093  1.8723 -0.5322
16893TIP3   OH272093   0.848   3.940   5.830 -0.6601 -0.5843  0.1957
16893TIP3    H172094   0.774   3.879   5.824 -1.8144  0.7312  0.7592
16893TIP3    H272095   0.831   3.989   5.910 -1.1473  2.2853 -1.6207
16894TIP3   OH272096   3.033   0.470  17.063 -0.1963  0.7196 -0.1963
16894TIP3    H172097   3.047   0.376  17.049  1.7441  1.0546 -0.5588
16894TIP3    H272098   2.939   0.477  17.079 -0.3669 -1.2928 -0.1331
16895TIP3   OH272099   5.705   4.148  11.900  0.5207  0.7921 -0.4864
16895TIP3    H172100   5.795   4.126  11.877 -0.3858 -3.0205 -0.8207
16895TIP3    H272101   5.712   4.201  11.979  3.0132 -1.8414  1.1632
16896TIP3   OH272102   5.508   6.752   5.489 -0.1238  0.0672 -0.0354
16896TIP3    H172103   5.559   6.690   5.542  2.3255 -0.4389 -2.8278
16896TIP3    H272104   5.545   6.837   5.511 -0.6850  0.1100  0.7582
16897TIP3   OH272105   3.860   4.882  16.842  0.0579  0.1405  0.3571
16897TIP3    H172106   3.788   4.846  16.789 -0.7428 -0.8071  2.0635
16897TIP3    H272107   3.939   4.861  16.792 -0.5013 -2.7620  0.5988
16898TIP3   OH272108   2.723   2.606   0.441  0.0393  0.0394  0.1875
16898TIP3    H172109   2.656   2.613   0.372  0.9668 -0.2270 -0.7600
16898TIP3    H272110   2.805   2.590   0.393  0.4477 -1.8046  1.4369
16899TIP3   OH272111   2.819   4.094  11.119  0.5085 -0.1863 -0.0789
16899TIP3    H172112   2.768   4.175  11.113  1.6422  0.6485  1.3911
16899TIP3    H272113   2.896   4.117  11.170  0.8400 -2.2065  0.3795
16900TIP3   OH272114   4.692   5.744   3.458 -0.0654  0.3395  0.6022
16900TIP3    H172115   4.719   5.836   3.464  1.1523 -0.0449  1.1199
16900TIP3    H272116   4.660   5.735   3.368  1.6827  0.7759 -0.0768
16901TIP3   OH272117   2.189   2.249   3.019 -0.1674 -0.1892  0.4094
16901TIP3    H172118   2.113   2.239   2.962  0.9704 -0.9555 -1.0002
16901TIP3    H272119   2.170   2.194   3.095 -1.2227  0.0010  0.2869
16902TIP3   OH272120   3.663   6.660  13.443 -0.0105  0.3956  0.6981
16902TIP3    H172121   3.642   6.687  13.532  0.6136  0.9785  0.6766
16902TIP3    H272122   3.611   6.581  13.428 -1.9584  1.6462  0.7220
16903TIP3   OH272123   6.121   1.498   1.222 -0.4318 -0.1026  0.2241
16903TIP3    H172124   6.174   1.578   1.222 -0.0474 -0.2444 -4.0057
16903TIP3    H272125   6.037   1.525   1.184 -1.3510 -1.0917  1.5203
16904TIP3   OH272126   4.654   4.069  13.601  0.1692 -0.7505 -0.0702
16904TIP3    H172127   4.633   4.005  13.533 -0.2143  0.9623 -1.5796
16904TIP3    H272128   4.579   4.127  13.604  1.1108  0.4638  0.3148
16905TIP3   OH272129   5.330   3.820   1.358  0.1205  0.0820 -0.0075
16905TIP3    H172130   5.330   3.856   1.269  1.7421 -0.3212 -0.1864
16905TIP3    H272131   5.340   3.725   1.346 -1.1441 -0.1352  0.5623
16906TIP3   OH272132   3.029   4.328  13.090 -0.5603 -0.0083  0.3091
16906TIP3    H172133   2.988   4.338  13.004 -1.2852  0.2502  0.6766
16906TIP3    H272134   2.963   4.284  13.143  0.3128 -1.2114  0.4210
16907TIP3   OH272135   6.444   2.788  14.356 -0.1140  0.3007  0.3866
16907TIP3    H172136   6.377   2.846  14.393 -0.4812  0.0839  0.0677
16907TIP3    H272137   6.518   2.845  14.338 -0.1297  0.5072  0.9466
16908TIP3   OH272138   0.667   3.112  12.261  1.2507  0.0159 -0.1944
16908TIP3    H172139   0.576   3.085  12.247  1.3687 -0.7823  0.5718
16908TIP3    H272140   0.662   3.208  12.267  0.5997  0.0514 -1.1588
16909TIP3   OH272141   5.809   6.199   4.531 -0.2173 -0.5766  0.3410
16909TIP3    H172142   5.773   6.118   4.496 -0.8716  0.0089 -0.3456
16909TIP3    H272143   5.750   6.223   4.602 -1.7680  0.8962 -1.4059
16910TIP3   OH272144   2.159   0.836   3.198 -0.0577  0.1879 -0.5254
16910TIP3    H172145   2.158   0.853   3.104 -1.2686 -1.3205 -0.8236
16910TIP3    H272146   2.249   0.812   3.217 -0.0706 -0.7625 -1.5661
16911TIP3   OH272147   2.461   6.614  15.958  0.0596  0.1374 -0.3761
16911TIP3    H172148   2.427   6.675  15.893 -1.6477 -0.1125  0.2687
16911TIP3    H272149   2.423   6.642  16.041 -0.8829 -1.8829 -0.0977
16912TIP3   OH272150   0.882   6.289   3.053 -0.1394 -0.1192  0.5487
16912TIP3    H172151   0.901   6.337   2.972  0.0370 -0.4909  0.3709
16912TIP3    H272152   0.934   6.335   3.120 -0.3975  0.2775  0.4812
16913TIP3   OH272153   3.959   1.598  12.798  0.1302 -0.1135  0.1056
16913TIP3    H172154   3.987   1.522  12.745  0.9234 -0.5985  1.2063
16913TIP3    H272155   3.881   1.630  12.753  1.3648  0.0983 -1.9531
16914TIP3   OH272156   5.874   1.201   0.523 -0.8050 -0.2563 -0.3034
16914TIP3    H172157   5.850   1.187   0.431 -0.1565 -0.8224 -0.3905
16914TIP3    H272158   5.793   1.190   0.571 -1.2120  0.3386 -0.8341
16915TIP3   OH272159   6.434   0.448   3.503  0.2096 -0.1552  0.2767
16915TIP3    H172160   6.460   0.515   3.439 -0.5932  0.6983  0.8239
16915TIP3    H272161   6.507   0.387   3.505  1.6144  1.4972  0.8372
16916TIP3   OH272162   3.551   5.678   2.843  0.6765 -0.1135  0.4625
16916TIP3    H172163   3.616   5.609   2.828  0.7845  0.0937 -0.0272
16916TIP3    H272164   3.476   5.632   2.880  0.5991 -0.5535 -0.2289
16917TIP3   OH272165   0.122   4.531   2.840 -0.2017 -0.0028 -0.2501
16917TIP3    H172166   0.107   4.616   2.882 -0.4817 -0.5240  0.7084
16917TIP3    H272167   0.216   4.529   2.822 -0.0160  0.0739  0.6888
16918TIP3   OH272168   0.983   1.194  13.784  0.0060 -0.1311 -0.0257
16918TIP3    H172169   0.967   1.100  13.778 -1.2271  0.1634 -1.7133
16918TIP3    H272170   0.982   1.212  13.878 -2.8735 -1.2815  0.2057
16919TIP3   OH272171   5.467   0.550   2.535  0.0694  0.5925  0.9253
16919TIP3    H172172   5.398   0.492   2.502  0.6890  0.2425  0.2295
16919TIP3    H272173   5.421   0.631   2.556 -0.5458  0.4043  0.3389
16920TIP3   OH272174   4.325   4.287   3.209 -0.1192  0.1225  0.5705
16920TIP3    H172175   4.405   4.341   3.214  0.1753 -0.0870 -1.3292
16920TIP3    H272176   4.301   4.271   3.300  1.3588  1.1642  1.1700
16921TIP3   OH272177   0.955   6.173   4.252 -0.3869 -1.1203 -0.4040
16921TIP3    H172178   0.937   6.245   4.313  0.0838 -0.8473 -0.5801
16921TIP3    H272179   0.882   6.175   4.190  0.2488  0.0245 -1.1545
16922TIP3   OH272180   4.797   1.400  13.544  0.0861 -0.0707  0.2189
16922TIP3    H172181   4.746   1.421  13.622 -1.2053  0.7733 -0.8371
16922TIP3    H272182   4.878   1.362  13.578 -0.6212 -0.0632  1.9543
16923TIP3   OH272183   5.918   5.086  11.225 -0.2782 -0.0289 -0.3018
16923TIP3    H172184   5.899   5.058  11.136  0.9673 -1.5525 -0.1100
16923TIP3    H272185   5.863   5.029  11.280 -0.5836  0.4878 -0.0691
16924TIP3   OH272186   6.337   4.352   3.434  0.1193  0.1489  0.3201
16924TIP3    H172187   6.311   4.287   3.499  0.2682  0.2406  0.4702
16924TIP3    H272188   6.430   4.367   3.450  0.2381 -0.0932 -0.1441
16925TIP3   OH272189   4.358   5.795   2.913 -0.0987 -0.1025  0.6185
16925TIP3    H172190   4.317   5.841   2.986  1.1084  0.4074  1.0003
16925TIP3    H272191   4.432   5.851   2.888  0.8259 -1.3558  0.4773
16926TIP3   OH272192   4.664   0.186  15.459 -0.0527 -0.1080  1.0590
16926TIP3    H172193   4.682   0.279  15.471 -0.4608 -0.1612  2.1198
16926TIP3    H272194   4.586   0.183  15.404  1.8355  0.1386 -1.7819
16927TIP3   OH272195   0.661   0.478  10.862  0.1437 -0.8074  0.3376
16927TIP3    H172196   0.684   0.570  10.871  1.8090 -1.0365 -1.3170
16927TIP3    H272197   0.683   0.456  10.771 -0.6602 -2.7116  0.5772
16928TIP3   OH272198   6.492   5.885   4.451  0.0164 -0.4109 -0.1563
16928TIP3    H172199   6.558   5.924   4.508  0.3160 -0.3542 -0.5376
16928TIP3    H272200   6.505   5.790   4.460 -0.2969 -0.4153  0.2856
16929TIP3   OH272201   1.513   0.029  13.960 -0.0102  0.1771 -0.6997
16929TIP3    H172202   1.498   0.061  13.871 -2.1367  3.0777  0.6220
16929TIP3    H272203   1.602   0.057  13.981 -0.7512  2.5773 -0.6875
16930TIP3   OH272204   6.324   4.841   2.387 -0.8813 -0.1852 -0.1787
16930TIP3    H172205   6.406   4.864   2.342 -0.1244  1.9935  2.2172
16930TIP3    H272206   6.255   4.865   2.324  0.2518 -0.5638 -1.5958
16931TIP3   OH272207   2.084   2.838   2.393  0.3622 -0.0003  0.3925
16931TIP3    H172208   2.093   2.836   2.298 -0.7684 -0.4775  0.2806
16931TIP3    H272209   2.001   2.793   2.410 -0.3757  1.7118  1.4868
16932TIP3   OH272210   3.424   2.160  11.586 -0.8189 -0.6506  0.2731
16932TIP3    H172211   3.357   2.224  11.561  0.2891 -0.0688 -1.2976
16932TIP3    H272212   3.460   2.194  11.668 -1.0248  0.1422  0.0434
16933TIP3   OH272213   6.508   4.199   3.229  0.1648 -0.4936 -0.0450
16933TIP3    H172214   6.508   4.288   3.195  0.7453  0.5388  2.5804
16933TIP3    H272215   6.415   4.181   3.248  0.2122  0.1580  0.8734
16934TIP3   OH272216   0.269   5.663  12.520  0.6721 -0.3055 -0.8781
16934TIP3    H172217   0.345   5.684  12.574 -0.0545 -0.4145  0.2067
16934TIP3    H272218   0.269   5.729  12.451  0.5581  0.9643  0.3150
16935TIP3   OH272219   5.165   3.244   2.623  0.1784 -0.2626 -0.1515
16935TIP3    H172220   5.095   3.261   2.686  0.2488 -2.8991  0.7038
16935TIP3    H272221   5.133   3.281   2.540 -2.4449 -1.8203  0.1088
16936TIP3   OH272222   0.324   0.627   4.510 -0.6297  0.0833  0.0533
16936TIP3    H172223   0.316   0.721   4.527 -1.5076  0.5191 -2.4672
16936TIP3    H272224   0.416   0.607   4.528 -0.2186  1.6355 -0.2535
16937TIP3   OH272225   4.585   0.079   5.604 -0.3907 -0.2703  0.5804
16937TIP3    H172226   4.494   0.108   5.592 -0.0899  0.2382 -0.5420
16937TIP3    H272227   4.608   0.036   5.522  0.9875  1.2511  0.1412
16938TIP3   OH272228   0.159   3.453  12.765 -0.0801  0.7986 -0.0559
16938TIP3    H172229   0.247   3.425  12.790 -0.0823  1.0711  0.2640
16938TIP3    H272230   0.134   3.394  12.693 -0.7862 -1.1383  1.7469
16939TIP3   OH272231   3.954   2.621  17.228 -0.1495 -0.1383 -0.1729
16939TIP3    H172232   3.876   2.565  17.218  0.3567 -0.7561 -0.7099
16939TIP3    H272233   3.966   2.628  17.323 -0.8884 -0.0023 -0.0857
16940TIP3   OH272234   6.293   3.251  12.622  0.1532 -0.0600  0.1974
16940TIP3    H172235   6.230   3.200  12.674 -0.7382 -0.4937 -1.2931
16940TIP3    H272236   6.343   3.186  12.573  0.5376  0.3870 -0.0036
16941TIP3   OH272237   4.023   1.430   0.123 -0.4633 -0.5497  0.1398
16941TIP3    H172238   3.956   1.498   0.129  0.9999  0.9346 -0.0514
16941TIP3    H272239   4.085   1.463   0.058  0.6310 -1.7359  0.5569
16942TIP3   OH272240   4.550   5.466   0.885 -0.5102  0.2776 -0.1792
16942TIP3    H172241   4.548   5.470   0.981 -0.8702  2.3899 -0.2540
16942TIP3    H272242   4.520   5.378   0.864  2.4579 -1.2832  1.7494
16943TIP3   OH272243   0.656   1.873   5.621 -0.5631 -0.5366 -0.0609
16943TIP3    H172244   0.591   1.896   5.555  0.3940  1.6986 -0.2766
16943TIP3    H272245   0.738   1.912   5.590 -0.1240  0.7573  2.4943
16944TIP3   OH272246   1.243   4.173   1.960 -0.5641  0.3814 -0.1787
16944TIP3    H172247   1.225   4.080   1.971  0.0293  0.4514  1.4737
16944TIP3    H272248   1.210   4.193   1.872 -0.3713 -1.4566 -0.6949
16945TIP3   OH272249   0.122   3.328   3.771 -0.0449  0.1539  0.1540
16945TIP3    H172250   0.171   3.395   3.724  0.5270  0.6553  1.4437
16945TIP3    H272251   0.189   3.262   3.794 -0.4762 -0.5185 -0.4931
16946TIP3   OH272252   2.371   1.226   4.274  0.1389  0.4070  0.2899
16946TIP3    H172253   2.350   1.135   4.296  0.4843  0.5465  1.2449
16946TIP3    H272254   2.465   1.224   4.254 -0.0845  0.3592 -0.8101
16947TIP3   OH272255   4.273   0.555  15.869  0.2279 -0.1486  0.1264
16947TIP3    H172256   4.306   0.623  15.811  1.5372 -0.2620  0.7062
16947TIP3    H272257   4.253   0.601  15.951  0.8743 -0.4040  0.4350
16948TIP3   OH272258   6.406   0.199   4.098 -0.1104  0.5259  0.0070
16948TIP3    H172259   6.384   0.114   4.136 -0.7871  1.0987  0.8946
16948TIP3    H272260   6.454   0.177   4.018  1.6593 -0.6864  1.3573
16949TIP3   OH272261   4.697   4.997   3.979  0.7558  0.2075 -0.6388
16949TIP3    H172262   4.740   5.079   4.003  0.6899 -0.0159  0.2261
16949TIP3    H272263   4.749   4.929   4.022 -1.3071  0.0105  1.6429
16950TIP3   OH272264   3.604   2.738   1.437 -0.2247 -0.0313  0.7034
16950TIP3    H172265   3.603   2.828   1.469 -0.7342 -0.0217  0.6663
16950TIP3    H272266   3.547   2.691   1.498  2.2292 -0.9035  2.3944
16951TIP3   OH272267   4.599   4.463  14.624  0.1796 -0.1187 -0.3223
16951TIP3    H172268   4.585   4.418  14.707  1.5454 -0.6598 -0.3714
16951TIP3    H272269   4.683   4.508  14.635 -1.2210  2.6082 -0.1998
16952TIP3   OH272270   0.726   3.999   1.219 -0.1030 -1.1590  0.2081
16952TIP3    H172271   0.683   3.938   1.158 -0.4754  1.4844 -2.2759
16952TIP3    H272272   0.809   3.957   1.241  0.0006 -2.1978 -2.0844
16953TIP3   OH272273   5.313   5.275  14.502 -0.1737  0.2145 -0.3785
16953TIP3    H172274   5.396   5.227  14.509 -0.4177 -0.4250 -1.7058
16953TIP3    H272275   5.337   5.366  14.517  0.5285 -0.1355  0.7373
16954TIP3   OH272276   6.155   3.826   3.155 -0.5057 -0.2384  0.3039
16954TIP3    H172277   6.171   3.858   3.243 -0.3898  1.7695 -0.4303
16954TIP3    H272278   6.072   3.867   3.129 -0.8908 -1.3576 -0.2678
16955TIP3   OH272279   3.989   5.781   4.875 -0.5114  0.6141  0.1880
16955TIP3    H172280   4.073   5.736   4.863 -0.2582  0.9899  0.5699
16955TIP3    H272281   3.975   5.827   4.792 -0.5354  0.2283 -0.0251
16956TIP3   OH272282   5.441   3.602   2.878 -0.0423 -0.4327  0.5126
16956TIP3    H172283   5.504   3.567   2.941  0.6946  0.5558  0.3386
16956TIP3    H272284   5.454   3.549   2.799  0.4755 -0.3301  0.5259
16957TIP3   OH272285   2.800   0.157   2.527 -0.1722 -0.2514 -0.0210
16957TIP3    H172286   2.823   0.192   2.441 -1.1315 -1.8262 -0.9372
16957TIP3    H272287   2.883   0.158   2.576  1.0700 -2.1671 -1.9781
16958TIP3   OH272288   1.056   3.363  11.689  0.5074  0.5142  0.1887
16958TIP3    H172289   1.070   3.308  11.612  2.5918 -0.1300  0.9800
16958TIP3    H272290   0.997   3.311  11.744 -1.0962  1.0360 -1.0053
16959TIP3   OH272291   2.130   3.497  14.095  0.0010 -0.2003 -0.0725
16959TIP3    H172292   2.073   3.453  14.033  0.1777 -1.2340  0.4863
16959TIP3    H272293   2.072   3.525  14.165 -0.3768  1.9543 -1.2062
16960TIP3   OH272294   2.985   2.510  11.005 -0.2091  0.0599 -0.4621
16960TIP3    H172295   2.902   2.470  10.984  0.3297 -2.2957  1.6747
16960TIP3    H272296   3.051   2.454  10.963  0.4060  0.5004 -0.0977
16961TIP3   OH272297   5.847   6.064   6.487  0.3115  0.3130 -0.2688
16961TIP3    H172298   5.870   5.994   6.426 -0.2109  0.8729 -1.1181
16961TIP3    H272299   5.773   6.029   6.538  2.2872 -1.0745  1.7241
16962TIP3   OH272300   0.672   2.513   4.525  0.3019 -0.7947  0.3234
16962TIP3    H172301   0.650   2.606   4.512 -0.4115 -1.0051 -0.0169
16962TIP3    H272302   0.669   2.500   4.619 -0.1690 -0.6065  0.3349
16963TIP3   OH272303   2.331   4.450   2.325 -0.8678  0.7002 -0.2272
16963TIP3    H172304   2.327   4.544   2.341 -1.0665  0.5903  0.3765
16963TIP3    H272305   2.398   4.440   2.257  1.5571  0.9779  2.0544
16964TIP3   OH272306   5.814   6.751  10.308 -0.1472  0.2862  0.0240
16964TIP3    H172307   5.750   6.685  10.281  1.5949 -0.4391 -2.5043
16964TIP3    H272308   5.764   6.832  10.317 -1.4996 -0.3909 -1.3346
16965TIP3   OH272309   0.717   2.885  14.987 -0.2288  0.5244  0.4434
16965TIP3    H172310   0.792   2.826  14.996  0.1325  0.8985 -0.0777
16965TIP3    H272311   0.662   2.866  15.063  0.7913  0.8185  1.2660
16966TIP3   OH272312   0.585   3.296  15.332 -0.1481  0.4051  0.0375
16966TIP3    H172313   0.636   3.347  15.395  0.0173  3.3391 -2.3540
16966TIP3    H272314   0.645   3.283  15.258 -1.3520 -0.2700 -0.8269
16967TIP3   OH272315   0.842   4.478  16.260 -0.0031 -0.0818 -0.7344
16967TIP3    H172316   0.842   4.531  16.180  0.3152  0.1564 -0.5769
16967TIP3    H272317   0.920   4.424  16.254 -0.2509 -0.4323 -0.8238
16968TIP3   OH272318   2.300   4.837   1.941  0.3912  0.5540 -0.1532
16968TIP3    H172319   2.283   4.929   1.918 -2.7093 -0.1074 -0.7626
16968TIP3    H272320   2.356   4.805   1.870 -0.1241  1.4661 -0.9943
16969TIP3   OH272321   2.809   2.703  16.321  0.3273  0.5330  0.2953
16969TIP3    H172322   2.755   2.737  16.392  0.5818  0.2672  0.6212
16969TIP3    H272323   2.896   2.741  16.337  0.6074 -0.2580  0.6513
16970TIP3   OH272324   0.134   5.455   6.137  0.3857  0.4095  0.6207
16970TIP3    H172325   0.070   5.491   6.199  1.9593  1.6545  1.5367
16970TIP3    H272326   0.164   5.530   6.087 -0.8135 -0.5814 -1.6497
16971TIP3   OH272327   4.638   4.380   1.456  0.4890 -0.3761  0.4126
16971TIP3    H172328   4.730   4.375   1.481  0.4090 -0.3121  0.7177
16971TIP3    H272329   4.640   4.415   1.366  0.6593  1.5682  1.1557
16972TIP3   OH272330   4.261   0.206   3.614  0.6033 -0.2741  0.0259
16972TIP3    H172331   4.196   0.152   3.569  1.2341 -1.7234  0.8157
16972TIP3    H272332   4.300   0.147   3.679  2.8125  0.5153 -0.5427
16973TIP3   OH272333   1.168   6.279  12.695  0.9605 -0.2281 -0.3395
16973TIP3    H172334   1.173   6.183  12.697  0.1536 -0.2711 -0.2117
16973TIP3    H272335   1.129   6.303  12.779  1.9038  0.2673 -0.0385
16974TIP3   OH272336   6.280   3.398  12.968  0.0137 -0.2281  0.0964
16974TIP3    H172337   6.365   3.403  12.924 -0.4019 -0.9207 -0.7841
16974TIP3    H272338   6.234   3.326  12.925 -0.9089 -0.0532  0.7705
16975TIP3   OH272339   0.385   3.660   3.939 -0.4685 -0.0958 -0.2262
16975TIP3    H172340   0.441   3.737   3.946 -1.1767  0.1555  3.6410
16975TIP3    H272341   0.439   3.587   3.969 -1.5406 -0.1695  1.5875
16976TIP3   OH272342   5.848   1.459   0.245 -0.1197 -0.2839  0.5884
16976TIP3    H172343   5.901   1.475   0.323 -1.6303  0.7098  1.4364
16976TIP3    H272344   5.760   1.441   0.279 -1.3663  2.5824 -0.9438
16977TIP3   OH272345   6.470   1.520  14.536  0.4147 -0.0018 -0.0179
16977TIP3    H172346   6.533   1.496  14.604  0.2018 -2.4764 -0.6538
16977TIP3    H272347   6.391   1.544  14.584  1.2244  1.2866  0.7070
16978TIP3   OH272348   0.093   0.341  15.212 -0.8333 -0.4869 -0.2244
16978TIP3    H172349   0.151   0.394  15.157 -2.6127  1.3600 -0.3612
16978TIP3    H272350   0.006   0.357  15.177 -1.7943 -0.6173  2.0500
16979TIP3   OH272351   4.290   6.271  15.426  0.2902  0.3791 -0.2837
16979TIP3    H172352   4.261   6.185  15.457 -0.3886  0.5290 -0.4993
16979TIP3    H272353   4.365   6.293  15.482 -1.9108  1.4020  2.3677
16980TIP3   OH272354   0.557   2.562  14.721 -0.3253 -0.2400 -0.0211
16980TIP3    H172355   0.545   2.582  14.813  0.7496 -1.7994  0.4683
16980TIP3    H272356   0.564   2.466  14.717  2.6960 -0.0109 -1.3277
16981TIP3   OH272357   2.198   3.700   1.089 -0.1651 -0.1119  0.0223
16981TIP3    H172358   2.187   3.780   1.141 -0.4989 -0.6029  0.7107
16981TIP3    H272359   2.261   3.648   1.139  0.9292  0.2088 -0.9988
16982TIP3   OH272360   1.913   3.956  14.121  0.0196  0.3450  0.1298
16982TIP3    H172361   2.000   3.921  14.144 -0.7800 -2.8033 -1.3753
16982TIP3    H272362   1.931   4.046  14.093  3.0374 -0.7502 -1.7126
16983TIP3   OH272363   3.747   0.980   3.595 -0.3511 -0.1427  0.1757
16983TIP3    H172364   3.829   0.944   3.630 -0.1847  0.5113  0.4612
16983TIP3    H272365   3.742   1.068   3.630 -1.2742 -0.2370  0.3123
16984TIP3   OH272366   3.767   0.659   3.869 -0.2673 -0.0423  0.4595
16984TIP3    H172367   3.728   0.592   3.925  0.5318 -1.1637 -0.3084
16984TIP3    H272368   3.854   0.673   3.904  0.4289 -1.1320 -0.8092
16985TIP3   OH272369   2.078   5.611   0.383  0.2947 -0.1531  1.2639
16985TIP3    H172370   2.016   5.544   0.352  0.5617 -0.0323  0.4679
16985TIP3    H272371   2.128   5.567   0.452 -0.9228 -0.1394  2.1894
16986TIP3   OH272372   4.521   2.298   2.889 -0.1862 -0.0241  0.0854
16986TIP3    H172373   4.555   2.339   2.968 -0.4434  1.5908 -0.6160
16986TIP3    H272374   4.599   2.271   2.841 -0.0111 -0.2733  0.5059
16987TIP3   OH272375   6.140   2.343   2.559  0.4618 -0.4025 -0.3638
16987TIP3    H172376   6.087   2.311   2.485 -0.5197 -0.7487  0.4770
16987TIP3    H272377   6.092   2.420   2.591  0.7584 -0.4014  0.0761
16988TIP3   OH272378   5.856   5.527   4.545  0.6632 -0.3072 -0.4183
16988TIP3    H172379   5.857   5.547   4.638  1.3709 -1.8034 -0.0976
16988TIP3    H272380   5.763   5.529   4.521  0.1006 -3.6091  1.1547
16989TIP3   OH272381   6.114   1.810  14.801  0.1935  0.0613 -0.4693
16989TIP3    H172382   6.161   1.855  14.872  0.0945  0.0375 -0.3880
16989TIP3    H272383   6.060   1.879  14.762 -1.1685 -0.3276  0.6854
16990TIP3   OH272384   1.736   3.827   1.459 -0.3062 -0.2812 -0.1228
16990TIP3    H172385   1.777   3.768   1.522  0.3742  0.6622  0.3302
16990TIP3    H272386   1.762   3.792   1.374  1.1685  0.0773  0.1540
16991TIP3   OH272387   0.954   3.017   3.132  0.4388  0.2469 -0.3797
16991TIP3    H172388   0.981   3.102   3.098 -0.3338  0.1199 -1.3229
16991TIP3    H272389   1.036   2.975   3.158  1.0377  0.4192 -1.9265
16992TIP3   OH272390   5.683   4.037  14.407  0.1927 -0.2562  0.4186
16992TIP3    H172391   5.599   4.078  14.423  0.1000 -0.0041 -0.6663
16992TIP3    H272392   5.661   3.950  14.374  0.2649  0.7759 -2.5548
16993TIP3   OH272393   0.417   4.182   0.718 -0.3613  0.1199  0.5457
16993TIP3    H172394   0.491   4.154   0.772  0.1653 -2.4622 -1.3977
16993TIP3    H272395   0.340   4.157   0.769  0.1117  0.7248  1.5684
16994TIP3   OH272396   3.699   6.744  16.952  0.4416 -0.6575  0.2054
16994TIP3    H172397   3.731   6.723  16.865  1.2104 -0.1836  0.3700
16994TIP3    H272398   3.649   6.825  16.941  0.2500 -0.7822  0.1492
16995TIP3   OH272399   6.570   1.571  15.131 -0.2067 -0.3345 -0.2523
16995TIP3    H172400   6.607   1.569  15.219  0.7972 -0.7077 -0.6840
16995TIP3    H272401   6.514   1.493  15.127 -1.3351  0.4276  0.5235
16996TIP3   OH272402   1.853   2.689   2.383  0.4908  0.0506 -0.5966
16996TIP3    H172403   1.901   2.609   2.365 -0.5059 -0.3818 -1.3789
16996TIP3    H272404   1.768   2.660   2.418  0.1856  0.7628 -0.7217
16997TIP3   OH272405   4.393   4.336  12.613  0.4244 -0.3383 -0.0269
16997TIP3    H172406   4.362   4.419  12.578  1.0455 -1.0552 -2.3517
16997TIP3    H272407   4.320   4.302  12.665 -0.4637  0.8115 -0.5277
16998TIP3   OH272408   4.899   4.319   1.672 -0.2847 -0.0433  0.3902
16998TIP3    H172409   4.862   4.253   1.731 -1.9201 -0.2904 -0.8898
16998TIP3    H272410   4.865   4.402   1.706  0.4679  0.0043  1.0363
16999TIP3   OH272411   3.816   2.583  15.919 -0.0980 -0.5766 -0.0709
16999TIP3    H172412   3.837   2.673  15.943 -0.6738 -0.3832 -0.2634
16999TIP3    H272413   3.757   2.552  15.988 -1.7009 -0.0412 -1.1618
17000TIP3   OH272414   5.802   4.730  15.249 -0.0760  0.4186  0.2210
17000TIP3    H172415   5.860   4.802  15.224  0.8397 -0.7472 -1.0869
17000TIP3    H272416   5.841   4.693  15.327  1.2469 -0.6787 -0.9395
17001TIP3   OH272417   6.309   4.669  14.483 -0.5499 -0.1451  0.2306
17001TIP3    H172418   6.257   4.594  14.512  0.5966 -1.0331  0.0259
17001TIP3    H272419   6.281   4.684  14.393 -0.0055 -1.0198 -0.0887
17002TIP3   OH272420   2.449   2.799  16.816  0.0805 -0.6501  0.9595
17002TIP3    H172421   2.409   2.885  16.826  1.5127  0.0371  0.9107
17002TIP3    H272422   2.412   2.764  16.735 -0.0080  0.2081  0.6256
17003TIP3   OH272423   6.767   4.210  15.202 -0.0609 -0.1524 -0.0844
17003TIP3    H172424   6.694   4.205  15.140 -0.2606 -1.0176  0.2198
17003TIP3    H272425   6.764   4.300  15.234  0.1857  0.3766 -1.5033
17004TIP3   OH272426   5.167   5.605  11.082  0.0741  0.2374 -0.1230
17004TIP3    H172427   5.209   5.673  11.134  0.7173  1.1758 -1.8329
17004TIP3    H272428   5.208   5.610  10.996 -0.4810 -1.7398 -0.5532
17005TIP3   OH272429   0.501   5.828  11.587  0.9479 -0.3192 -0.1243
17005TIP3    H172430   0.517   5.913  11.629 -0.4557  0.0222 -0.2606
17005TIP3    H272431   0.575   5.817  11.527  1.6004  0.3954  0.5256
17006TIP3   OH272432   6.731   2.951   1.207 -0.0794  0.5185  0.3124
17006TIP3    H172433   6.819   2.916   1.194 -1.6151 -2.8085 -1.8480
17006TIP3    H272434   6.741   3.018   1.275  3.6485 -1.7057  2.0970
17007TIP3   OH272435   4.983   0.822  16.694  0.0362  0.0979 -0.2977
17007TIP3    H172436   5.017   0.819  16.605  1.6605 -1.7025  0.3316
17007TIP3    H272437   5.038   0.886  16.739  0.8587 -0.8002  0.0105
17008TIP3   OH272438   0.423   3.309  13.454 -0.4847 -0.2466 -0.6938
17008TIP3    H172439   0.476   3.322  13.376 -0.8551  0.3528 -0.8498
17008TIP3    H272440   0.431   3.392  13.503 -0.5206 -0.4942 -0.2638
17009TIP3   OH272441   4.836   5.496   4.971  0.4547  0.3029  0.0728
17009TIP3    H172442   4.816   5.589   4.961 -0.8475  0.1620  1.3778
17009TIP3    H272443   4.898   5.492   5.044  0.2839  0.1131  0.2086
17010TIP3   OH272444   1.523   5.932   2.356  0.0807  0.0644  0.2989
17010TIP3    H172445   1.460   6.002   2.340 -2.4229 -2.3791 -0.9773
17010TIP3    H272446   1.498   5.863   2.295  3.2555 -1.4851  0.6524
17011TIP3   OH272447   2.414   5.050  16.149  0.1942 -0.3275  0.5309
17011TIP3    H172448   2.383   5.051  16.240  1.8459 -2.2886  1.1590
17011TIP3    H272449   2.456   5.135  16.138 -1.4426  0.5791  1.0699
17012TIP3   OH272450   2.265   2.998  17.218 -0.2079  0.3175 -0.2036
17012TIP3    H172451   2.246   3.081  17.261 -1.3783  0.5589 -1.1553
17012TIP3    H272452   2.270   2.935  17.290  0.3514  1.1426  0.4988
17013TIP3   OH272453   0.234   0.087   5.403  0.5546 -0.2414 -0.6125
17013TIP3    H172454   0.171   0.145   5.360  0.6391 -0.4614 -1.0358
17013TIP3    H272455   0.285   0.145   5.460  1.9641  0.4524 -2.5146
17014TIP3   OH272456   5.620   3.950   3.266  0.6696 -0.4238 -0.3552
17014TIP3    H172457   5.603   4.028   3.214  0.5464 -0.4974 -0.4267
17014TIP3    H272458   5.553   3.887   3.238  1.2839 -0.8402 -0.8824
17015TIP3   OH272459   3.071   5.718   1.278  0.2706 -0.4912  0.2940
17015TIP3    H172460   2.996   5.740   1.333 -0.3302 -0.5042 -0.5092
17015TIP3    H272461   3.040   5.644   1.225  0.5940 -0.0099 -0.5735
17016TIP3   OH272462   1.176   5.785  17.108 -1.0235 -0.4502 -0.0069
17016TIP3    H172463   1.129   5.805  17.027 -0.5785  0.9823  0.0740
17016TIP3    H272464   1.265   5.815  17.092 -0.2226 -2.7634 -0.0014
17017TIP3   OH272465   3.511   2.241  15.859 -0.1215  0.1276  0.6213
17017TIP3    H172466   3.488   2.151  15.837 -1.5734  0.5572  0.3582
17017TIP3    H272467   3.540   2.236  15.950  2.1202 -0.9945 -0.1236
17018TIP3   OH272468   2.901   1.231   4.160  0.0018 -0.0607  0.1843
17018TIP3    H172469   2.841   1.224   4.235  0.4454  0.5607  0.6011
17018TIP3    H272470   2.918   1.140   4.135  1.5113 -0.3541  2.1619
17019TIP3   OH272471   2.335   0.448  12.379  0.9031  0.1856 -0.3894
17019TIP3    H172472   2.374   0.364  12.353  1.0097  0.2510 -0.4379
17019TIP3    H272473   2.303   0.433  12.468  2.2508  0.5528  0.1630
17020TIP3   OH272474   2.112   1.363   1.397 -0.1578  0.0593 -0.4047
17020TIP3    H172475   2.061   1.413   1.460  1.7417  1.9838 -0.3500
17020TIP3    H272476   2.048   1.334   1.331 -2.1891 -2.0499  2.3663
17021TIP3   OH272477   1.090   0.833  11.667  0.5412  0.3261  0.2367
17021TIP3    H172478   1.169   0.786  11.695  0.9975  1.8083  1.5694
17021TIP3    H272479   1.022   0.804  11.728  0.4511  0.2590  0.1042
17022TIP3   OH272480   1.624   1.576  13.279 -0.0604 -0.0133  0.4156
17022TIP3    H172481   1.584   1.508  13.333 -0.4493  0.5338  0.8259
17022TIP3    H272482   1.709   1.541  13.254  0.4831  0.0649  2.0734
17023TIP3   OH272483   2.818   1.193   4.989 -0.2859  0.5311 -0.1829
17023TIP3    H172484   2.799   1.181   4.896  3.1123  2.4060 -1.1941
17023TIP3    H272485   2.771   1.273   5.013 -0.2587  0.6786 -0.6090
17024TIP3   OH272486   6.484   1.771   0.976 -0.0001 -0.0002 -0.3193
17024TIP3    H172487   6.458   1.680   0.970  0.6952 -0.2834  0.7509
17024TIP3    H272488   6.533   1.777   1.058 -0.3540  1.4114 -0.1873
17025TIP3   OH272489   4.076   4.853   1.817 -0.1170 -0.5660  0.3169
17025TIP3    H172490   4.142   4.863   1.886 -0.1295 -0.1920  0.2800
17025TIP3    H272491   4.031   4.938   1.815 -0.6098 -0.8238  0.3540
17026TIP3   OH272492   4.676   5.698  13.316 -0.1686 -0.1358 -0.4558
17026TIP3    H172493   4.713   5.657  13.394  1.8710 -0.8988 -1.7734
17026TIP3    H272494   4.589   5.659  13.307 -0.4364 -0.0247  1.4143
17027TIP3   OH272495   1.288   5.563   5.401  0.3917  0.3990  0.3876
17027TIP3    H172496   1.337   5.549   5.320  0.8067  2.8662  0.1613
17027TIP3    H272497   1.344   5.524   5.469  0.8081 -0.2438 -0.3087
17028TIP3   OH272498   4.707   3.462  15.392 -0.7844  0.3947 -0.2696
17028TIP3    H172499   4.795   3.471  15.429 -1.2726  0.5869  0.8754
17028TIP3    H272500   4.696   3.369  15.375  0.3248  0.5934 -2.1446
17029TIP3   OH272501   2.039   1.068   1.089 -0.2967  0.7130 -0.4275
17029TIP3    H172502   2.012   1.154   1.122  1.3379  0.4794  1.6258
17029TIP3    H272503   2.133   1.077   1.075  0.2696 -1.3844  1.8576
17030TIP3   OH272504   6.000   2.814   0.363 -0.2344  0.2571  0.5786
17030TIP3    H172505   6.090   2.833   0.338 -0.2123 -0.5736 -0.0072
17030TIP3    H272506   5.948   2.883   0.322 -0.0533 -0.3271 -0.6717
17031TIP3   OH272507   3.898   0.883   2.257 -0.1145 -0.1694  0.1935
17031TIP3    H172508   3.981   0.836   2.244  0.7268  1.5165 -0.7267
17031TIP3    H272509   3.834   0.832   2.208  0.8067 -0.2971 -0.9060
17032TIP3   OH272510   6.322   0.671   2.138  0.6822 -0.9564 -0.4815
17032TIP3    H172511   6.252   0.618   2.178  0.8082  0.6686  2.0084
17032TIP3    H272512   6.400   0.617   2.147  0.3768 -1.3571 -0.1872
17033TIP3   OH272513   5.761   1.505   2.159 -0.0322 -0.4327  0.0080
17033TIP3    H172514   5.845   1.458   2.164 -0.2914 -1.0599 -1.1376
17033TIP3    H272515   5.696   1.440   2.186 -0.2389 -0.2639 -0.0807
17034TIP3   OH272516   0.186   1.621  14.039  0.1195 -0.2308 -0.1567
17034TIP3    H172517   0.195   1.683  13.968 -0.3243  1.0602  0.8947
17034TIP3    H272518   0.102   1.578  14.024 -1.5316  2.3724  1.3640
17035TIP3   OH272519   2.938   5.774  14.928  0.1370  0.1957  0.4282
17035TIP3    H172520   2.930   5.697  14.871  1.9396  0.7488 -0.6186
17035TIP3    H272521   2.857   5.823  14.915 -0.0619 -0.4008 -0.5901
17036TIP3   OH272522   1.650   4.703  15.594 -0.3393  0.1318  0.1063
17036TIP3    H172523   1.583   4.769  15.579 -1.1392 -0.6970 -0.0168
17036TIP3    H272524   1.655   4.655  15.511  0.6722  0.4211 -0.0096
17037TIP3   OH272525   2.538   0.845  12.144 -0.0085 -0.2074  0.4993
17037TIP3    H172526   2.548   0.820  12.236  1.0608 -1.8866 -0.0516
17037TIP3    H272527   2.502   0.767  12.102  1.6968 -0.2469 -0.9368
17038TIP3   OH272528   4.451   0.365  12.401  0.2078  0.6577  0.5227
17038TIP3    H172529   4.370   0.414  12.387  0.2362  0.4941 -0.2244
17038TIP3    H272530   4.474   0.382  12.493 -0.7232  0.6318  0.7645
17039TIP3   OH272531   6.558   4.100   1.908  0.3849  0.4559  0.2546
17039TIP3    H172532   6.539   4.166   1.840  1.5970  2.6365  1.9534
17039TIP3    H272533   6.652   4.087   1.901  0.0915 -1.4270 -0.3100
17040TIP3   OH272534   4.056   0.522  12.627  0.5639 -0.6193 -0.1702
17040TIP3    H172535   4.036   0.581  12.700  1.9034  1.5627 -1.5338
17040TIP3    H272536   3.996   0.448  12.640 -1.6027  1.3045  1.2197
17041TIP3   OH272537   2.080   2.395  15.836  0.0234 -0.1994 -0.0169
17041TIP3    H172538   2.091   2.489  15.819  0.1915 -0.3184 -0.5881
17041TIP3    H272539   1.996   2.388  15.881 -0.1479  0.1896 -0.2763
17042TIP3   OH272540   3.411   2.272   4.748 -0.0929 -0.4536 -0.1729
17042TIP3    H172541   3.344   2.203   4.747 -0.4707 -0.0905 -0.3433
17042TIP3    H272542   3.418   2.297   4.840 -0.4696 -0.2270 -0.2061
17043TIP3   OH272543   5.534   0.217  14.572 -0.1391  0.0823  0.4301
17043TIP3    H172544   5.493   0.243  14.655  0.1383  2.3657 -0.0993
17043TIP3    H272545   5.515   0.289  14.512 -1.1745 -1.9804 -1.8267
17044TIP3   OH272546   6.239   3.382   6.849 -0.3382  0.1065 -0.0302
17044TIP3    H172547   6.286   3.299   6.837 -1.8013 -0.7717  0.1195
17044TIP3    H272548   6.297   3.448   6.813  0.8857 -0.9826 -0.1047
17045TIP3   OH272549   5.740   4.385   4.048  0.2302 -0.2593  0.0164
17045TIP3    H172550   5.789   4.431   3.980  1.3523  1.7140  2.0510
17045TIP3    H272551   5.651   4.418   4.039 -0.3475 -2.4170 -2.4884
17046TIP3   OH272552   2.305   1.215   1.691  0.1552  0.0507 -0.0939
17046TIP3    H172553   2.237   1.263   1.645  1.2411 -0.1880 -2.0124
17046TIP3    H272554   2.271   1.204   1.779 -2.0389  0.4186 -0.8558
17047TIP3   OH272555   5.643   5.189   3.093  0.4477  0.0921  0.6750
17047TIP3    H172556   5.697   5.144   3.029  0.8523  1.1716  0.2547
17047TIP3    H272557   5.618   5.121   3.156  0.3672 -0.8788 -0.4093
17048TIP3   OH272558   4.461   1.520  13.448 -0.1161 -0.1485  0.2570
17048TIP3    H172559   4.372   1.530  13.482 -0.1948 -1.7096  0.5352
17048TIP3    H272560   4.517   1.540  13.523 -0.2262  0.3068  0.2223
17049TIP3   OH272561   4.909   3.732   1.355 -0.1106  0.2519 -0.4916
17049TIP3    H172562   4.954   3.785   1.290 -1.2921  0.0597 -1.4644
17049TIP3    H272563   4.820   3.724   1.323 -0.0174 -2.0987 -0.2122
17050TIP3   OH272564   0.299   3.898   3.006 -0.3481 -0.1480  0.0262
17050TIP3    H172565   0.277   3.975   2.955 -0.3232 -0.4016 -0.3684
17050TIP3    H272566   0.253   3.826   2.963  1.1872 -0.6717 -0.7800
17051TIP3   OH272567   5.441   1.085   2.441  0.2479  0.1223  0.3785
17051TIP3    H172568   5.531   1.079   2.409  0.1574 -0.1917  0.1849
17051TIP3    H272569   5.425   1.000   2.482 -0.3899 -0.2994 -0.7152
17052TIP3   OH272570   2.177   6.539  12.795  0.1071 -0.4817  0.1833
17052TIP3    H172571   2.253   6.598  12.797  0.0110 -0.4046  1.5331
17052TIP3    H272572   2.186   6.493  12.712  1.2080  0.0878 -0.0315
17053TIP3   OH272573   0.799   4.085   5.427  0.0215  0.6549 -0.3721
17053TIP3    H172574   0.746   4.051   5.499  0.4914  1.2257  0.2591
17053TIP3    H272575   0.769   4.038   5.350 -0.3245 -0.1448  0.2458
17054TIP3   OH272576   4.731   3.915   5.375 -0.6560  0.3830  0.0939
17054TIP3    H172577   4.741   3.872   5.290 -0.9324 -2.2350  1.3340
17054TIP3    H272578   4.648   3.961   5.369 -1.3310 -0.9104 -0.5922
17055TIP3   OH272579   0.036   1.453   1.047 -0.3359  0.4889  0.3146
17055TIP3    H172580   0.038   1.530   0.991  0.8876  0.1459 -0.1419
17055TIP3    H272581  -0.021   1.391   1.002 -0.5144  0.7541  0.1777
17056TIP3   OH272582   2.394   6.019   1.553 -0.2766  0.3764  0.3033
17056TIP3    H172583   2.411   5.984   1.640  1.0606  1.1892  0.3762
17056TIP3    H272584   2.319   6.078   1.565 -0.0021  0.6028  0.9232
17057TIP3   OH272585   5.491   2.014   6.305 -0.2871 -0.0794  0.0385
17057TIP3    H172586   5.441   1.934   6.319 -1.0703  0.1836 -1.1748
17057TIP3    H272587   5.574   1.999   6.351 -0.8617 -1.1396  0.7374
17058TIP3   OH272588   2.584   2.315   6.557  0.5289 -0.6686  0.4196
17058TIP3    H172589   2.666   2.352   6.526  0.4156 -0.7211  0.0623
17058TIP3    H272590   2.599   2.300   6.651  0.1396  1.4744  0.8593
17059TIP3   OH272591   1.139   6.603   3.069 -0.0685 -0.5152 -0.1120
17059TIP3    H172592   1.095   6.685   3.091 -1.0416 -0.6499 -1.4663
17059TIP3    H272593   1.095   6.537   3.123 -1.4810 -0.6193 -1.3275
17060TIP3   OH272594   3.147   0.865  15.581 -0.2779 -0.0998 -0.0537
17060TIP3    H172595   3.181   0.911  15.504 -2.2711  0.1340 -0.8261
17060TIP3    H272596   3.089   0.928  15.623  2.0492  0.3490  2.6104
17061TIP3   OH272597   5.292   3.724  17.057  0.0057  0.3189  0.7558
17061TIP3    H172598   5.365   3.781  17.080 -0.0697  0.4235  0.7394
17061TIP3    H272599   5.217   3.783  17.050 -0.5541 -0.0948  2.9925
17062TIP3   OH272600   5.744   1.237  14.348  0.2996  0.3528 -0.0176
17062TIP3    H172601   5.791   1.202  14.272  2.2250  0.4610  1.0779
17062TIP3    H272602   5.801   1.306  14.381 -0.3126  0.0187  1.7713
17063TIP3   OH272603   5.639   0.537  14.091  0.0442 -0.5544 -0.4010
17063TIP3    H172604   5.574   0.601  14.061  1.4294  0.5692 -1.0446
17063TIP3    H272605   5.624   0.460  14.037 -2.3996 -1.2273  1.1474
17064TIP3   OH272606   5.737   0.701  16.379 -0.5142 -0.2535  0.1388
17064TIP3    H172607   5.756   0.794  16.374  2.1958 -0.7105  1.2390
17064TIP3    H272608   5.815   0.662  16.417 -1.5878 -2.9921 -0.3177
17065TIP3   OH272609   4.528   5.303   1.867 -0.1415  0.1721 -0.3379
17065TIP3    H172610   4.504   5.377   1.923  0.1645  2.0352 -2.6245
17065TIP3    H272611   4.605   5.264   1.909 -1.5321 -0.1515  1.9920
17066TIP3   OH272612   0.779   5.135   2.405 -0.5167 -0.0342  0.1583
17066TIP3    H172613   0.774   5.196   2.332 -0.9823 -0.4381 -0.1536
17066TIP3    H272614   0.689   5.107   2.420 -0.4169  0.0038  0.8519
17067TIP3   OH272615   3.101   1.764  15.324  0.3300 -0.0896  0.0919
17067TIP3    H172616   3.173   1.717  15.368  0.8232 -1.4505 -2.0643
17067TIP3    H272617   3.125   1.856  15.331  2.6333 -0.5467 -1.0662
17068TIP3   OH272618   5.818   0.815  13.412  0.3577  0.2038  0.0877
17068TIP3    H172619   5.832   0.866  13.491 -1.2613 -0.6174  0.9486
17068TIP3    H272620   5.878   0.741  13.420  0.0467  0.0107  0.6637
17069TIP3   OH272621   5.012   0.784  15.307  0.2714  0.0839 -0.3117
17069TIP3    H172622   5.005   0.861  15.364  0.6169  0.0005 -0.1568
17069TIP3    H272623   5.070   0.725  15.355 -2.1608 -1.4245  0.8931
17070TIP3   OH272624   6.646   1.625  13.382  0.6207  0.9405  0.2431
17070TIP3    H172625   6.678   1.541  13.414  0.9148  1.2648  0.8182
17070TIP3    H272626   6.696   1.641  13.302  0.5421  0.5532  0.1171
17071TIP3   OH272627   1.176   5.815   5.412 -0.4611  0.8312  0.3446
17071TIP3    H172628   1.187   5.818   5.317  0.2760 -0.5201  0.3754
17071TIP3    H272629   1.217   5.733   5.438  0.6890  1.8937  2.0088
17072TIP3   OH272630   2.252   5.510  13.883 -0.2044 -0.0190  0.8869
17072TIP3    H172631   2.298   5.478  13.961  1.1987 -1.3826 -0.4792
17072TIP3    H272632   2.173   5.553  13.918  0.0036 -1.2943  3.0036
17073TIP3   OH272633   5.810   0.845   4.694  0.6723 -0.6256 -0.0246
17073TIP3    H172634   5.802   0.933   4.658 -1.2536 -1.0877 -0.8400
17073TIP3    H272635   5.825   0.858   4.787  1.1604  0.5733 -0.2660
17074TIP3   OH272636   5.512   5.617   3.659 -0.2567 -0.0579 -0.3834
17074TIP3    H172637   5.492   5.531   3.620 -0.2668 -1.1899  2.0663
17074TIP3    H272638   5.601   5.608   3.693 -0.4521  0.7252  0.3446
17075TIP3   OH272639   4.642   0.435   0.794 -0.1355 -0.0204 -0.2793
17075TIP3    H172640   4.722   0.462   0.841  0.5681 -2.7137  0.1557
17075TIP3    H272641   4.657   0.463   0.704  1.4600 -0.7900 -0.2664
17076TIP3   OH272642   4.824   3.136   6.308  0.1321  0.2440  0.9257
17076TIP3    H172643   4.749   3.173   6.355 -0.5961  0.4103 -0.3563
17076TIP3    H272644   4.786   3.090   6.234  1.2649 -0.2137  0.6175
17077TIP3   OH272645   5.775   6.697  15.477  0.5895  0.0958 -0.9537
17077TIP3    H172646   5.741   6.682  15.565  1.5764  0.7795 -0.4413
17077TIP3    H272647   5.805   6.611  15.448  1.2844  0.0750 -0.1847
17078TIP3   OH272648   4.934   5.062   6.063  0.1267 -0.2658  0.7736
17078TIP3    H172649   4.907   4.994   6.001 -0.0279  0.5154 -0.0128
17078TIP3    H272650   4.974   5.013   6.135 -0.1914 -1.2099  0.3184
17079TIP3   OH272651   6.460   1.227   0.464  0.8331  0.1030 -0.7269
17079TIP3    H172652   6.521   1.155   0.479 -0.3929 -1.2827 -2.2214
17079TIP3    H272653   6.504   1.303   0.501  2.5905 -1.2236  0.0088
17080TIP3   OH272654   3.785   6.267   4.308 -0.4400  0.1166 -0.2270
17080TIP3    H172655   3.789   6.259   4.403  0.0668 -2.8164 -0.4526
17080TIP3    H272656   3.842   6.342   4.287 -1.5832  1.5999  1.8416
17081TIP3   OH272657   3.136   5.625  11.559  0.3837  0.3128 -0.2181
17081TIP3    H172658   3.107   5.591  11.643  0.2585 -0.1324 -0.4419
17081TIP3    H272659   3.064   5.682  11.530 -0.0034 -0.3187 -0.4925
17082TIP3   OH272660   5.611   0.796   1.598 -0.3505 -0.1073 -0.1824
17082TIP3    H172661   5.530   0.845   1.608  0.2302  1.0765 -1.2057
17082TIP3    H272662   5.622   0.784   1.504 -0.5975 -2.4325  0.0367
17083TIP3   OH272663   1.996   2.952  17.146 -0.0150 -0.2963  0.4344
17083TIP3    H172664   1.999   2.858  17.164  0.5746 -0.0906  1.4761
17083TIP3    H272665   2.086   2.982  17.160 -0.5285  0.7015  1.7561
17084TIP3   OH272666   1.009   6.042  13.730 -0.0140 -0.5593 -0.1364
17084TIP3    H172667   0.942   6.028  13.663  0.8349 -1.7098 -0.7709
17084TIP3    H272668   1.050   6.125  13.706 -0.4798 -0.3933 -0.3691
17085TIP3   OH272669   1.640   2.562   3.448  0.9332 -0.2557 -0.4186
17085TIP3    H172670   1.611   2.551   3.357  0.9923  0.1704 -0.4894
17085TIP3    H272671   1.587   2.634   3.482  1.3178 -0.0304 -0.2928
17086TIP3   OH272672   0.954   4.907   1.704 -0.0543 -0.2782 -0.3767
17086TIP3    H172673   0.903   4.907   1.785 -1.5896  0.3901 -1.3128
17086TIP3    H272674   1.039   4.943   1.730 -0.7734  0.6563  0.7952
17087TIP3   OH272675   1.563   4.462  11.152  0.3553  0.3844  1.0891
17087TIP3    H172676   1.590   4.370  11.153 -1.5288 -0.2398 -1.0546
17087TIP3    H272677   1.619   4.504  11.218  3.1763 -1.7399  0.1571
17088TIP3   OH272678   2.611   0.660   5.072 -0.2192  0.5387  0.2179
17088TIP3    H172679   2.624   0.738   5.017  1.7781  0.3942  0.4776
17088TIP3    H272680   2.526   0.626   5.043 -0.2703  1.7689 -1.1808
17089TIP3   OH272681   0.744   3.925  12.245  0.2793 -0.0970 -0.0422
17089TIP3    H172682   0.812   3.990  12.227  0.7662 -0.0448  1.9680
17089TIP3    H272683   0.790   3.841  12.245 -0.0483 -0.2917 -0.8103
17090TIP3   OH272684   3.424   3.000   3.980  0.6558 -0.6015 -0.6884
17090TIP3    H172685   3.473   3.035   3.906  2.0399 -1.0444  0.0199
17090TIP3    H272686   3.352   2.951   3.940 -0.1839  1.4072 -1.7144
17091TIP3   OH272687   0.497   3.018   2.707  0.4075  0.4812  0.3874
17091TIP3    H172688   0.421   2.991   2.655  0.0415  2.5760 -0.2381
17091TIP3    H272689   0.463   3.028   2.796  0.6656 -1.5499  0.7272
17092TIP3   OH272690   4.533   2.821   2.625  0.9072 -0.0969 -0.4988
17092TIP3    H172691   4.599   2.760   2.593  0.0503 -2.0606  1.3408
17092TIP3    H272692   4.451   2.791   2.585  0.7202  0.7462 -0.7543
17093TIP3   OH272693   6.130   5.810   1.366  0.4504 -0.3701 -0.4582
17093TIP3    H172694   6.126   5.718   1.341  0.5155 -0.2037 -1.1050
17093TIP3    H272695   6.068   5.818   1.439 -1.0719 -0.5271 -1.6919
17094TIP3   OH272696   5.805   2.471  11.494  0.1552 -0.0619 -0.3729
17094TIP3    H172697   5.744   2.531  11.537  1.0346  0.2380  0.4708
17094TIP3    H272698   5.823   2.513  11.410 -0.1068  0.2917 -0.2555
17095TIP3   OH272699   2.548   6.739  14.667  0.2764  0.3228 -0.2623
17095TIP3    H172700   2.562   6.826  14.705  0.6963 -0.2963  1.0229
17095TIP3    H272701   2.572   6.678  14.737  1.4321 -0.8375 -1.6429
17096TIP3   OH272702   1.968   4.270  11.621  0.1391 -0.2898 -0.2201
17096TIP3    H172703   1.930   4.236  11.540 -0.4290  0.5062 -0.2975
17096TIP3    H272704   1.999   4.357  11.598  0.0253 -0.0788  0.3999
17097TIP3   OH272705   1.847   4.989   3.383  0.4106 -0.1502 -0.2880
17097TIP3    H172706   1.814   4.932   3.314  3.0132 -1.1974 -0.7568
17097TIP3    H272707   1.774   5.047   3.404 -1.3137 -1.6467 -1.9585
17098TIP3   OH272708   0.828   5.934  17.125 -0.4613 -0.3126  0.2928
17098TIP3    H172709   0.848   5.905  17.215  0.9949  0.0986  0.1186
17098TIP3    H272710   0.868   6.020  17.118  1.2092 -1.1877 -1.3942
17099TIP3   OH272711   5.735   4.635   2.941  0.1812  0.1970  0.1433
17099TIP3    H172712   5.665   4.700   2.953 -0.3667 -0.2898 -0.4102
17099TIP3    H272713   5.734   4.615   2.848  0.5007 -0.4351  0.2731
17100TIP3   OH272714   2.485   0.670   4.779 -0.4420 -0.0703 -0.4815
17100TIP3    H172715   2.459   0.674   4.871  0.8181 -0.5664 -0.0970
17100TIP3    H272716   2.489   0.576   4.760  0.5735  0.0112 -0.6706
17101TIP3   OH272717   2.917   4.311  14.736 -0.7689  0.3117  0.0509
17101TIP3    H172718   2.824   4.328  14.754 -1.0235 -2.3592  1.5569
17101TIP3    H272719   2.919   4.291  14.643 -1.7959 -0.1261  0.1114
17102TIP3   OH272720   2.291   6.550  13.155 -0.6574 -0.3556  0.1101
17102TIP3    H172721   2.216   6.493  13.170  0.1396 -1.3289  0.3796
17102TIP3    H272722   2.330   6.518  13.073 -0.5771  0.2019 -0.0740
17103TIP3   OH272723   4.531   3.493   2.231  0.3341 -0.2523  0.2010
17103TIP3    H172724   4.454   3.525   2.278  0.0623 -1.1323  0.3611
17103TIP3    H272725   4.503   3.411   2.191  1.6669 -1.4795  1.6851
17104TIP3   OH272726   1.624   3.838   3.240 -0.6239 -0.2507  0.0835
17104TIP3    H172727   1.668   3.918   3.269  1.3784 -1.6911  1.1090
17104TIP3    H272728   1.556   3.869   3.179 -0.0956  2.2332  0.6985
17105TIP3   OH272729   0.241   6.602  11.447  0.3026 -0.2729  0.9588
17105TIP3    H172730   0.183   6.678  11.438 -0.1133 -0.5231  1.4775
17105TIP3    H272731   0.287   6.616  11.530  0.9828 -0.0766  0.5470
17106TIP3   OH272732   3.526   3.620  11.478  0.1076 -0.5203  0.3579
17106TIP3    H172733   3.458   3.553  11.487  1.0379 -1.3186  1.5362
17106TIP3    H272734   3.536   3.656  11.566  0.3685  0.4530 -0.0549
17107TIP3   OH272735   4.684   2.981   0.906 -0.1170 -0.3485 -0.5489
17107TIP3    H172736   4.633   3.061   0.911  0.3419  0.0152 -1.6023
17107TIP3    H272737   4.761   2.999   0.961 -0.9270 -0.7558  0.7211
17108TIP3   OH272738   4.200   5.786   5.641 -0.2980 -0.0819  0.3094
17108TIP3    H172739   4.128   5.822   5.588  1.7293  1.7130 -1.2873
17108TIP3    H272740   4.212   5.698   5.606 -0.3207  0.3733 -0.8701
17109TIP3   OH272741   0.383   0.136  12.315  0.5935  0.0178 -0.6145
17109TIP3    H172742   0.378   0.061  12.255 -1.5284  0.7356 -1.3831
17109TIP3    H272743   0.335   0.205  12.270  0.9144  1.2639  0.9375
17110TIP3   OH272744   4.868   3.952   0.252 -0.7091  0.1762  0.4689
17110TIP3    H172745   4.833   3.909   0.174  1.6700  2.2295 -1.8275
17110TIP3    H272746   4.951   3.908   0.269  0.6932  2.3680 -0.5878
17111TIP3   OH272747   5.549   0.395   0.674 -0.3804 -0.2434  0.0993
17111TIP3    H172748   5.489   0.433   0.610 -0.1011 -0.8407 -0.5200
17111TIP3    H272749   5.627   0.374   0.624 -0.4537 -1.4551  0.4786
17112TIP3   OH272750   1.898   4.035  17.068  0.4252 -0.1435  0.5059
17112TIP3    H172751   1.828   4.080  17.117 -0.4982 -0.2673 -0.6791
17112TIP3    H272752   1.959   4.105  17.044 -0.3630  0.3075 -0.2405
17113TIP3   OH272753   0.796   2.811   2.611 -0.0479 -0.5620  0.5373
17113TIP3    H172754   0.734   2.788   2.680  0.1894 -0.1743  0.8844
17113TIP3    H272755   0.843   2.887   2.645  0.5143 -0.7590  0.2187
17114TIP3   OH272756   0.446   4.148   0.257 -0.8141 -0.6127  0.2652
17114TIP3    H172757   0.481   4.227   0.216  0.2395 -0.5484  1.2541
17114TIP3    H272758   0.459   4.079   0.192  1.5251 -0.6613  0.7470
17115TIP3   OH272759   5.300   4.161   2.964  0.0611  0.1160  0.1283
17115TIP3    H172760   5.395   4.153   2.957  0.1365  0.9653  0.0437
17115TIP3    H272761   5.283   4.160   3.058 -0.0265 -1.8261  0.1021
17116TIP3   OH272762   0.675   1.258  16.865  0.5754  0.0794  0.4417
17116TIP3    H172763   0.622   1.302  16.932 -1.2863 -1.7565  0.2221
17116TIP3    H272764   0.658   1.307  16.785 -0.6191 -0.3330  0.4280
17117TIP3   OH272765   1.267   2.314   6.653  0.0048 -0.2160 -0.4004
17117TIP3    H172766   1.338   2.376   6.666 -0.4641  0.2304  0.0451
17117TIP3    H272767   1.299   2.255   6.585  0.6369  0.2275 -0.4917
17118TIP3   OH272768   5.764   2.655   2.781  0.5801  0.1202  0.2675
17118TIP3    H172769   5.759   2.704   2.863  1.4391  0.9926 -0.1876
17118TIP3    H272770   5.751   2.721   2.713  0.2363 -0.5392 -0.3063
17119TIP3   OH272771   5.385   6.543   5.644  0.2657 -0.3385  0.5012
17119TIP3    H172772   5.354   6.585   5.564  2.1567 -2.1691 -1.2533
17119TIP3    H272773   5.439   6.610   5.686 -0.7045  0.6248  0.2176
17120TIP3   OH272774   0.036   0.583   1.284 -0.3229  0.0565  0.3380
17120TIP3    H172775   0.124   0.545   1.278  0.2606  1.5000 -0.4158
17120TIP3    H272776  -0.019   0.511   1.317  1.1139 -0.8774  0.7328
17121TIP3   OH272777   4.960   4.095  13.881  0.4163 -0.5004 -0.1084
17121TIP3    H172778   4.942   4.002  13.866  1.8900 -0.6258 -1.2552
17121TIP3    H272779   4.927   4.138  13.802  1.5352 -0.2894 -0.4660
17122TIP3   OH272780   1.989   5.810  13.774 -0.2658 -0.2592  0.4723
17122TIP3    H172781   1.893   5.804  13.771 -0.5085  2.6141  0.6586
17122TIP3    H272782   2.014   5.757  13.849 -1.6551 -1.5238  0.0707
17123TIP3   OH272783   4.746   5.226  10.508 -0.1924  0.1554  0.2407
17123TIP3    H172784   4.749   5.311  10.464 -1.8421 -0.2591 -0.7545
17123TIP3    H272785   4.676   5.179  10.462 -0.5993 -1.0279  2.0478
17124TIP3   OH272786   3.555   3.761   5.452 -0.8068  0.4617  0.2996
17124TIP3    H172787   3.525   3.838   5.499  0.0497  1.2826 -0.4670
17124TIP3    H272788   3.478   3.703   5.448 -1.7966  1.7781 -0.1412
17125TIP3   OH272789   6.286   5.432  15.783  0.0474  0.1302  0.0012
17125TIP3    H172790   6.204   5.474  15.756 -0.7033 -0.4891  1.3032
17125TIP3    H272791   6.286   5.436  15.878  0.4036 -1.9628  0.1315
17126TIP3   OH272792   2.982   3.136  16.589  0.7960 -0.4554 -0.1862
17126TIP3    H172793   2.952   3.097  16.507 -1.0509 -2.4634  1.3674
17126TIP3    H272794   3.028   3.065  16.634  0.6349  0.2345  1.0863
17127TIP3   OH272795   4.497   0.716  16.251  0.0781 -0.4556 -0.3188
17127TIP3    H172796   4.519   0.639  16.200 -0.0031 -0.8770  0.2817
17127TIP3    H272797   4.544   0.788  16.208  2.0489 -1.2161  0.5016
17128TIP3   OH272798   1.519   2.751   0.374  0.0020  0.1500  0.1696
17128TIP3    H172799   1.547   2.707   0.294 -0.9510 -0.5060  0.1838
17128TIP3    H272800   1.476   2.831   0.344  0.8843  0.5947  0.0942
17129TIP3   OH272801   6.433   6.267  13.004 -0.2828 -0.1252 -0.0581
17129TIP3    H172802   6.470   6.336  13.060 -2.6291  2.4816 -1.5837
17129TIP3    H272803   6.352   6.241  13.049  0.8690 -2.3553  0.7965
17130TIP3   OH272804   4.522   3.942  17.199 -0.8788  0.1125  0.0082
17130TIP3    H172805   4.436   3.908  17.174 -0.8520 -0.1285  0.2410
17130TIP3    H272806   4.550   3.886  17.271 -0.5405  0.2163 -0.0435
17131TIP3   OH272807   3.573   4.549  16.948 -0.6584 -0.0128  0.3062
17131TIP3    H172808   3.478   4.535  16.950 -0.7913  1.0433  2.9323
17131TIP3    H272809   3.605   4.483  16.887 -3.3672  1.5388 -2.9528
17132TIP3   OH272810   0.067   0.427  12.682  0.6892  0.1295  0.4669
17132TIP3    H172811   0.000   0.439  12.750  1.2083 -0.2547  1.0577
17132TIP3    H272812   0.142   0.478  12.712  0.5690  0.7865 -0.3354
17133TIP3   OH272813   0.323   2.158  15.142  0.0391 -0.5122 -0.2287
17133TIP3    H172814   0.267   2.220  15.190 -0.2403 -0.7859 -0.2047
17133TIP3    H272815   0.325   2.193  15.052  0.6606  0.0678  0.0030
17134TIP3   OH272816   2.407   2.233   5.119  0.3508  0.1337  0.5675
17134TIP3    H172817   2.476   2.271   5.173  0.5319  0.1319  0.3405
17134TIP3    H272818   2.327   2.279   5.146  0.4556  0.2022  0.7643
17135TIP3   OH272819   2.973   1.365  15.816  0.4201 -0.4323 -0.3557
17135TIP3    H172820   2.994   1.415  15.895  1.0979 -1.5664  0.1935
17135TIP3    H272821   2.881   1.340  15.828  0.4413 -0.3691 -0.0416
17136TIP3   OH272822   4.290   1.823   4.016  0.3652  0.3818  0.3331
17136TIP3    H172823   4.270   1.832   4.109 -0.5095  2.1597 -0.0081
17136TIP3    H272824   4.258   1.904   3.976  1.4518 -0.0035 -1.3977
17137TIP3   OH272825   0.600   2.146   2.365 -0.4290 -0.9802 -0.2430
17137TIP3    H172826   0.653   2.074   2.331  0.3121 -1.7693  2.4060
17137TIP3    H272827   0.530   2.104   2.414 -0.6558  0.0972  0.3828
17138TIP3   OH272828   2.357   3.602  11.282  0.3819 -0.6770 -0.4590
17138TIP3    H172829   2.429   3.664  11.295  1.0927 -1.9219  1.8271
17138TIP3    H272830   2.359   3.581  11.189  0.1280  2.6969 -1.2867
17139TIP3   OH272831   1.541   5.270  12.013 -0.4443  0.5426 -0.4563
17139TIP3    H172832   1.487   5.253  11.936 -1.5203  1.3722  0.1141
17139TIP3    H272833   1.603   5.197  12.015 -2.1836 -0.9657 -0.5288
17140TIP3   OH272834   0.752   6.630  13.218 -0.0491  0.0831 -0.1370
17140TIP3    H172835   0.816   6.562  13.198  0.7999  1.0012 -0.5923
17140TIP3    H272836   0.795   6.685  13.284 -0.9409 -0.1231  0.6389
17141TIP3   OH272837   5.567   6.726   5.770 -0.0644 -0.1064  1.0043
17141TIP3    H172838   5.615   6.659   5.819  2.1726  1.1142  0.5477
17141TIP3    H272839   5.542   6.791   5.835  2.0958  1.0491  0.7248
17142TIP3   OH272840   0.031   3.501   5.116 -0.1368 -1.0396  0.2677
17142TIP3    H172841   0.041   3.454   5.033  3.2009 -0.5852  0.3346
17142TIP3    H272842  -0.005   3.586   5.091  1.6706 -0.5686 -0.8854
17143TIP3   OH272843   0.379   0.834   1.618 -0.5487 -0.2182  0.3003
17143TIP3    H172844   0.371   0.761   1.680 -0.2632  0.7696  1.5130
17143TIP3    H272845   0.466   0.823   1.579 -0.3630 -0.3316  0.7442
17144TIP3   OH272846   0.160   6.423   4.558  0.4589 -0.0512 -0.4568
17144TIP3    H172847   0.082   6.417   4.613  0.5561 -0.9857 -0.4001
17144TIP3    H272848   0.146   6.356   4.490  1.2987 -0.3680 -0.3265
17145TIP3   OH272849   5.119   3.686  16.348  0.0616  0.1872 -0.0603
17145TIP3    H172850   5.040   3.731  16.378 -0.1888  0.2965 -0.8674
17145TIP3    H272851   5.087   3.600  16.319  0.0220  0.7152 -1.6415
17146TIP3   OH272852   3.329   4.937   5.889  0.1547 -0.3631  0.8904
17146TIP3    H172853   3.260   4.878   5.861  1.0944 -0.8848 -0.3835
17146TIP3    H272854   3.295   5.024   5.871  0.6225 -0.6799 -1.6930
17147TIP3   OH272855   1.033   3.178   1.702  0.7021 -0.0332  0.0591
17147TIP3    H172856   1.032   3.163   1.797 -1.9325  1.2066  0.2823
17147TIP3    H272857   1.116   3.222   1.685  2.1735 -2.1454  1.4353
17148TIP3   OH272858   4.578   1.124   1.434 -0.4367 -0.4964 -0.2912
17148TIP3    H172859   4.535   1.082   1.509  0.3848 -1.1138 -0.1529
17148TIP3    H272860   4.538   1.083   1.357 -1.1233 -0.0232 -0.1881
17149TIP3   OH272861   3.303   1.622  16.078  0.1558 -0.0290 -0.5238
17149TIP3    H172862   3.384   1.625  16.028  0.6218  0.6520  0.2558
17149TIP3    H272863   3.331   1.622  16.170 -0.7302  0.5874 -0.2417
17150TIP3   OH272864   0.876   4.457  13.827 -0.3735  0.7292 -0.6371
17150TIP3    H172865   0.827   4.528  13.868 -0.3186  0.0723  0.5947
17150TIP3    H272866   0.964   4.465  13.862 -0.6813 -0.7249  0.5506
17151TIP3   OH272867   3.291   6.603   6.435  0.1151  0.2495 -0.0926
17151TIP3    H172868   3.292   6.508   6.446  3.4031  0.3508  1.3201
17151TIP3    H272869   3.349   6.635   6.505 -0.5397  3.2486 -0.8686
17152TIP3   OH272870   5.023   2.416   6.664 -0.2969  0.8018 -0.5380
17152TIP3    H172871   5.061   2.330   6.682  0.2350  0.8840 -1.2446
17152TIP3    H272872   4.934   2.397   6.635  0.3071  0.3692 -2.1883
17153TIP3   OH272873   3.301   1.706  10.730 -0.3602 -0.1136 -0.1707
17153TIP3    H172874   3.268   1.702  10.641 -0.7921  0.0883 -0.0194
17153TIP3    H272875   3.342   1.792  10.737  0.0001 -0.2773 -0.2913
17154TIP3   OH272876   2.834   3.407  16.994  0.2722  0.2782  0.5762
17154TIP3    H172877   2.855   3.500  16.986  0.5281  0.2702  1.1240
17154TIP3    H272878   2.853   3.370  16.908  1.2158  0.5201  0.6839
17155TIP3   OH272879   2.579   5.542  16.402  0.0091 -0.2479  0.0192
17155TIP3    H172880   2.612   5.490  16.475  0.5068 -0.6663 -0.5048
17155TIP3    H272881   2.584   5.632  16.432 -2.9616 -0.5946  1.8151
17156TIP3   OH272882   5.426   3.686   6.205 -0.7104 -0.5848 -0.5751
17156TIP3    H172883   5.454   3.754   6.267 -1.8822 -1.8012  1.3728
17156TIP3    H272884   5.433   3.727   6.119  4.2445  0.0586  0.0055
17157TIP3   OH272885   1.298   2.140  17.225 -0.0746 -0.1660  0.1559
17157TIP3    H172886   1.270   2.142  17.134  0.8776  1.9376 -0.1138
17157TIP3    H272887   1.219   2.160  17.275 -0.6928 -1.7480 -0.1635
17158TIP3   OH272888   5.521   1.649   4.042 -0.3370 -0.9280 -0.0380
17158TIP3    H172889   5.544   1.641   4.134  1.7457  0.8550 -0.3635
17158TIP3    H272890   5.580   1.589   3.997 -1.2773 -1.7144 -0.2256
17159TIP3   OH272891   5.780   1.813   2.339  0.2905  0.2712 -0.1726
17159TIP3    H172892   5.789   1.822   2.434  1.3551 -0.1177 -0.2256
17159TIP3    H272893   5.689   1.837   2.321 -0.0842 -0.2080  1.0152
17160TIP3   OH272894   2.315   1.944   1.914  0.0669  0.2631 -0.3858
17160TIP3    H172895   2.296   1.867   1.967  1.7420  0.3677  0.4069
17160TIP3    H272896   2.340   1.909   1.828  2.5835 -0.2100  0.4954
17161TIP3   OH272897   2.328   0.963   6.053  0.4240  0.4639  0.1414
17161TIP3    H172898   2.277   0.985   6.132  4.1792  1.4209  2.3969
17161TIP3    H272899   2.398   0.906   6.085  0.5965 -1.1649 -2.9693
17162TIP3   OH272900   0.726   2.667   3.758 -0.0216 -0.5332  0.9182
17162TIP3    H172901   0.747   2.593   3.815  0.4120 -0.3239  1.0353
17162TIP3    H272902   0.766   2.743   3.802  0.8867 -0.4667 -0.0019
17163TIP3   OH272903   1.179   3.023  12.270  0.1614 -0.0697 -0.0020
17163TIP3    H172904   1.146   3.062  12.190 -0.2650 -0.9425 -0.2588
17163TIP3    H272905   1.116   2.954  12.291 -0.1347  0.6275  1.4779
17164TIP3   OH272906   2.741   1.544   4.018 -0.2079 -0.0968 -0.3787
17164TIP3    H172907   2.687   1.555   4.096 -0.7391  0.9747 -0.8990
17164TIP3    H272908   2.726   1.453   3.991 -1.4992  0.1004 -0.3341
17165TIP3   OH272909   1.195   2.073   5.102 -0.2273  0.4572 -0.4648
17165TIP3    H172910   1.190   2.088   5.196  0.6892 -1.6712 -0.0423
17165TIP3    H272911   1.220   1.981   5.094  2.3186  1.3042 -2.7572
17166TIP3   OH272912   2.130   1.487   6.418 -0.0812  0.3755 -0.1822
17166TIP3    H172913   2.200   1.498   6.483  0.4226 -0.9146 -0.4902
17166TIP3    H272914   2.150   1.405   6.374 -1.1811  0.5488 -1.0496
17167TIP3   OH272915   5.147   1.083   5.447  0.0369  0.2930 -0.0699
17167TIP3    H172916   5.209   1.147   5.483  0.6785  0.8902 -2.1579
17167TIP3    H272917   5.108   1.128   5.372 -0.5755 -1.2521 -0.6831
17168TIP3   OH272918   6.309   2.536  15.970  0.0336 -0.0509 -0.3123
17168TIP3    H172919   6.230   2.528  15.917 -0.7093 -0.8722  0.8745
17168TIP3    H272920   6.374   2.574  15.912 -1.2098  0.5357 -1.3434
17169TIP3   OH272921   3.601   5.772  15.496 -0.2610  0.2760 -0.3507
17169TIP3    H172922   3.553   5.800  15.574  1.0837  1.2770  0.1365
17169TIP3    H272923   3.541   5.713  15.451 -1.0279 -0.3643  1.4748
17170TIP3   OH272924   0.557   2.783  12.297  0.5871 -0.1124  0.0367
17170TIP3    H172925   0.574   2.862  12.245 -0.1571  1.0087  1.4642
17170TIP3    H272926   0.478   2.745  12.256 -1.1720  1.8358  1.4995
17171TIP3   OH272927   1.041   0.766  13.443 -0.2674 -0.3938  0.4212
17171TIP3    H172928   0.987   0.690  13.420 -0.2065 -0.1815 -0.4297
17171TIP3    H272929   1.077   0.796  13.360 -0.4732  0.7027  0.7170
17172TIP3   OH272930   5.077   3.203  12.204  0.6656 -0.5163 -0.1613
17172TIP3    H172931   5.096   3.138  12.136 -1.0925 -1.4742  0.2343
17172TIP3    H272932   4.984   3.192  12.223  0.7853  0.7851  1.3185
17173TIP3   OH272933   6.284   3.345  15.520  0.0152 -0.6369 -0.0818
17173TIP3    H172934   6.257   3.256  15.496  1.1786 -0.7558 -0.9886
17173TIP3    H272935   6.240   3.362  15.603  0.1033 -2.2115  0.3010
17174TIP3   OH272936   0.383   1.357   2.386 -1.0138 -0.1638  0.3635
17174TIP3    H172937   0.348   1.269   2.397 -2.5241  0.1909 -1.3211
17174TIP3    H272938   0.337   1.391   2.309  3.9954 -0.1588 -2.8471
17175TIP3   OH272939   3.238   3.218   4.529  0.1602  0.1496  0.1050
17175TIP3    H172940   3.244   3.306   4.492 -1.5534  0.3226  0.2274
17175TIP3    H272941   3.292   3.222   4.608 -2.2165  1.9720  1.7296
17176TIP3   OH272942   5.645   6.204   3.300 -1.0250 -0.2463 -0.0781
17176TIP3    H172943   5.674   6.133   3.243 -1.0163 -0.7614  0.5599
17176TIP3    H272944   5.552   6.214   3.282 -0.5671  1.1416 -1.8451
17177TIP3   OH272945   2.007   5.948   3.482  0.2828 -0.2634  0.0159
17177TIP3    H172946   2.079   5.975   3.539  0.3287 -2.3265  0.9822
17177TIP3    H272947   1.993   5.856   3.504  0.2149 -1.0780 -3.2328
17178TIP3   OH272948   2.622   2.530   1.286 -0.6119  0.0340  0.3429
17178TIP3    H172949   2.697   2.488   1.243 -2.0270 -1.1124 -1.0737
17178TIP3    H272950   2.645   2.530   1.379 -0.3816 -3.6246  0.3746
17179TIP3   OH272951   6.694   5.246   4.524 -0.0967 -0.0363  0.2195
17179TIP3    H172952   6.698   5.242   4.428 -0.4368  1.0991  0.1560
17179TIP3    H272953   6.637   5.173   4.548  0.5679 -0.7755 -0.3918
17180TIP3   OH272954   2.951   2.625  16.554  0.1509 -0.8124 -0.2785
17180TIP3    H172955   2.986   2.537  16.568 -0.6723 -1.3219 -1.3212
17180TIP3    H272956   2.921   2.653  16.640 -0.7095 -2.0523 -0.1584
17181TIP3   OH272957   4.020   3.649  10.835 -0.4136 -0.5377  0.1961
17181TIP3    H172958   4.032   3.715  10.904 -0.3867  2.5006 -2.5693
17181TIP3    H272959   4.109   3.623  10.811 -0.3626 -0.3472  0.1760
17182TIP3   OH272960   2.694   3.975   6.013  0.4064 -0.3457 -0.4535
17182TIP3    H172961   2.712   4.067   6.029  1.5111 -0.3876 -1.3419
17182TIP3    H272962   2.623   3.974   5.949 -1.1275 -0.1483  1.2050
17183TIP3   OH272963   5.043   1.710   0.830  0.2701  0.2345  0.0375
17183TIP3    H172964   4.990   1.673   0.900 -0.8725 -0.1874 -1.0386
17183TIP3    H272965   5.133   1.690   0.856 -0.1365  0.0525  1.3602
17184TIP3   OH272966   1.601   4.554  12.835  0.5905  0.0818 -0.3675
17184TIP3    H172967   1.543   4.598  12.772  0.6739 -0.7766 -1.0538
17184TIP3    H272968   1.689   4.570  12.801  0.6602 -0.0308 -0.2410
17185TIP3   OH272969   0.081   0.702   3.372  0.2646  0.0524  0.0837
17185TIP3    H172970   0.128   0.702   3.455  1.3092 -0.9706 -0.4954
17185TIP3    H272971   0.086   0.792   3.341 -1.5896  0.8358  1.9155
17186TIP3   OH272972   1.827   0.310  16.063  0.2311  0.5794  0.1624
17186TIP3    H172973   1.760   0.246  16.038  1.4916 -0.4335 -0.6680
17186TIP3    H272974   1.777   0.386  16.094 -1.3020  0.1141 -1.1158
17187TIP3   OH272975   0.446   4.627   2.548 -0.3235 -0.0139  0.1073
17187TIP3    H172976   0.524   4.638   2.494  0.8263  1.0797  1.9679
17187TIP3    H272977   0.386   4.694   2.516  0.6164  1.0910  0.6523
17188TIP3   OH272978   4.397   2.528   3.651 -0.5136 -0.0736  0.1411
17188TIP3    H172979   4.417   2.618   3.625  1.6639 -0.3658  0.6823
17188TIP3    H272980   4.438   2.474   3.583 -0.1141 -0.6805  0.8444
17189TIP3   OH272981   4.455   6.194  15.906 -0.7179  0.5019 -0.0427
17189TIP3    H172982   4.489   6.110  15.873 -1.5284  0.4450 -0.7869
17189TIP3    H272983   4.360   6.185  15.898 -0.8179  1.4258  0.0560
17190TIP3   OH272984   6.622   5.904   0.156  0.3996 -0.0760 -0.7114
17190TIP3    H172985   6.622   5.836   0.090  2.4806  0.9386 -1.8066
17190TIP3    H272986   6.713   5.910   0.185  0.2898  2.2407 -0.6811
17191TIP3   OH272987   5.291   5.114   3.979 -0.1812  0.3805  0.0291
17191TIP3    H172988   5.336   5.031   3.998  0.7002  0.4508 -1.5766
17191TIP3    H272989   5.342   5.151   3.907  0.8990  3.5098  2.3039
17192TIP3   OH272990   5.209   1.008  11.905 -0.0177 -0.1865 -0.0129
17192TIP3    H172991   5.207   0.925  11.953 -0.6983  1.1716  2.4096
17192TIP3    H272992   5.228   1.073  11.973  2.8990  1.3920 -2.2583
17193TIP3   OH272993   3.623   4.924   1.532 -0.0336 -0.6126  0.0272
17193TIP3    H172994   3.588   4.886   1.451 -1.2894  1.2915 -0.3488
17193TIP3    H272995   3.640   5.016   1.510  3.0782 -0.9385  0.8817
17194TIP3   OH272996   0.132   1.905   0.607 -0.9532 -0.2272 -0.0630
17194TIP3    H172997   0.217   1.860   0.615  0.2695  1.9656 -0.4335
17194TIP3    H272998   0.108   1.928   0.696 -1.3294 -1.1254  0.0749
17195TIP3   OH272999   5.863   3.743  15.156 -0.3531 -0.1579  0.5936
17195TIP3    H173000   5.803   3.775  15.224 -0.7808 -0.7629  0.5054
17195TIP3    H273001   5.843   3.797  15.080 -0.0115  0.3887  0.8897
17196TIP3   OH273002   5.696   4.932  16.160  0.1400 -0.3829 -0.0319
17196TIP3    H173003   5.661   4.989  16.229  0.1417 -0.6864  0.2180
17196TIP3    H273004   5.702   4.846  16.201  2.0102 -0.1551  0.1863
17197TIP3   OH273005   5.744   0.344   1.556 -0.5586 -0.1186  0.3542
17197TIP3    H173006   5.731   0.332   1.462 -1.9486 -0.5040  0.5809
17197TIP3    H273007   5.810   0.413   1.563 -0.5195 -0.0201 -0.8976
17198TIP3   OH273008   3.300   6.288   6.130  0.1689  1.1427  0.2846
17198TIP3    H173009   3.242   6.259   6.060  0.3331  0.7399  0.3183
17198TIP3    H273010   3.243   6.337   6.189 -0.6678 -1.4440  1.6669
17199TIP3   OH273011   0.304   6.343  14.267 -0.2902  0.4843  0.1054
17199TIP3    H173012   0.242   6.405  14.230 -1.3375 -0.8878 -0.4813
17199TIP3    H273013   0.306   6.363  14.360 -2.8442 -0.5217  0.3910
17200TIP3   OH273014   5.350   2.492   5.098 -0.2767 -0.0155  0.3106
17200TIP3    H173015   5.424   2.550   5.115  0.0045  0.2394 -1.7012
17200TIP3    H273016   5.378   2.407   5.133  0.7578  0.2067  0.0314
17201TIP3   OH273017   5.781   4.776   5.855  0.1377  0.4809 -0.0202
17201TIP3    H173018   5.869   4.795   5.888  0.9504  0.2281 -1.9693
17201TIP3    H273019   5.766   4.685   5.878 -0.5922  1.1798  2.4072
17202TIP3   OH273020   5.735   2.910   2.574 -0.5103  0.3600 -0.9644
17202TIP3    H173021   5.805   2.964   2.536 -1.4259  1.8570 -0.5718
17202TIP3    H273022   5.704   2.960   2.649  0.0034 -1.7018  0.6664
17203TIP3   OH273023   4.551   6.437  12.313  0.7383 -0.3941 -0.0305
17203TIP3    H173024   4.640   6.414  12.338  0.7618 -1.1764 -0.8136
17203TIP3    H273025   4.520   6.362  12.263 -0.3705 -0.1377  0.2620
17204TIP3   OH273026   1.771   4.422   5.956 -0.2424 -0.3175 -0.4110
17204TIP3    H173027   1.691   4.368   5.957 -1.7773  1.8878  0.0528
17204TIP3    H273028   1.746   4.500   5.907  1.6406  0.4401 -0.1992
17205TIP3   OH273029   5.952   5.430  14.632  0.3519 -0.1490 -0.1331
17205TIP3    H173030   6.020   5.400  14.693  0.7577  0.3643 -0.3305
17205TIP3    H273031   5.908   5.349  14.604  1.5440 -0.5928 -0.7845
17206TIP3   OH273032   2.257   0.297  11.987  0.2313  0.6267 -0.1989
17206TIP3    H173033   2.211   0.345  12.056 -1.1847  0.8240 -1.2403
17206TIP3    H273034   2.190   0.282  11.920  1.2989 -0.5441 -1.0302
17207TIP3   OH273035   2.177   5.098   6.201 -0.0055 -0.6942 -0.0930
17207TIP3    H173036   2.189   5.101   6.296  1.2672 -0.3695 -0.2597
17207TIP3    H273037   2.176   5.189   6.174  0.2311 -0.8036 -0.4667
17208TIP3   OH273038   6.479   6.052  15.385 -0.1975 -0.0359 -0.0750
17208TIP3    H173039   6.474   6.037  15.480 -1.4135 -0.9467 -0.2722
17208TIP3    H273040   6.572   6.049  15.366  0.2491  2.3861  1.4376
17209TIP3   OH273041   1.179   2.574  11.326  0.5343  0.3295 -0.3662
17209TIP3    H173042   1.088   2.579  11.296 -0.5836  0.6011  2.9096
17209TIP3    H273043   1.213   2.662  11.314  0.3979  0.2212 -1.6286
17210TIP3   OH273044   6.029   5.235   4.788  0.4292  0.5748 -0.7819
17210TIP3    H173045   6.079   5.158   4.761  0.7145 -0.4895  2.6230
17210TIP3    H273046   5.955   5.200   4.836 -1.5022  2.3255 -2.3742
17211TIP3   OH273047   1.504   1.565   3.825 -0.8851  0.4117 -0.1846
17211TIP3    H173048   1.419   1.521   3.820 -0.6387 -0.2712  1.3844
17211TIP3    H273049   1.512   1.591   3.917  1.5272 -1.4085  0.1582
17212TIP3   OH273050   0.042   5.995   1.093 -0.5249  0.0099 -1.2477
17212TIP3    H173051  -0.031   5.985   1.032 -3.1467 -2.0565  2.0617
17212TIP3    H273052   0.026   6.079   1.136 -0.3594  0.0496 -1.2639
17213TIP3   OH273053   1.637   5.687   3.274 -0.2684  0.4202 -0.4304
17213TIP3    H173054   1.725   5.724   3.265 -0.4348  1.7589  2.8159
17213TIP3    H273055   1.648   5.594   3.256  2.2927  0.1465  2.1888
17214TIP3   OH273056   4.029   2.995  15.890  0.5887 -0.8148 -0.5221
17214TIP3    H173057   4.034   3.000  15.795 -2.0648  2.5102 -0.5702
17214TIP3    H273058   4.106   3.043  15.921  0.7035 -0.6961 -0.9863
17215TIP3   OH273059   1.494   0.313  11.369 -0.3272  0.1365  0.2928
17215TIP3    H173060   1.449   0.381  11.419 -2.1946 -0.6039 -0.3264
17215TIP3    H273061   1.424   0.255  11.338  1.1669 -1.7926  0.3734
17216TIP3   OH273062   0.648   1.442   2.363 -0.0568 -0.6652 -0.4186
17216TIP3    H173063   0.712   1.380   2.328 -0.6564 -0.9038 -1.0947
17216TIP3    H273064   0.567   1.391   2.371  0.3574 -0.9748  2.4990
17217TIP3   OH273065   1.690   5.706  17.159 -0.7910  0.3542 -0.1036
17217TIP3    H173066   1.720   5.783  17.207  2.9959 -0.9719 -0.1365
17217TIP3    H273067   1.664   5.643  17.226  0.7330 -0.0652  0.1093
17218TIP3   OH273068   0.473   2.676  16.857  0.1064  0.1456  0.2588
17218TIP3    H173069   0.548   2.735  16.854 -0.0264  0.2957 -0.1295
17218TIP3    H273070   0.477   2.636  16.944  0.3285  0.5557  0.4382
17219TIP3   OH273071   4.415   5.820  13.414  0.2171  0.3496 -0.3084
17219TIP3    H173072   4.482   5.834  13.346  0.4952 -0.2776 -0.1608
17219TIP3    H273073   4.394   5.727  13.408  1.4402 -0.0675  1.5804
17220TIP3   OH273074   0.302   1.011  15.370 -0.1673 -0.1621  0.3544
17220TIP3    H173075   0.380   1.017  15.425  0.4093  0.2385 -0.4954
17220TIP3    H273076   0.313   1.079  15.304 -0.7044 -0.8225 -0.4398
17221TIP3   OH273077   2.773   4.510  16.557  0.3837  1.2132  0.8396
17221TIP3    H173078   2.774   4.438  16.621  2.3323  0.2433 -0.2310
17221TIP3    H273079   2.806   4.585  16.607 -0.0157  0.9458  1.5176
17222TIP3   OH273080   5.946   0.444  12.971 -0.2556  0.2387  0.1042
17222TIP3    H173081   5.853   0.449  12.951 -0.3599 -1.3258  0.1396
17222TIP3    H273082   5.971   0.535  12.989 -2.1465  0.4680  1.7953
17223TIP3   OH273083   5.554   0.531  11.738  0.1826 -0.5840 -0.1336
17223TIP3    H173084   5.609   0.525  11.816  0.4877 -1.3866 -0.4065
17223TIP3    H273085   5.465   0.519  11.771  0.2678 -0.3921  0.1659
17224TIP3   OH273086   1.896   0.684  11.342 -0.4290  0.4983 -0.2071
17224TIP3    H173087   1.920   0.695  11.250  0.3872  0.5566  0.0151
17224TIP3    H273088   1.857   0.768  11.367  4.2462  2.4437  1.0064
17225TIP3   OH273089   1.133   0.018  16.639 -0.0822  0.0152 -0.0526
17225TIP3    H173090   1.152  -0.069  16.674 -1.0322 -1.0933 -2.2080
17225TIP3    H273091   1.131   0.075  16.716  3.8701 -1.2160  1.0803
17226TIP3   OH273092   0.536   3.452  16.437 -0.0162  0.2478 -0.6128
17226TIP3    H173093   0.474   3.477  16.506 -1.0947 -0.2183 -1.4123
17226TIP3    H273094   0.557   3.534  16.392 -0.6174  0.2938 -0.8083
17227TIP3   OH273095   5.774   5.992  13.851  0.0847  0.0542 -0.0622
17227TIP3    H173096   5.764   6.087  13.859 -2.9734 -0.3458  1.7368
17227TIP3    H273097   5.746   5.972  13.762  0.8257  0.8494 -0.4783
17228TIP3   OH273098   5.327   1.024  15.205 -0.4611  0.1076  0.2635
17228TIP3    H173099   5.234   1.009  15.187 -0.2274 -0.2407 -0.6928
17228TIP3    H273100   5.370   0.945  15.173  0.2834  0.7632 -0.3658
17229TIP3   OH273101   4.715   0.761   1.225  0.1717 -0.0890  0.0347
17229TIP3    H173102   4.711   0.724   1.313 -0.0226 -0.9310 -0.3167
17229TIP3    H273103   4.799   0.807   1.222  0.2830 -0.2493  0.5823
17230TIP3   OH273104   4.748   1.648  12.454  0.6362  0.2977  0.2187
17230TIP3    H173105   4.843   1.636  12.445  0.8361  1.0826  1.2128
17230TIP3    H273106   4.714   1.628  12.367  1.7300  0.0885 -0.1758
17231TIP3   OH273107   5.420   6.169  15.152 -0.5446  0.4814 -0.5877
17231TIP3    H173108   5.375   6.093  15.115  1.7908 -0.7469 -1.0051
17231TIP3    H273109   5.490   6.189  15.089  1.9659 -0.1518  1.8877
17232TIP3   OH273110   5.173   3.658   2.750  0.5385  0.1940  0.2388
17232TIP3    H173111   5.172   3.737   2.805  0.2449 -0.8416  1.7752
17232TIP3    H273112   5.228   3.596   2.799 -2.2603 -1.8240  0.9601
17233TIP3   OH273113   0.527   3.624  11.328 -0.1038  0.2183 -0.8912
17233TIP3    H173114   0.450   3.568  11.330  0.0409  0.0217 -0.7745
17233TIP3    H273115   0.580   3.595  11.402  1.0947 -1.0951 -2.2273
17234TIP3   OH273116   6.670   3.068  11.754 -0.4106  0.2014 -0.4894
17234TIP3    H173117   6.632   3.155  11.746  2.9494  1.6316 -1.7183
17234TIP3    H273118   6.710   3.068  11.841 -2.2102 -0.9185  0.3719
17235TIP3   OH273119   0.504   3.001  16.696 -0.3228  0.6206 -0.2389
17235TIP3    H173120   0.564   3.058  16.744  0.0269  0.2024 -0.1742
17235TIP3    H273121   0.432   2.985  16.757 -0.1903  0.6068 -0.0880
17236TIP3   OH273122   4.240   5.256   3.437  0.1916  0.0303  0.4730
17236TIP3    H173123   4.223   5.349   3.446 -0.9287 -0.3312  2.1726
17236TIP3    H273124   4.170   5.224   3.379  3.5468  1.1247 -4.5066
17237TIP3   OH273125   0.347   3.224   4.745 -1.0675  0.8162 -0.3528
17237TIP3    H173126   0.326   3.148   4.799  0.8576  0.0669 -0.6350
17237TIP3    H273127   0.288   3.216   4.669 -1.3460 -0.0179 -0.0569
17238TIP3   OH273128   6.730   2.848   3.133  0.1912 -0.7328 -0.2341
17238TIP3    H173129   6.666   2.919   3.144  0.0518 -1.0108  0.7435
17238TIP3    H273130   6.678   2.774   3.104  0.0885 -0.9240  0.4402
17239TIP3   OH273131   2.042   0.332  16.970  0.2816 -0.1262  0.7601
17239TIP3    H173132   2.029   0.301  16.880  1.3580  1.1502  0.1568
17239TIP3    H273133   1.953   0.342  17.004 -0.1310 -0.9144 -0.0547
17240TIP3   OH273134   5.343   1.137   1.421  0.3223 -0.1882 -0.0286
17240TIP3    H173135   5.277   1.108   1.358  1.9052  0.7821 -2.2278
17240TIP3    H273136   5.345   1.232   1.411  3.3341 -0.3291 -1.4176
17241TIP3   OH273137   0.743   1.206  14.949  0.4178 -0.3694 -0.3411
17241TIP3    H173138   0.739   1.264  14.872 -1.0533 -1.0683 -0.8184
17241TIP3    H273139   0.740   1.266  15.023  1.1851  0.2832 -0.8267
17242TIP3   OH273140   0.191   1.700   4.086 -0.7050 -0.4171 -0.1806
17242TIP3    H173141   0.232   1.660   4.009 -1.9736  1.0954 -1.6954
17242TIP3    H273142   0.264   1.726   4.141  0.2803 -0.4154 -1.4591
17243TIP3   OH273143   3.800   6.761   2.001  0.2962  0.4570 -0.2593
17243TIP3    H173144   3.720   6.720   1.967  0.2456 -0.2965  0.7158
17243TIP3    H273145   3.866   6.745   1.934 -0.9195  3.1780 -2.1796
17244TIP3   OH273146   0.282   2.012  14.189  0.0262 -0.0818 -0.0578
17244TIP3    H173147   0.310   2.090  14.236  2.3749 -0.5467 -0.6146
17244TIP3    H273148   0.277   2.040  14.097 -2.6819  0.3331  0.1942
17245TIP3   OH273149   4.890   6.451  12.026 -0.2211 -0.4213 -0.1028
17245TIP3    H173150   4.942   6.521  12.067  0.0373 -0.5158 -0.2685
17245TIP3    H273151   4.800   6.471  12.050  0.1033 -1.5827  2.1611
17246TIP3   OH273152   0.555   4.916   0.838  0.2127 -0.3765  0.4049
17246TIP3    H173153   0.610   4.992   0.819  0.4213 -0.7614 -0.5654
17246TIP3    H273154   0.588   4.848   0.779 -0.6964 -0.8816  0.4769
17247TIP3   OH273155   2.738   3.927  13.403  0.4862  0.1238  0.3060
17247TIP3    H173156   2.686   3.863  13.451  1.0222 -1.3257 -1.0085
17247TIP3    H273157   2.828   3.909  13.430  0.5640  0.8538  0.5364
17248TIP3   OH273158   0.296   2.326  12.059 -0.2310  0.5579 -0.3981
17248TIP3    H173159   0.247   2.255  12.099 -0.2168  0.2444 -0.9191
17248TIP3    H273160   0.233   2.397  12.049 -1.4134 -0.8198 -3.7123
17249TIP3   OH273161   4.538   4.202  16.394 -0.4811  0.3258 -0.3050
17249TIP3    H173162   4.559   4.290  16.363  2.6592 -0.3926 -0.4186
17249TIP3    H273163   4.489   4.216  16.475  0.3054  2.1903 -0.1313
17250TIP3   OH273164   4.387   5.593   1.492 -0.6868  0.0446 -0.0301
17250TIP3    H173165   4.363   5.530   1.424 -1.8388  0.9065 -0.4377
17250TIP3    H273166   4.377   5.679   1.450  0.6025  0.5053  0.6003
17251TIP3   OH273167   1.234   3.319   1.330 -0.0459 -0.3184 -0.0194
17251TIP3    H173168   1.227   3.224   1.327 -3.0618 -0.0998 -3.5735
17251TIP3    H273169   1.326   3.337   1.312  1.1679 -2.5246  3.3763
17252TIP3   OH273170   2.807   5.854  15.840  0.1210 -0.0878 -0.4603
17252TIP3    H173171   2.839   5.889  15.923 -2.2050  0.3286  0.2713
17252TIP3    H273172   2.847   5.909  15.773  1.8174 -0.2784  0.3714
17253TIP3   OH273173   3.995   1.681  12.316  0.0402  0.9008 -0.2106
17253TIP3    H173174   4.076   1.661  12.363 -0.0871  0.7468 -0.0521
17253TIP3    H273175   3.929   1.625  12.358  0.1547 -0.1049 -1.3399
17254TIP3   OH273176   1.901   5.086  11.537  0.1775 -0.5228  0.2233
17254TIP3    H173177   1.963   5.030  11.490 -1.4914 -1.4832 -0.8928
17254TIP3    H273178   1.902   5.168  11.487  1.5551 -0.0199  1.0270
17255TIP3   OH273179   4.000   1.895  12.514  0.4542  0.0152  0.4044
17255TIP3    H173180   4.061   1.955  12.558  2.1075 -1.0423 -0.3765
17255TIP3    H273181   4.044   1.810  12.519 -1.6795 -1.0621  1.1414
17256TIP3   OH273182   5.276   0.294  14.167 -0.1851  0.2911 -0.9006
17256TIP3    H173183   5.317   0.209  14.186 -0.1791  0.7028  1.0359
17256TIP3    H273184   5.186   0.272  14.143 -0.7628 -0.1480  1.5691
17257TIP3   OH273185   1.237   0.475   1.249  0.0125  0.0859 -0.1481
17257TIP3    H173186   1.311   0.436   1.295 -0.2664  0.6229  0.7605
17257TIP3    H273187   1.164   0.417   1.268 -0.3548  0.8984  1.0298
17258TIP3   OH273188   5.720   2.173   4.418  0.1189  0.7438  0.0732
17258TIP3    H173189   5.806   2.213   4.433 -0.0115  0.7637  0.7495
17258TIP3    H273190   5.697   2.201   4.329  1.7628 -0.9991 -0.9570
17259TIP3   OH273191   2.568   5.498   1.009  0.2873 -0.2859 -0.2952
17259TIP3    H173192   2.520   5.468   1.086  3.2858 -0.3975  1.6240
17259TIP3    H273193   2.581   5.419   0.956 -0.5346 -0.4739 -0.2187
17260TIP3   OH273194   5.447   0.336  17.007 -0.5138 -0.0517  0.1028
17260TIP3    H173195   5.482   0.353  16.919 -0.7261 -0.4398 -0.0542
17260TIP3    H273196   5.464   0.417  17.055 -0.8260  0.3321 -0.4278
17261TIP3   OH273197   4.080   5.910   4.213 -0.1267  0.6157 -1.1054
17261TIP3    H173198   4.139   5.952   4.275  1.2115  0.8155 -2.4799
17261TIP3    H273199   4.135   5.846   4.167 -1.4616 -0.6334 -1.0209
17262TIP3   OH273200   5.272   0.587  14.276 -0.6916  0.4394 -0.1128
17262TIP3    H173201   5.219   0.554  14.203 -2.6366  0.5473  1.2299
17262TIP3    H273202   5.249   0.531  14.350  1.7372 -0.0750  0.3073
17263TIP3   OH273203   5.518   1.384  11.301  0.1871 -0.0291  0.2497
17263TIP3    H173204   5.580   1.313  11.282  1.2600  1.0496 -0.3115
17263TIP3    H273205   5.524   1.396  11.396  1.1433  0.3435  0.1486
17264TIP3   OH273206   2.536   2.724   1.871 -0.6054 -0.2891  0.2877
17264TIP3    H173207   2.490   2.700   1.791 -0.1474  1.5243 -0.5566
17264TIP3    H273208   2.556   2.817   1.860  2.1545 -0.7226  1.1666
17265TIP3   OH273209   0.514   4.567  13.141 -0.4895  0.2700 -0.1352
17265TIP3    H173210   0.428   4.601  13.163 -0.2020 -0.6854  2.6677
17265TIP3    H273211   0.550   4.630  13.079 -2.2772  1.8736  0.4277
17266TIP3   OH273212   4.802   0.632  13.409 -0.3128  0.0055 -0.1353
17266TIP3    H173213   4.821   0.571  13.339 -2.7353 -0.5138 -0.3976
17266TIP3    H273214   4.751   0.702  13.368 -1.0891  0.0917  0.9270
17267TIP3   OH273215   1.577   6.649   4.210 -0.1684 -0.0706  0.1448
17267TIP3    H173216   1.648   6.585   4.217 -0.0263  0.1569  0.8236
17267TIP3    H273217   1.548   6.643   4.119  0.8628 -0.0121 -0.1926
17268TIP3   OH273218   4.037   1.361   6.664  0.4762  0.8882  0.2921
17268TIP3    H173219   3.999   1.331   6.581  0.6683  0.7410  0.2560
17268TIP3    H273220   4.132   1.355   6.650  0.5264 -1.6812  1.4307
17269TIP3   OH273221   5.086   6.477   1.168 -0.1112  0.0763 -0.2196
17269TIP3    H173222   5.176   6.505   1.179 -0.2789 -0.1920  2.1172
17269TIP3    H273223   5.069   6.419   1.242 -1.9253 -0.6006 -1.1127
17270TIP3   OH273224   1.683   1.919  14.858  0.5508 -0.1642  0.1260
17270TIP3    H173225   1.623   1.878  14.920  1.6523 -2.9673 -0.5826
17270TIP3    H273226   1.630   1.982  14.811 -1.3950 -1.2404  0.8282
17271TIP3   OH273227   2.682   5.999  11.491 -0.2737 -0.3057 -0.3896
17271TIP3    H173228   2.670   6.087  11.527  0.8848 -1.4074  2.8897
17271TIP3    H273229   2.601   5.953  11.513 -0.6529 -0.2499 -1.6197
17272TIP3   OH273230   2.974   5.636  13.622  0.1991 -0.7441  0.2214
17272TIP3    H173231   2.977   5.732  13.628  0.7199 -0.9024  2.9963
17272TIP3    H273232   3.049   5.614  13.567  1.4570  0.3138  1.4849
17273TIP3   OH273233   0.472   2.705  11.261 -0.3072  0.0961 -0.4261
17273TIP3    H173234   0.388   2.692  11.216 -1.7243  0.4503  2.0384
17273TIP3    H273235   0.514   2.775  11.211 -1.2094 -0.4599 -2.0379
17274TIP3   OH273236   5.195   0.769  12.087 -0.5389  0.6894 -0.5618
17274TIP3    H173237   5.247   0.790  12.165 -0.0916 -0.9591 -0.3995
17274TIP3    H273238   5.105   0.786  12.113 -0.6976 -2.6451  1.3170
17275TIP3   OH273239   5.617   0.988   5.432  0.1394  0.3278 -0.0845
17275TIP3    H173240   5.669   1.069   5.426 -0.6837  0.9094  0.5466
17275TIP3    H273241   5.569   0.996   5.514  0.9702 -1.3789  0.5944
17276TIP3   OH273242   4.818   0.274   5.412  0.1086  0.2325 -0.5804
17276TIP3    H173243   4.825   0.302   5.504  3.2962  0.8695 -0.9645
17276TIP3    H273244   4.764   0.342   5.370  0.2439  0.9634  0.4043
17277TIP3   OH273245   4.483   6.342  14.770 -0.2839  0.3418 -0.3305
17277TIP3    H173246   4.490   6.270  14.708 -0.2110 -0.2407  0.3390
17277TIP3    H273247   4.455   6.417  14.718 -0.2697 -0.1508 -1.0502
17278TIP3   OH273248   3.004   1.415  11.697 -0.1463 -0.0022 -0.0148
17278TIP3    H173249   2.915   1.447  11.711 -0.2477 -0.8007  1.2365
17278TIP3    H273250   3.055   1.456  11.766  0.5363  0.7067 -0.9274
17279TIP3   OH273251   3.736   1.217  13.290 -0.1047 -0.3243  0.6507
17279TIP3    H173252   3.756   1.182  13.377 -0.1355 -1.8691  0.0424
17279TIP3    H273253   3.757   1.146  13.230  1.6939  1.3946 -0.7774
17280TIP3   OH273254   2.625   1.532  15.741 -0.4171  0.0272  0.2923
17280TIP3    H173255   2.649   1.625  15.742  0.0935 -0.0786 -1.2216
17280TIP3    H273256   2.670   1.496  15.818  0.9550  0.6566 -0.1906
17281TIP3   OH273257   5.599   6.169   2.613 -0.2524 -0.1598  0.4927
17281TIP3    H173258   5.663   6.216   2.666 -1.1542 -0.3384  1.7576
17281TIP3    H273259   5.623   6.077   2.623 -0.3695 -0.1877  0.5124
17282TIP3   OH273260   0.504   1.230  12.300  0.5382  0.1887 -0.0903
17282TIP3    H173261   0.584   1.228  12.353  1.1386 -2.6005 -1.0322
17282TIP3    H273262   0.529   1.277  12.221  1.8150 -2.2619 -1.1886
17283TIP3   OH273263   6.146   6.171   6.039  0.2822 -0.0814 -0.1749
17283TIP3    H173264   6.210   6.191   6.107  0.7861 -0.1894 -0.6100
17283TIP3    H273265   6.195   6.179   5.957 -0.1967 -0.4215 -0.5009
17284TIP3   OH273266   4.196   5.064  11.205 -0.2144  0.4256  0.2987
17284TIP3    H173267   4.266   5.014  11.163 -0.4130  1.6471 -1.5178
17284TIP3    H273268   4.156   5.002  11.266  0.5673 -1.1582 -0.7642
17285TIP3   OH273269   5.173   6.639  11.698 -0.2760  0.0485  0.1934
17285TIP3    H173270   5.255   6.602  11.665 -2.1110 -3.9111 -0.2472
17285TIP3    H273271   5.191   6.659  11.789  1.7425  1.0928 -0.3992
17286TIP3   OH273272   5.770   0.436  16.191 -0.2825 -0.3761 -0.2325
17286TIP3    H173273   5.809   0.355  16.159 -0.4391 -0.0598 -1.2365
17286TIP3    H273274   5.844   0.497  16.196 -0.2015 -0.5212  0.3172
17287TIP3   OH273275   0.577   0.967  14.075 -0.2191 -0.2469  0.7129
17287TIP3    H173276   0.601   1.005  14.160 -0.2112  1.7710 -0.1592
17287TIP3    H273277   0.550   1.042  14.022  0.7203 -1.3496 -1.3996
17288TIP3   OH273278   5.674   5.954   0.237  0.6007 -0.2541  0.0761
17288TIP3    H173279   5.730   5.926   0.309  0.3545 -1.2818 -0.1324
17288TIP3    H273280   5.733   5.963   0.162  0.3225 -2.3939 -0.4192
17289TIP3   OH273281   0.473   2.549  11.614  0.1048 -0.3047 -0.2466
17289TIP3    H173282   0.457   2.598  11.695 -3.5640 -3.5939  1.1739
17289TIP3    H273283   0.530   2.477  11.641 -0.3101 -0.8458 -0.8287
17290TIP3   OH273284   1.207   2.528   0.871  0.1407 -0.1186 -0.2115
17290TIP3    H173285   1.221   2.435   0.856 -0.9444 -0.4138  0.5084
17290TIP3    H273286   1.177   2.562   0.787  0.3084 -0.4656 -0.4128
17291TIP3   OH273287   4.711   6.687   1.005 -0.3169 -0.0471 -0.5554
17291TIP3    H173288   4.765   6.656   1.078 -0.0110  2.0234  0.1540
17291TIP3    H273289   4.766   6.752   0.962 -2.2710  2.2500  0.2870
17292TIP3   OH273290   1.924   5.793  14.630 -0.3163 -0.0604  0.3653
17292TIP3    H173291   1.876   5.728  14.578  1.7003 -1.3606  0.1009
17292TIP3    H273292   1.870   5.806  14.708 -1.6625 -0.6304 -0.4434
17293TIP3   OH273293   0.847   2.493   0.037  0.3812  0.1924 -0.0270
17293TIP3    H173294   0.798   2.423  -0.005  0.9017 -0.3633  0.2863
17293TIP3    H273295   0.852   2.467   0.129  0.2556  0.8207  0.1564
17294TIP3   OH273296   3.588   4.363  13.424 -0.5272  0.4495 -0.5070
17294TIP3    H173297   3.498   4.397  13.428 -0.0000  1.7658  0.3215
17294TIP3    H273298   3.613   4.350  13.515  0.7859  1.8922 -0.6304
17295TIP3   OH273299   6.535   5.560   2.954 -0.5547 -0.5970 -0.2095
17295TIP3    H173300   6.566   5.480   2.995  0.0577  0.1929  0.8906
17295TIP3    H273301   6.604   5.624   2.969 -2.4987  1.0694  1.9240
17296TIP3   OH273302   4.968   5.012  14.370  0.0378  0.4505 -0.0064
17296TIP3    H173303   4.894   5.052  14.325 -0.2672 -0.7752 -0.6128
17296TIP3    H273304   5.043   5.028  14.312 -0.5523 -2.0870 -1.5349
17297TIP3   OH273305   6.347   3.603   3.613  0.1769  0.0687  0.3060
17297TIP3    H173306   6.405   3.587   3.539 -0.0650  3.5532 -0.7004
17297TIP3    H273307   6.377   3.541   3.680  2.2388 -1.1742 -1.6778
17298TIP3   OH273308   2.410   0.438  13.582  0.4118 -0.0384  0.4723
17298TIP3    H173309   2.446   0.488  13.508 -0.4148  2.2321  1.5680
17298TIP3    H273310   2.331   0.397  13.547  1.4551 -1.2042 -0.6227
17299TIP3   OH273311   4.209   1.865   1.963  0.1559 -0.3014  0.1099
17299TIP3    H173312   4.175   1.777   1.978 -0.2352 -0.0725  0.5715
17299TIP3    H273313   4.145   1.906   1.906 -0.6631  0.3312  1.4674
17300TIP3   OH273314   1.628   2.253   1.775  0.4369 -0.3100  0.5324
17300TIP3    H173315   1.694   2.186   1.758 -1.4869 -2.3680  0.8831
17300TIP3    H273316   1.544   2.207   1.767 -0.9174  1.8337  1.7464
17301TIP3   OH273317   3.634   5.697  17.031 -0.0990 -0.0630  0.1155
17301TIP3    H173318   3.620   5.664  17.120  3.3559 -1.7932  0.1116
17301TIP3    H273319   3.639   5.792  17.042 -2.4720 -0.0460  1.3191
17302TIP3   OH273320   5.502   1.098  13.110  0.1100 -0.3590 -0.2910
17302TIP3    H173321   5.429   1.065  13.058 -1.8055 -0.4875  2.3990
17302TIP3    H273322   5.538   1.020  13.153 -1.2406  0.3339  2.1385
17303TIP3   OH273323   3.171   2.888   3.886  0.2439 -0.3266  0.6767
17303TIP3    H173324   3.099   2.894   3.948 -0.0292 -0.9951  0.4362
17303TIP3    H273325   3.141   2.824   3.821  0.2333  0.9105 -0.5416
17304TIP3   OH273326   5.048   6.592  12.189 -0.5741 -0.2301 -0.2403
17304TIP3    H173327   5.033   6.677  12.147 -0.5608 -0.4893 -0.7716
17304TIP3    H273328   5.136   6.599  12.227  0.7365 -1.1096 -3.0147
17305TIP3   OH273329   6.156   4.994   4.981  0.4984 -0.3828 -0.3466
17305TIP3    H173330   6.069   4.955   4.983  0.0750  0.5468 -0.0644
17305TIP3    H273331   6.213   4.930   5.024 -0.0783 -0.9250 -0.3899
17306TIP3   OH273332   2.375   4.562  14.120  0.2464  0.5982 -0.0207
17306TIP3    H173333   2.303   4.500  14.131 -0.2818  0.6480 -2.8963
17306TIP3    H273334   2.366   4.622  14.194  0.6018 -2.5391  2.6646
17307TIP3   OH273335   5.739   3.551   5.158  0.6543  0.1196 -0.1301
17307TIP3    H173336   5.733   3.632   5.108  0.3631  1.2202  1.6602
17307TIP3    H273337   5.749   3.483   5.092 -0.4064  1.4767 -1.7085
17308TIP3   OH273338   6.366   2.244  13.874  0.3342  0.0347 -0.3560
17308TIP3    H173339   6.395   2.266  13.962 -1.4741  0.3604  0.1852
17308TIP3    H273340   6.354   2.149  13.876  0.9945 -0.0536 -0.4759
17309TIP3   OH273341   5.555   4.148   1.192  0.5168 -0.0310  0.5821
17309TIP3    H173342   5.591   4.069   1.152  0.6924  0.3586 -0.0480
17309TIP3    H273343   5.520   4.119   1.276  0.4121 -0.8117  0.2716
17310TIP3   OH273344   4.952   1.045   2.327 -0.1819 -0.1050 -0.0680
17310TIP3    H173345   4.893   1.102   2.376  1.4554  1.0417  0.6310
17310TIP3    H273346   4.898   1.009   2.257 -1.4376  1.7528 -0.0876
17311TIP3   OH273347   6.624   4.425   0.318 -0.1974  0.2849  0.2271
17311TIP3    H173348   6.597   4.337   0.342  1.7189 -0.1559  0.8642
17311TIP3    H273349   6.621   4.474   0.400  2.1494 -0.1191  0.5998
17312TIP3   OH273350   6.120   1.758  11.714  0.0736 -0.2190 -0.9582
17312TIP3    H173351   6.044   1.811  11.692  0.6421  0.3010 -1.7433
17312TIP3    H273352   6.101   1.672  11.679  0.1992  0.1331 -1.9067
17313TIP3   OH273353   5.443   0.617   4.056  0.3773 -0.0367  0.1767
17313TIP3    H173354   5.422   0.710   4.070  0.3986 -0.0316  0.1746
17313TIP3    H273355   5.374   0.570   4.103  1.0256 -0.0181  1.1690
17314TIP3   OH273356   4.359   0.266  12.685 -0.0486 -0.0132 -0.6390
17314TIP3    H173357   4.317   0.269  12.771 -0.3489 -1.1894 -0.7369
17314TIP3    H273358   4.293   0.301  12.625  0.0686  0.5667 -0.4405
17315TIP3   OH273359   2.363   2.443   2.388 -0.3883  0.1161 -0.0645
17315TIP3    H173360   2.403   2.491   2.461 -1.4959  2.3759 -0.8809
17315TIP3    H273361   2.377   2.499   2.312 -0.6850 -1.4433 -1.2780
17316TIP3   OH273362   0.452   5.376  16.246 -0.2537  0.1868 -0.2543
17316TIP3    H173363   0.413   5.310  16.189 -1.6563  1.6895 -1.0553
17316TIP3    H273364   0.546   5.370  16.229 -0.5371 -0.3348 -1.6654
17317TIP3   OH273365   3.539   3.381   5.309  0.5096 -0.1906 -0.5452
17317TIP3    H173366   3.524   3.468   5.346  0.4191 -0.3226 -0.2779
17317TIP3    H273367   3.603   3.341   5.368  0.2098 -0.4773 -0.4154
17318TIP3   OH273368   4.251   3.935  15.037  0.5124 -0.0335 -0.1793
17318TIP3    H173369   4.171   3.919  15.087  0.0698 -0.8148 -1.1151
17318TIP3    H273370   4.312   3.972  15.100 -1.3149  2.7109  0.0639
17319TIP3   OH273371   3.289   3.543   3.419  0.5259  0.4101  0.0922
17319TIP3    H173372   3.322   3.461   3.457 -0.2037 -0.3059 -0.7971
17319TIP3    H273373   3.227   3.576   3.483 -0.7328 -0.8169 -0.4754
17320TIP3   OH273374   4.822   4.976  15.811 -0.3565 -0.2112 -0.3681
17320TIP3    H173375   4.828   4.885  15.782  0.7517 -0.6295  1.1139
17320TIP3    H273376   4.744   4.978  15.866 -1.1979  0.0828 -1.5390
17321TIP3   OH273377   1.992   5.575  11.250  0.3440 -0.1733 -0.1997
17321TIP3    H173378   1.968   5.506  11.188  3.2852  0.5881 -2.3013
17321TIP3    H273379   2.074   5.545  11.288  0.3725  1.0378  0.7095
17322TIP3   OH273380   4.134   0.467   3.587 -0.5400 -0.3943 -0.1155
17322TIP3    H173381   4.123   0.428   3.501  0.0113 -0.2718 -0.2477
17322TIP3    H273382   4.184   0.402   3.637 -2.2787 -1.1693  0.6300
17323TIP3   OH273383   1.066   3.801   0.728 -0.1295 -0.5095 -0.2450
17323TIP3    H173384   0.978   3.777   0.699 -0.3935 -0.7240  0.7074
17323TIP3    H273385   1.121   3.727   0.703 -0.6212 -1.3636  1.0956
17324TIP3   OH273386   3.651   4.341   3.299  0.2019 -0.2649 -0.6182
17324TIP3    H173387   3.632   4.394   3.376  3.6284 -1.4473  1.1227
17324TIP3    H273388   3.708   4.271   3.331 -1.5051 -3.1187 -3.4800
17325TIP3   OH273389   3.071   5.915  14.128  0.0140  0.3170 -0.0052
17325TIP3    H173390   2.979   5.928  14.151 -0.0737 -0.7692  0.3003
17325TIP3    H273391   3.085   5.821  14.140  1.1488  0.4702 -0.1113
17326TIP3   OH273392   6.156   6.292  11.811 -0.2000 -0.2973  0.3216
17326TIP3    H173393   6.091   6.231  11.777  0.4806 -1.0847  0.4270
17326TIP3    H273394   6.162   6.272  11.904  0.2309 -0.2735  0.3041
17327TIP3   OH273395   3.062   2.393   2.219  0.1386  0.4389  0.4048
17327TIP3    H173396   3.103   2.416   2.303 -1.9625  0.8433  1.3769
17327TIP3    H273397   3.081   2.467   2.162  2.0917 -0.1043  0.3138
17328TIP3   OH273398   0.726   4.597  11.414 -0.3137  0.2370  0.1559
17328TIP3    H173399   0.685   4.647  11.343 -0.9238  0.6961  0.8155
17328TIP3    H273400   0.793   4.543  11.371  0.5730  1.8522 -0.5507
17329TIP3   OH273401   3.289   4.898  13.020  0.0315  0.3073  0.2799
17329TIP3    H173402   3.205   4.898  12.972  0.1224 -0.1957  0.1238
17329TIP3    H273403   3.348   4.849  12.963  0.3874  0.5141  0.4765
17330TIP3   OH273404   3.174   6.536  14.794  0.3934  0.6738  0.6001
17330TIP3    H173405   3.220   6.606  14.748 -0.0557  0.0171 -0.8765
17330TIP3    H273406   3.215   6.455  14.762 -1.6052  0.0938 -0.5737
17331TIP3   OH273407   1.047   6.323  13.389 -0.7346 -0.6660  0.2827
17331TIP3    H173408   1.054   6.314  13.484  0.3015 -0.7855  0.1983
17331TIP3    H273409   1.132   6.294  13.355  0.1592  2.5548 -0.4466
17332TIP3   OH273410   6.640   3.044  16.499 -0.0482 -0.3649  0.8110
17332TIP3    H173411   6.630   3.104  16.573  1.3972 -0.2086  0.8892
17332TIP3    H273412   6.592   3.086  16.427 -1.8208 -0.7227  1.7488
17333TIP3   OH273413   0.379   5.994   5.105 -0.0167 -0.2572  0.0747
17333TIP3    H173414   0.449   5.930   5.119  0.8695  0.3579 -1.4891
17333TIP3    H273415   0.309   5.944   5.063  0.3092 -0.4272 -0.2737
17334TIP3   OH273416   2.866   1.809  11.571 -0.4041 -0.2711 -0.2787
17334TIP3    H173417   2.842   1.891  11.527  1.0885 -1.4445 -3.4539
17334TIP3    H273418   2.881   1.835  11.662 -1.4961  2.6794 -0.8524
17335TIP3   OH273419   3.248   1.576  11.745 -0.2055 -0.3196  0.1589
17335TIP3    H173420   3.259   1.599  11.653 -0.2921 -0.7614  0.0399
17335TIP3    H273421   3.323   1.519  11.765 -0.3989 -0.5364  0.2598
17336TIP3   OH273422   3.495   3.477  12.335  0.1506  0.6043  0.6251
17336TIP3    H173423   3.456   3.449  12.417 -1.0458 -0.7544 -0.3805
17336TIP3    H273424   3.500   3.398  12.282 -0.3573  1.6992 -1.1175
17337TIP3   OH273425   4.036   5.247   3.129  0.0546 -0.2001  0.2438
17337TIP3    H173426   4.056   5.164   3.087 -1.0830  0.3319 -1.4059
17337TIP3    H273427   3.941   5.246   3.141  0.2087  0.2037  1.6684
17338TIP3   OH273428   6.072   2.190  14.426  0.4322  0.2966  0.3926
17338TIP3    H173429   6.082   2.267  14.482 -0.7723  1.2261 -0.6650
17338TIP3    H273430   6.121   2.211  14.347  1.2147 -0.5706  0.6420
17339TIP3   OH273431   1.556   2.992   2.153  0.1572  0.4280  0.2181
17339TIP3    H173432   1.506   3.049   2.212 -0.5168 -0.3947  0.4522
17339TIP3    H273433   1.645   2.990   2.191  0.0183  0.8230  0.5623
17340TIP3   OH273434   4.247   2.641   2.193 -0.3080  0.2898  0.8268
17340TIP3    H173435   4.286   2.568   2.241  1.6727 -1.8758 -3.8262
17340TIP3    H273436   4.168   2.604   2.153 -0.2578  1.2080 -0.1452
17341TIP3   OH273437   1.456   6.164   2.771  0.0301 -0.2028 -1.0367
17341TIP3    H173438   1.422   6.080   2.803 -1.3431  0.4058 -0.8907
17341TIP3    H273439   1.472   6.215   2.850  0.8078 -0.2897 -1.1312
17342TIP3   OH273440   0.602   3.750  13.340 -0.6577 -0.2745  0.4188
17342TIP3    H173441   0.652   3.831  13.336 -0.2130 -0.5723 -0.2034
17342TIP3    H273442   0.666   3.684  13.370 -0.6579 -0.6693 -0.4398
17343TIP3   OH273443   4.375   3.502   0.205 -0.6172 -0.0012  0.3732
17343TIP3    H173444   4.320   3.521   0.281 -0.6636 -1.2982  0.6798
17343TIP3    H273445   4.455   3.464   0.242 -0.0752  0.5992 -0.1563
17344TIP3   OH273446   4.930   1.732  13.764  0.4467 -0.3773  0.2594
17344TIP3    H173447   4.941   1.645  13.802  2.2500 -0.5900 -0.7215
17344TIP3    H273448   5.009   1.779  13.789  0.1978  0.4893 -0.5531
17345TIP3   OH273449   3.935   2.274   4.967  0.3694 -0.0491  0.1930
17345TIP3    H173450   4.019   2.230   4.965  0.8927  0.7929  2.3832
17345TIP3    H273451   3.870   2.203   4.966  1.0973 -0.7106 -0.8614
17346TIP3   OH273452   4.862   3.808   0.742 -0.5825 -0.3226  0.4101
17346TIP3    H173453   4.844   3.878   0.679 -0.4213  0.4684  1.2302
17346TIP3    H273454   4.785   3.806   0.798 -0.1768 -0.1489  0.9775
17347TIP3   OH273455   4.966   1.100   2.939 -0.2385 -0.3042  0.1359
17347TIP3    H173456   5.030   1.127   2.872  0.6912  1.1179  1.5685
17347TIP3    H273457   4.929   1.019   2.904 -0.3206  0.7817 -2.4765
17348TIP3   OH273458   6.427   3.906  14.979  0.3811  0.2610  0.3249
17348TIP3    H173459   6.412   3.982  15.035 -1.2856  0.7847 -0.8085
17348TIP3    H273460   6.498   3.931  14.921 -0.7095  1.2639 -0.5896
17349TIP3   OH273461   3.291   3.778  13.763 -0.3836  0.0773  0.1636
17349TIP3    H173462   3.365   3.747  13.711  0.1542 -0.5443  1.2850
17349TIP3    H273463   3.301   3.734  13.847 -1.4574  0.7828  0.6648
17350TIP3   OH273464   5.972   3.830   0.768 -0.1189 -0.7286  0.0920
17350TIP3    H173465   6.031   3.754   0.772 -0.8837 -1.3184  0.3403
17350TIP3    H273466   5.909   3.815   0.839 -0.3306  0.0983  0.0822
17351TIP3   OH273467   5.658   6.599  16.100 -0.2753  0.0259 -0.1075
17351TIP3    H173468   5.610   6.681  16.109  1.4700  0.9074  1.6553
17351TIP3    H273469   5.591   6.531  16.112 -1.4483  1.2035  0.1639
17352TIP3   OH273470   1.164   1.653  15.552  0.3895 -0.1500  0.2078
17352TIP3    H173471   1.222   1.587  15.591  0.4450 -0.0578  0.2791
17352TIP3    H273472   1.138   1.709  15.624  0.5210  0.0419  0.1051
17353TIP3   OH273473   3.660   4.387  11.670 -0.0891  0.3324  0.5218
17353TIP3    H173474   3.663   4.467  11.618 -0.0922 -1.9897 -3.2619
17353TIP3    H273475   3.569   4.379  11.697 -0.1204  1.5156  0.7585
17354TIP3   OH273476   1.277   0.536   0.761  0.2516 -0.8502 -0.4641
17354TIP3    H173477   1.335   0.575   0.826  2.7990 -2.5153 -1.6786
17354TIP3    H273478   1.241   0.611   0.713  0.2453  0.2648  1.2576
17355TIP3   OH273479   4.702   3.035  14.714 -0.0138 -0.1853  0.1671
17355TIP3    H173480   4.742   3.035  14.627 -0.4294 -1.1017 -0.0271
17355TIP3    H273481   4.771   3.069  14.772 -0.2077  1.7420 -0.7204
17356TIP3   OH273482   3.905   5.702   4.036 -0.0332  0.1735  0.0968
17356TIP3    H173483   3.970   5.771   4.019  0.4544 -0.7660 -2.0212
17356TIP3    H273484   3.900   5.654   3.954 -0.7272 -2.0323  1.4026
17357TIP3   OH273485   0.893   4.272  12.111 -0.2882 -0.2484  0.1073
17357TIP3    H173486   0.807   4.289  12.073  0.0328 -0.6975 -0.8129
17357TIP3    H273487   0.915   4.183  12.085  0.0577 -0.4756  1.1188
17358TIP3   OH273488   5.895   0.882  12.675 -0.0278  0.2116 -0.0990
17358TIP3    H173489   5.837   0.957  12.691 -0.3551  0.1033 -0.7872
17358TIP3    H273490   5.982   0.922  12.667 -0.0216  0.3868  0.7947
17359TIP3   OH273491   0.350   3.050  16.453  0.0564  0.1215  0.1402
17359TIP3    H173492   0.260   3.025  16.473 -0.2486  1.4848  0.4838
17359TIP3    H273493   0.403   3.005  16.519 -0.6504  1.8131  1.9055
17360TIP3   OH273494   0.539   1.583  15.494 -0.4071 -0.1682  0.4321
17360TIP3    H173495   0.574   1.548  15.576 -2.7895  1.0837  2.0311
17360TIP3    H273496   0.467   1.524  15.472  0.4571 -0.7108 -0.9777
17361TIP3   OH273497   2.562   4.009  15.915 -0.1770  0.2146 -0.6834
17361TIP3    H173498   2.597   4.033  16.000  1.3325  0.7929 -1.4613
17361TIP3    H273499   2.535   3.917  15.925  2.0933 -0.4198 -0.2469
17362TIP3   OH273500   3.549   3.610   4.366 -0.2247 -0.3293 -0.5974
17362TIP3    H173501   3.622   3.558   4.399  0.8536  0.4418 -1.7058
17362TIP3    H273502   3.502   3.639   4.444  1.7474  0.7106  0.2278
17363TIP3   OH273503   6.262   3.462  15.237  0.2662  0.1301 -0.0560
17363TIP3    H173504   6.350   3.494  15.215  0.2295  0.6981  0.5945
17363TIP3    H273505   6.269   3.434  15.328  0.5495 -2.6726 -0.9134
17364TIP3   OH273506   3.939   1.187   4.999  0.4845  0.6569 -0.0432
17364TIP3    H173507   3.980   1.259   4.951  0.1299  0.6134 -0.4065
17364TIP3    H273508   4.012   1.128   5.020  0.5734  0.4644 -0.8996
17365TIP3   OH273509   6.738   2.180  11.016  0.7610 -0.4542  0.6855
17365TIP3    H173510   6.768   2.265  11.049 -0.7967 -0.2131  1.5244
17365TIP3    H273511   6.780   2.116  11.075  1.0081 -0.2187  0.7687
17366TIP3   OH273512   3.303   1.022   0.726  0.1548 -0.1531  0.3793
17366TIP3    H173513   3.383   0.999   0.774 -0.2443 -0.9075  0.6926
17366TIP3    H273514   3.243   1.053   0.793 -0.7536 -2.1438  0.5320
17367TIP3   OH273515   0.402   2.122  17.239 -0.3712  0.2715  0.3589
17367TIP3    H173516   0.425   2.048  17.183  0.3832  0.4013  0.4844
17367TIP3    H273517   0.319   2.097  17.280  0.1772 -0.7703  0.8566
17368TIP3   OH273518   1.275   2.075   2.325  0.6271 -0.2887 -0.0785
17368TIP3    H173519   1.328   2.004   2.289 -2.1770 -2.1460 -0.7279
17368TIP3    H273520   1.276   2.061   2.419 -0.7224 -1.8254 -0.2732
17369TIP3   OH273521   5.516   1.217  15.960  0.0638 -0.2733  0.0218
17369TIP3    H173522   5.456   1.283  15.996 -1.7054 -0.8364 -1.8346
17369TIP3    H273523   5.585   1.268  15.918 -0.4500  0.3933 -0.0237
17370TIP3   OH273524   4.772   5.956  12.944  0.1904 -0.5300  0.5275
17370TIP3    H173525   4.810   6.007  12.873 -0.3573 -0.6621  0.1298
17370TIP3    H273526   4.735   5.878  12.900  1.6013 -1.5902  1.2037
17371TIP3   OH273527   2.398   4.996   6.069  0.7702 -0.6422  0.0241
17371TIP3    H173528   2.408   5.089   6.091  0.3476 -0.4202 -0.7169
17371TIP3    H273529   2.327   4.967   6.126  1.4561 -0.7192  0.8553
17372TIP3   OH273530   4.804   5.314  16.866 -0.9078 -0.3664  0.5266
17372TIP3    H173531   4.876   5.299  16.927 -0.7931 -1.5659  0.1214
17372TIP3    H273532   4.748   5.236  16.875 -0.3213 -1.0815 -1.6542
17373TIP3   OH273533   6.743   6.734   5.110 -0.3710 -0.2549  0.4120
17373TIP3    H173534   6.765   6.818   5.150 -1.6176  0.4114 -0.2617
17373TIP3    H273535   6.760   6.670   5.178 -0.2325  0.6279  1.2232
17374TIP3   OH273536   3.114   6.303  15.747  0.1300  0.0888  0.3994
17374TIP3    H173537   3.144   6.318  15.837  1.1523  0.3262  0.0325
17374TIP3    H273538   3.062   6.381  15.726  1.8403  1.1589 -0.0057
17375TIP3   OH273539   5.316   5.051   3.687  0.5310 -0.3208  0.2011
17375TIP3    H173540   5.310   5.146   3.688 -1.2592 -0.4255  1.2174
17375TIP3    H273541   5.339   5.029   3.597 -0.1109  1.0187 -0.2980
17376TIP3   OH273542   1.363   6.495  12.544  0.4210  0.0475  0.8770
17376TIP3    H173543   1.365   6.400  12.559  0.1669  0.0772  1.1106
17376TIP3    H273544   1.275   6.521  12.570 -0.0310  0.1064 -0.6579
17377TIP3   OH273545   2.423   0.506  16.417 -0.1069 -0.1653  0.5256
17377TIP3    H173546   2.363   0.453  16.365  1.7033  0.4208 -2.2776
17377TIP3    H273547   2.375   0.586  16.436 -0.2207  0.3527 -1.7992
17378TIP3   OH273548   6.241   6.578   1.803 -0.2653 -0.4213  0.4987
17378TIP3    H173549   6.237   6.484   1.822 -1.1098 -0.1756  1.5806
17378TIP3    H273550   6.198   6.619   1.878 -0.5520  0.7885 -0.3207
17379TIP3   OH273551   1.614   4.605  14.625  0.0698 -0.3776  0.2724
17379TIP3    H173552   1.522   4.628  14.639 -0.2190 -1.8801  0.9720
17379TIP3    H273553   1.663   4.683  14.652 -0.9632  0.2134  0.4734
17380TIP3   OH273554   0.286   1.103  14.286 -0.0708 -0.0648  0.5439
17380TIP3    H173555   0.197   1.104  14.321 -0.2665 -0.4775  0.0596
17380TIP3    H273556   0.290   1.179  14.228  0.4103  0.9211  1.8141
17381TIP3   OH273557   4.581   0.197   1.432  0.2074  0.5971  0.2677
17381TIP3    H173558   4.563   0.206   1.526  1.0787  2.2813  0.3130
17381TIP3    H273559   4.526   0.125   1.403 -0.6435  0.5541  1.9276
17382TIP3   OH273560   2.050   5.631   5.590 -0.3852 -0.0998  0.2083
17382TIP3    H173561   2.109   5.706   5.593  0.3493 -0.5990 -1.4424
17382TIP3    H273562   2.006   5.632   5.675 -0.0568  1.9244  0.3667
17383TIP3   OH273563   0.569   5.600  17.016  0.3797 -0.3790  0.6111
17383TIP3    H173564   0.577   5.639  17.103  1.1707 -0.5227  0.6071
17383TIP3    H273565   0.527   5.668  16.963  0.2842 -0.1321  1.0008
17384TIP3   OH273566   4.319   5.444  12.920  0.2698 -0.3889  0.6731
17384TIP3    H173567   4.244   5.394  12.887  1.6171 -1.8646 -0.2691
17384TIP3    H273568   4.290   5.535  12.920 -0.7013 -0.6457 -2.0633
17385TIP3   OH273569   3.779   6.319  14.472 -0.6524 -0.1081  0.1804
17385TIP3    H173570   3.773   6.320  14.568 -0.3511  1.7346  0.2034
17385TIP3    H273571   3.694   6.288  14.443 -0.6706 -0.9006  1.0525
17386TIP3   OH273572   6.320   5.555  14.490  0.3912 -0.6247  0.0792
17386TIP3    H173573   6.305   5.650  14.488 -0.5620 -0.7803 -0.2391
17386TIP3    H273574   6.323   5.533  14.583  1.2071 -0.1913  0.1603
17387TIP3   OH273575   6.277   0.687  13.029  0.1851 -0.0098 -0.3326
17387TIP3    H173576   6.187   0.713  13.009  0.3362  1.7496  1.1051
17387TIP3    H273577   6.331   0.741  12.971  0.3296 -0.7858 -0.9238
17388TIP3   OH273578   2.818   2.034  13.552 -0.6046  0.0133  0.7172
17388TIP3    H173579   2.751   2.101  13.549 -0.9731 -0.4034 -0.8676
17388TIP3    H273580   2.860   2.037  13.466  0.0663 -1.0719  0.9849
17389TIP3   OH273581   3.233   1.712  13.810 -0.1140  0.4622  0.4723
17389TIP3    H173582   3.156   1.700  13.865 -0.3642  0.7651  0.1878
17389TIP3    H273583   3.223   1.646  13.741  0.9978 -0.9790  1.6691
17390TIP3   OH273584   1.378   3.338  11.587 -0.0251  0.0522 -0.5175
17390TIP3    H173585   1.400   3.327  11.495  0.2083  0.0216 -0.4586
17390TIP3    H273586   1.364   3.432  11.598  0.4903  0.1267 -0.4651
17391TIP3   OH273587   2.731   1.503  15.999 -0.1678  0.1094 -0.9190
17391TIP3    H173588   2.792   1.577  16.005  1.5129 -1.4463  2.0795
17391TIP3    H273589   2.660   1.525  16.059 -1.0838  0.5097 -2.1162
17392TIP3   OH273590   2.380   5.808  13.788 -0.3095  0.1116 -0.7134
17392TIP3    H173591   2.439   5.745  13.829 -1.3368  1.4612  3.0784
17392TIP3    H273592   2.316   5.829  13.857 -3.1181  1.3182 -3.5796
17393TIP3   OH273593   0.926   4.758   1.382 -0.2816  0.3878  0.4569
17393TIP3    H173594   0.961   4.722   1.301  0.6130  3.1472 -0.4323
17393TIP3    H273595   0.854   4.816   1.354 -0.3464  0.9124  1.6625
17394TIP3   OH273596   0.301   4.271  12.276 -0.0060 -0.0397 -0.2059
17394TIP3    H173597   0.344   4.230  12.201  0.5275 -0.0848  0.1177
17394TIP3    H273598   0.262   4.351  12.241 -0.8477 -0.6996 -0.7910
17395TIP3   OH273599   2.313   4.730   5.722  0.2476  0.1848 -0.1755
17395TIP3    H173600   2.327   4.648   5.674 -2.4560 -1.1350  1.1428
17395TIP3    H273601   2.218   4.742   5.720  0.5026  2.6035  0.7979
17396TIP3   OH273602   0.673   4.903  11.626 -0.3225  0.2619 -0.4878
17396TIP3    H173603   0.722   4.844  11.568  0.0477 -0.5855  0.6623
17396TIP3    H273604   0.663   4.853  11.707  0.8646  2.1322  0.8599
17397TIP3   OH273605   6.753   6.146  14.034 -0.3146  0.4342  0.0955
17397TIP3    H173606   6.738   6.215  14.098  1.0951  0.8018  0.0447
17397TIP3    H273607   6.675   6.147  13.979 -0.1062  2.3105 -0.1912
17398TIP3   OH273608   4.162   2.289  16.643 -0.3584  0.6444 -1.2073
17398TIP3    H173609   4.178   2.201  16.610  0.9449  0.3731  0.1060
17398TIP3    H273610   4.217   2.345  16.590  0.8950  0.3338 -0.2641
17399TIP3   OH273611   6.473   6.193  11.119 -0.1270  0.0785 -0.3467
17399TIP3    H173612   6.413   6.182  11.045  0.8679 -0.2435 -1.1076
17399TIP3    H273613   6.558   6.213  11.079 -0.2070  3.0176  0.7612
17400TIP3   OH273614   6.210   3.658   5.398 -0.3180 -0.7693  0.3280
17400TIP3    H173615   6.118   3.638   5.384 -0.9521  1.0917  1.6162
17400TIP3    H273616   6.217   3.678   5.491  1.5571 -1.7001  0.4118
17401TIP3   OH273617   2.667   5.629   1.646  0.0682 -0.3903 -0.6674
17401TIP3    H173618   2.762   5.623   1.653 -0.0013 -1.1992 -0.3876
17401TIP3    H273619   2.635   5.619   1.736 -0.1818  2.1034 -0.4331
17402TIP3   OH273620   5.761   6.556   5.933  0.7290 -0.1913 -0.0283
17402TIP3    H173621   5.756   6.626   5.997  0.2110 -0.0514 -0.2164
17402TIP3    H273622   5.829   6.498   5.966  1.1765  0.4117  0.1144
17403TIP3   OH273623   2.975   5.884   0.737 -0.3144 -0.2857  0.0700
17403TIP3    H173624   3.032   5.830   0.683  0.3488 -0.2827  0.7719
17403TIP3    H273625   3.013   5.882   0.824  0.1041  1.8457 -0.0277
17404TIP3   OH273626   1.895   6.156   1.395 -0.4632 -0.1149  0.3682
17404TIP3    H173627   1.849   6.235   1.421  0.1446  0.3005  0.1870
17404TIP3    H273628   1.866   6.140   1.305 -1.0579 -0.4492  0.6145
17405TIP3   OH273629   5.974   5.603  13.253  0.2481 -0.3368  0.6741
17405TIP3    H173630   6.046   5.633  13.197  0.4613 -0.7761  0.7057
17405TIP3    H273631   5.982   5.507  13.252 -0.6603 -0.4171  0.2412
17406TIP3   OH273632   0.749   3.706  14.315 -0.1682 -0.0991  0.2082
17406TIP3    H173633   0.688   3.780  14.319  0.4136  0.4393 -0.6488
17406TIP3    H273634   0.692   3.629  14.321 -0.8878  0.3996 -0.0389
17407TIP3   OH273635   3.879   4.549  16.804  0.3857  0.6413  0.4406
17407TIP3    H173636   3.815   4.480  16.788 -0.1321  1.3371 -0.5209
17407TIP3    H273637   3.841   4.627  16.764  1.2373  1.3502  1.0047
17408TIP3   OH273638   0.573   5.027  11.219  0.0691 -0.0786  1.0758
17408TIP3    H173639   0.527   4.949  11.250  0.9510 -0.2205  2.0398
17408TIP3    H273640   0.521   5.100  11.253  1.5025 -0.2245  3.6684
17409TIP3   OH273641   5.233   0.148   1.234 -0.0442 -0.1460  0.1963
17409TIP3    H173642   5.156   0.091   1.236 -0.0865 -0.0639  1.0193
17409TIP3    H273643   5.298   0.104   1.289  1.0534 -0.9850 -1.7353
17410TIP3   OH273644   3.517   5.402  15.238  0.4963 -0.5302 -0.1785
17410TIP3    H173645   3.470   5.440  15.311 -1.4129 -0.0424 -1.6210
17410TIP3    H273646   3.574   5.472  15.206  0.4078 -0.3510  0.0589
17411TIP3   OH273647   4.812   2.077   2.520  0.2795  0.2126 -0.4956
17411TIP3    H173648   4.755   2.133   2.468 -0.0571  0.1221 -0.2283
17411TIP3    H273649   4.793   1.988   2.491 -0.9211  0.0463  0.7397
17412TIP3   OH273650   4.458   6.446   2.914 -0.4055  0.3355  0.9093
17412TIP3    H173651   4.504   6.431   2.997 -0.3572 -0.9325  0.6670
17412TIP3    H273652   4.373   6.403   2.926 -0.4336  0.2338  0.3436
17413TIP3   OH273653   0.533   3.785  14.755  0.1248  0.5497  0.6002
17413TIP3    H173654   0.495   3.702  14.783  0.3640 -0.0227 -0.7201
17413TIP3    H273655   0.618   3.789  14.800 -0.2066  0.4223  1.2343
17414TIP3   OH273656   4.316   0.638   1.978 -0.1166  0.1793  0.2037
17414TIP3    H173657   4.297   0.566   1.917  0.3342  2.6965 -3.0318
17414TIP3    H273658   4.390   0.606   2.030 -0.4467 -2.0085 -0.5902
17415TIP3   OH273659   2.535   6.694   0.835  0.2503 -0.1905  0.2075
17415TIP3    H173660   2.498   6.749   0.904  0.8385 -0.0068  0.3855
17415TIP3    H273661   2.466   6.632   0.813 -0.1400  0.1152  0.5629
17416TIP3   OH273662   6.010   1.247   6.043 -0.2347  0.3905 -0.2976
17416TIP3    H173663   6.064   1.222   5.968  0.9685  0.3116  0.5700
17416TIP3    H273664   6.038   1.336   6.065  0.2522 -0.0050  0.7539
17417TIP3   OH273665   0.009   2.866  13.527  0.5012 -0.3830 -0.2429
17417TIP3    H173666   0.020   2.802  13.457  0.1648  0.1047 -0.7564
17417TIP3    H273667  -0.033   2.817  13.598 -1.9454 -0.2202 -1.4958
17418TIP3   OH273668   5.594   1.355   0.354 -0.2215  0.0450  0.4510
17418TIP3    H173669   5.527   1.287   0.359  1.0905 -1.1448  3.0942
17418TIP3    H273670   5.570   1.418   0.422  1.2742 -0.3921  1.4236
17419TIP3   OH273671   5.073   0.316   4.207  0.0457 -0.0647 -0.1420
17419TIP3    H173672   5.024   0.351   4.133 -2.4611  0.0167  1.5157
17419TIP3    H273673   5.096   0.227   4.180 -1.5548 -0.3200 -0.7050
17420TIP3   OH273674   2.917   4.477  10.446  0.1294 -0.4566  0.5023
17420TIP3    H173675   2.946   4.387  10.432  0.7526 -0.5186  2.0655
17420TIP3    H273676   2.854   4.471  10.518 -0.5059  0.2505  0.0159
17421TIP3   OH273677   6.665   2.101  12.101  0.0835 -0.4239  0.6841
17421TIP3    H173678   6.693   2.028  12.046  2.6621 -0.9293  2.5709
17421TIP3    H273679   6.570   2.090  12.109  0.0504 -1.9019 -1.3946
17422TIP3   OH273680   3.622   6.014  14.357  0.2083 -0.1876  0.1587
17422TIP3    H173681   3.562   6.012  14.431 -0.6162  0.8673 -0.4682
17422TIP3    H273682   3.617   5.926  14.319 -2.0716  0.2938 -0.7616
17423TIP3   OH273683   6.370   0.972  14.012  0.4634  0.3917  0.5531
17423TIP3    H173684   6.289   0.926  14.036  1.0000  0.3438  2.3586
17423TIP3    H273685   6.437   0.903  14.011  0.9547  0.8420  1.6244
17424TIP3   OH273686   0.871   3.033  16.724  0.5911 -0.2904  0.0814
17424TIP3    H173687   0.818   3.094  16.776  1.0799 -0.9274  1.3426
17424TIP3    H273688   0.943   3.086  16.692  0.5620 -0.0081  0.4806
17425TIP3   OH273689   5.170   0.654   0.035  0.4197 -0.4291  0.0024
17425TIP3    H173690   5.143   0.607  -0.044 -5.1739  0.9504  0.8796
17425TIP3    H273691   5.191   0.742   0.005 -0.4723 -0.2584 -0.1341
17426TIP3   OH273692   5.898   4.631   1.969  0.3270  0.2227  0.4766
17426TIP3    H173693   5.859   4.560   2.019 -1.7261  0.3175 -0.9428
17426TIP3    H273694   5.992   4.610   1.967 -0.1427 -2.0529  0.7057
17427TIP3   OH273695   1.450   0.341  14.413  0.5200  0.2005  0.3510
17427TIP3    H173696   1.433   0.254  14.375 -0.7668  0.0099  1.3639
17427TIP3    H273697   1.496   0.388  14.343 -0.5665 -0.6156 -0.9432
17428TIP3   OH273698   4.080   2.535   2.658  0.2044 -0.0423  0.1259
17428TIP3    H173699   4.113   2.497   2.576  0.8602 -1.3570  0.9820
17428TIP3    H273700   3.994   2.494   2.670  0.3156 -0.2115  0.3425
17429TIP3   OH273701   0.878   3.540   1.911  0.6601  0.3058  0.5154
17429TIP3    H173702   0.955   3.483   1.916 -0.2218 -0.8990  0.6279
17429TIP3    H273703   0.831   3.510   1.834  0.2533  0.9987  0.4869
17430TIP3   OH273704   5.111   0.681   2.782 -0.1625 -0.7069 -1.3954
17430TIP3    H173705   5.093   0.590   2.803  0.8486 -0.9673 -1.5995
17430TIP3    H273706   5.038   0.709   2.728 -0.5623 -1.3479 -1.1888
17431TIP3   OH273707   4.786   6.316   1.844  0.0989  0.0981  0.3236
17431TIP3    H173708   4.876   6.295   1.820 -0.5971 -0.5017 -1.8460
17431TIP3    H273709   4.733   6.249   1.800 -1.3701  0.0255  2.1389
17432TIP3   OH273710   3.137   3.308   6.173  0.2841  0.0368  0.3826
17432TIP3    H173711   3.180   3.237   6.222 -1.1796 -0.6854  0.6587
17432TIP3    H273712   3.046   3.305   6.203  0.0216  1.4653 -0.2753
17433TIP3   OH273713   2.780   6.210  15.705 -0.1690  0.1209  0.7344
17433TIP3    H173714   2.797   6.276  15.772  0.7996 -0.5492  1.1639
17433TIP3    H273715   2.751   6.260  15.628  1.9143  1.1459  0.5980
17434TIP3   OH273716   5.767   3.237  15.277 -0.9734  0.0361  0.8142
17434TIP3    H173717   5.717   3.245  15.358 -1.9739 -1.5083  0.3673
17434TIP3    H273718   5.848   3.193  15.303 -0.2869  1.5673  1.3460
17435TIP3   OH273719   0.791   0.549   1.327 -0.2757 -0.0177 -0.2661
17435TIP3    H173720   0.868   0.518   1.280 -0.5959  0.7926 -1.3300
17435TIP3    H273721   0.824   0.614   1.388 -0.1375  0.5071 -0.8944
17436TIP3   OH273722   5.015   5.180  12.025  0.1429  0.3901 -0.2142
17436TIP3    H173723   4.973   5.149  12.105  0.7782  0.1453  0.0342
17436TIP3    H273724   5.094   5.126  12.017 -1.5706 -1.8097 -2.7799
17437TIP3   OH273725   4.347   3.583  15.290 -0.3203  0.2411 -0.2843
17437TIP3    H173726   4.330   3.667  15.334  0.5345  0.7886 -0.9773
17437TIP3    H273727   4.308   3.518  15.347 -1.1201  1.1260  0.1988
17438TIP3   OH273728   5.406   2.715  15.963 -0.0454  0.0575 -0.0944
17438TIP3    H173729   5.311   2.717  15.962 -0.0919 -1.8897  0.0450
17438TIP3    H273730   5.430   2.741  16.052 -0.5584 -2.7575  0.9046
17439TIP3   OH273731   6.000   4.501  12.906 -0.5191  0.4140  0.3275
17439TIP3    H173732   6.022   4.592  12.885 -1.8926  0.7835  0.3958
17439TIP3    H273733   6.082   4.453  12.896  0.8952  2.1321  3.0132
17440TIP3   OH273734   5.660   2.811  12.086  0.4931 -0.4316 -0.2908
17440TIP3    H173735   5.678   2.879  12.150  0.6311  0.7394 -1.5635
17440TIP3    H273736   5.585   2.843  12.037 -0.0693 -1.6565 -0.2553
17441TIP3   OH273737   5.247   4.674  13.865  0.5285  0.0841  0.1387
17441TIP3    H173738   5.324   4.729  13.879  0.0095  1.4651 -2.3014
17441TIP3    H273739   5.278   4.585  13.882  1.9052  0.8946  2.0439
17442TIP3   OH273740   1.654   4.014  11.859 -0.4530 -0.5184 -0.2803
17442TIP3    H173741   1.703   3.935  11.879 -1.2854 -1.3513 -1.4820
17442TIP3    H273742   1.718   4.085  11.867  0.2638 -1.2899  0.8899
17443TIP3   OH273743   0.753   5.695  11.977  0.2991 -0.0157  0.2873
17443TIP3    H173744   0.768   5.641  12.054 -1.1854 -2.1884 -0.9071
17443TIP3    H273745   0.816   5.663  11.912  1.3386  1.6036  0.4634
17444TIP3   OH273746   0.566   1.242  15.919  0.2571  0.1391  0.1438
17444TIP3    H173747   0.492   1.243  15.857  0.4579 -0.3404 -0.1050
17444TIP3    H273748   0.537   1.299  15.991  0.1656  0.9891 -0.5512
17445TIP3   OH273749   4.556   0.154  14.028 -0.0083  0.7477 -0.2431
17445TIP3    H173750   4.466   0.177  14.053 -1.5109 -2.5224 -2.3225
17445TIP3    H273751   4.556   0.156  13.933  1.8332 -0.3245 -0.2823
17446TIP3   OH273752   6.449   0.639  14.538  0.6375 -1.1354  0.2727
17446TIP3    H173753   6.404   0.695  14.475  0.8320 -1.5089 -0.2011
17446TIP3    H273754   6.452   0.690  14.618  1.6633 -0.0793 -0.4151
17447TIP3   OH273755   2.635   4.082  15.010  0.3854 -0.6574 -0.3208
17447TIP3    H173756   2.719   4.110  14.974  0.9197 -0.1785  1.2589
17447TIP3    H273757   2.597   4.160  15.049  0.7309 -1.5603  1.8868
17448TIP3   OH273758   0.574   4.690  16.521 -0.6069 -0.3914  0.0975
17448TIP3    H173759   0.568   4.630  16.446 -1.0201  0.7777 -0.8213
17448TIP3    H273760   0.579   4.777  16.482 -1.4039  0.2834  1.4468
17449TIP3   OH273761   1.942   2.232  15.653  0.3628 -0.2384  0.7312
17449TIP3    H173762   1.866   2.266  15.700  0.4348  0.6847  0.1852
17449TIP3    H273763   2.017   2.275  15.695  0.6520 -1.7582  1.8020
17450TIP3   OH273764   3.949   3.972   4.529  0.6907 -0.0670  0.0147
17450TIP3    H173765   3.860   3.939   4.522  0.6570 -0.2404  1.2197
17450TIP3    H273766   3.983   3.933   4.610  2.0594 -0.4863 -0.7376
17451TIP3   OH273767   5.668   6.753  13.809  0.0309 -0.1302 -0.1340
17451TIP3    H173768   5.734   6.821  13.823  0.3561 -0.2149 -1.1796
17451TIP3    H273769   5.585   6.801  13.799 -0.1117 -0.0421  1.4567
17452TIP3   OH273770   3.394   1.318  12.445 -0.2225  0.3567 -0.0634
17452TIP3    H173771   3.409   1.413  12.451  0.3833  0.2546 -0.0087
17452TIP3    H273772   3.479   1.282  12.420  0.4810 -0.5747  3.4923
17453TIP3   OH273773   4.717   1.652  11.109  0.2070 -0.2454 -0.3030
17453TIP3    H173774   4.729   1.558  11.119 -0.2454 -0.1963  0.6812
17453TIP3    H273775   4.679   1.662  11.021  0.8553 -0.9219 -0.6682
17454TIP3   OH273776   2.561   6.785  13.728  0.2371 -0.1995  0.1324
17454TIP3    H173777   2.563   6.762  13.635 -0.0125 -0.8080  0.2788
17454TIP3    H273778   2.638   6.742  13.765  1.0721  1.1099 -0.0347
17455TIP3   OH273779   4.855   3.568   5.668  0.5558 -0.3861  0.5697
17455TIP3    H173780   4.896   3.584   5.753  0.0060 -0.0113  0.7658
17455TIP3    H273781   4.767   3.537   5.689 -0.2588  1.5541  0.1427
17456TIP3   OH273782   0.937   5.885  15.646 -0.4489  0.5707  0.0333
17456TIP3    H173783   1.011   5.932  15.610 -0.1790 -0.0292 -0.1955
17456TIP3    H273784   0.959   5.871  15.738 -0.9537  1.7317  0.3357
17457TIP3   OH273785   0.191   6.569  14.954  0.2431  0.5994  0.4898
17457TIP3    H173786   0.203   6.632  15.025 -0.0901  0.8483  0.3301
17457TIP3    H273787   0.180   6.624  14.876 -0.1495  0.3463  0.3658
17458TIP3   OH273788   3.232   1.820   2.367 -0.5431  0.1276 -0.2242
17458TIP3    H173789   3.171   1.860   2.304  1.3479  0.2774 -1.9885
17458TIP3    H273790   3.190   1.738   2.392 -2.8199  1.5489  0.7706
17459TIP3   OH273791   3.240   4.596  16.352 -0.2402 -0.0124 -0.0351
17459TIP3    H173792   3.147   4.601  16.329  0.4483  0.9023 -2.7238
17459TIP3    H273793   3.245   4.642  16.436 -2.0295  1.0777 -0.4848
17460TIP3   OH273794   6.011   5.078  16.039  0.1652 -1.0998 -0.2679
17460TIP3    H173795   5.942   5.055  15.976  0.1974 -4.0410  0.6873
17460TIP3    H273796   5.970   5.144  16.096  0.2098  1.7686 -3.4097
17461TIP3   OH273797   0.934   3.050  17.131 -0.5070  0.0426 -0.3649
17461TIP3    H173798   1.014   3.075  17.084 -1.7151  0.5556 -2.1897
17461TIP3    H273799   0.940   2.955  17.140  1.5664  0.3389  1.8846
17462TIP3   OH273800   3.596   2.232   2.129 -0.6402  0.1207 -0.0337
17462TIP3    H173801   3.549   2.283   2.063  0.0573 -1.9018 -2.1372
17462TIP3    H273802   3.599   2.143   2.095  0.8122 -0.7404  2.1529
17463TIP3   OH273803   1.941   2.959   6.526 -0.0159  0.4025  0.0500
17463TIP3    H173804   1.878   3.026   6.552 -0.7088  0.2338 -1.1554
17463TIP3    H273805   2.020   3.008   6.504 -0.6955  0.8985 -1.3819
17464TIP3   OH273806   0.914   2.616   0.401  0.2422 -0.0181  0.6371
17464TIP3    H173807   0.873   2.626   0.487  0.2603  0.3240  0.6060
17464TIP3    H273808   1.004   2.645   0.414  0.5733 -1.0769  0.7844
17465TIP3   OH273809   2.687   3.201  11.343  0.2770  0.1418  0.3140
17465TIP3    H173810   2.677   3.112  11.310 -0.6882  0.0477  0.8748
17465TIP3    H273811   2.703   3.254  11.264  1.0684 -0.5445  0.0047
17466TIP3   OH273812   3.574   2.406  14.426 -0.3162  0.0488 -0.5589
17466TIP3    H173813   3.492   2.448  14.402 -0.8916 -0.7327  0.0379
17466TIP3    H273814   3.556   2.312  14.419 -0.2941 -0.1914  2.2428
17467TIP3   OH273815   0.739   3.369   3.902 -0.1250  0.1796  0.0423
17467TIP3    H173816   0.694   3.285   3.911 -1.0765  0.6738 -0.1371
17467TIP3    H273817   0.693   3.428   3.962 -2.8082  1.9516 -3.5876
17468TIP3   OH273818   1.535   4.449  11.836 -0.2538 -0.0202 -0.9759
17468TIP3    H173819   1.461   4.394  11.864 -0.9592  0.5630 -1.6632
17468TIP3    H273820   1.585   4.392  11.778  0.9702 -1.0843  1.0769
17469TIP3   OH273821   6.717   5.162  12.038  0.1506  0.6632  0.3635
17469TIP3    H173822   6.788   5.134  12.096 -0.1512 -0.9280 -0.0205
17469TIP3    H273823   6.762   5.200  11.963  0.6549 -1.3229 -0.3774
17470TIP3   OH273824   2.780   4.416  13.688  0.2445  0.3022  0.2896
17470TIP3    H173825   2.863   4.389  13.729  1.1774  0.4386 -1.4506
17470TIP3    H273826   2.724   4.339  13.694  0.0409  0.5842  2.5693
17471TIP3   OH273827   4.746   5.008  17.116 -0.1624 -1.0642 -0.5353
17471TIP3    H173828   4.773   4.953  17.190 -1.7912  0.2937  1.0971
17471TIP3    H273829   4.829   5.035  17.075  0.7829 -1.2844  1.1902
17472TIP3   OH273830   3.454   4.493   4.527 -0.3692 -0.2024  0.0210
17472TIP3    H173831   3.508   4.415   4.513 -0.0789  0.1996 -1.1324
17472TIP3    H273832   3.501   4.563   4.481 -1.1516  0.4382  0.1936
17473TIP3   OH273833   1.076   5.578   6.071  0.4339 -0.5731 -0.1489
17473TIP3    H173834   1.111   5.489   6.073  2.3006  0.1437  0.3595
17473TIP3    H273835   1.039   5.592   6.157  1.2902 -0.4294  0.2027
17474TIP3   OH273836   5.163   0.829  16.501  0.3029  0.5323  0.2685
17474TIP3    H173837   5.186   0.890  16.430  1.4630  0.0430  0.2129
17474TIP3    H273838   5.195   0.744  16.471 -3.6428 -0.6648 -0.8398
17475TIP3   OH273839   4.357   1.699  12.250  0.0650 -0.2204  0.2904
17475TIP3    H173840   4.368   1.775  12.307 -1.2201 -0.8883  1.4573
17475TIP3    H273841   4.273   1.713  12.207  1.0410  0.2907 -1.5024
17476TIP3   OH273842   0.413   0.714  16.470  0.2147 -0.0115 -0.2930
17476TIP3    H173843   0.422   0.801  16.433 -0.9007  0.2856  0.1328
17476TIP3    H273844   0.435   0.724  16.563  1.1727 -0.4053 -0.4622
17477TIP3   OH273845   1.843   2.556   4.291  0.0475  0.2559  0.1230
17477TIP3    H173846   1.808   2.581   4.206  0.0363 -0.4182 -0.0697
17477TIP3    H273847   1.912   2.493   4.271  0.6199  0.7460  0.5644
17478TIP3   OH273848   4.089   2.363   1.835  0.2656 -0.0515 -0.1165
17478TIP3    H173849   4.085   2.435   1.772 -1.0568 -0.6321 -0.7247
17478TIP3    H273850   4.133   2.292   1.788 -1.5335 -0.7963 -0.7439
17479TIP3   OH273851   3.335   1.691   1.989 -0.5398 -0.0537  0.3561
17479TIP3    H173852   3.376   1.690   2.076 -0.6021  0.0300  0.3864
17479TIP3    H273853   3.393   1.745   1.936 -0.5967  0.0432  0.3923
17480TIP3   OH273854   3.883   1.228  11.268 -0.1978  0.0499  0.1973
17480TIP3    H173855   3.795   1.205  11.298  0.4918  0.5673  2.6801
17480TIP3    H273856   3.894   1.320  11.293  0.8332  0.1647 -0.6429
17481TIP3   OH273857   4.846   4.886  16.858  0.0124 -0.0530 -0.6090
17481TIP3    H173858   4.870   4.884  16.765 -1.1408 -0.8448 -0.9068
17481TIP3    H273859   4.783   4.957  16.865 -1.7339 -1.5245 -0.9224
17482TIP3   OH273860   1.493   0.689   3.782  0.2112 -0.0451  0.3415
17482TIP3    H173861   1.549   0.659   3.711  0.2079  1.9393 -0.5351
17482TIP3    H273862   1.449   0.766   3.747 -1.7863 -0.5735  1.6044
17483TIP3   OH273863   0.415   5.795  12.885  0.0490  0.7350  0.0508
17483TIP3    H173864   0.350   5.726  12.898 -0.4632  1.6018  2.2584
17483TIP3    H273865   0.472   5.761  12.815 -0.4704 -1.7053  0.7659
17484TIP3   OH273866   3.459   3.092  17.162  0.3171 -0.2276  0.3358
17484TIP3    H173867   3.390   3.158  17.155  1.3972  0.7609 -1.5244
17484TIP3    H273868   3.512   3.120  17.236  1.1088  1.3653 -0.7957
17485TIP3   OH273869   4.698   0.862  16.745  0.4762 -0.0461  0.1819
17485TIP3    H173870   4.708   0.954  16.768  2.4406 -0.2410  0.2422
17485TIP3    H273871   4.785   0.836  16.714 -0.2092 -1.7248 -0.3936
17486TIP3   OH273872   5.040   6.342  13.094  0.2192 -0.3408 -0.1638
17486TIP3    H173873   5.059   6.269  13.035 -0.6402 -0.5960 -0.1249
17486TIP3    H273874   4.973   6.393  13.049 -1.3074 -1.1756  1.0928
17487TIP3   OH273875   6.295   1.125  12.178  0.4298  0.0943 -0.2799
17487TIP3    H173876   6.214   1.116  12.227  0.4068  0.4183 -0.2586
17487TIP3    H273877   6.313   1.037  12.145 -0.4892  0.2348 -1.1813
17488TIP3   OH273878   4.530   1.034   2.017  0.0938 -0.1706  0.3758
17488TIP3    H173879   4.437   1.039   2.038  0.2847  1.1072  0.9782
17488TIP3    H273880   4.536   1.071   1.928 -0.1861 -1.8202 -0.3381
17489TIP3   OH273881   3.487   0.712  15.408 -0.9426  0.2178  0.1451
17489TIP3    H173882   3.403   0.672  15.427 -0.2163 -1.1074  0.6166
17489TIP3    H273883   3.508   0.762  15.487 -1.2037  0.4117  0.0921
17490TIP3   OH273884   4.684   2.438  15.332  0.1065 -0.4373  0.1130
17490TIP3    H173885   4.638   2.521  15.326  2.4622  0.9915  1.0180
17490TIP3    H273886   4.650   2.387  15.259 -0.7182  1.6802 -1.0389
17491TIP3   OH273887   5.311   5.485  17.019 -0.8224 -0.5557  0.6509
17491TIP3    H173888   5.338   5.456  16.932  1.3389 -0.9070  1.3955
17491TIP3    H273889   5.267   5.408  17.057 -0.8900 -0.7276  0.2245
17492TIP3   OH273890   5.701   5.829   1.607 -0.3337 -0.5306 -0.0358
17492TIP3    H173891   5.636   5.772   1.648 -2.6707  2.8729  1.2745
17492TIP3    H273892   5.655   5.912   1.594  3.2178  1.4261 -0.8459
17493TIP3   OH273893   2.296   1.062  14.030  0.0553 -0.2465  0.0558
17493TIP3    H173894   2.244   1.079  14.108  2.3310  0.5792  1.4267
17493TIP3    H273895   2.387   1.079  14.056  0.8771  0.0658 -2.7529
17494TIP3   OH273896   3.128   1.870  10.984  0.1719  0.0168  0.6800
17494TIP3    H173897   3.163   1.924  10.912  1.2124  0.6135  1.6285
17494TIP3    H273898   3.033   1.878  10.975  0.3054  1.2661  0.2376
17495TIP3   OH273899   5.657   0.166   4.868 -0.3379 -0.1728  0.6939
17495TIP3    H173900   5.561   0.170   4.873 -0.6160 -2.4736 -1.8249
17495TIP3    H273901   5.681   0.100   4.934 -0.6391 -0.9172  0.0612
17496TIP3   OH273902   5.882   4.416   3.108  0.4561  0.9381 -0.0421
17496TIP3    H173903   5.859   4.509   3.106  0.2909  0.8682 -1.1573
17496TIP3    H273904   5.913   4.396   3.020 -0.4731 -0.3119 -0.0990
17497TIP3   OH273905   0.475   1.080   3.016  0.1295 -1.2117  0.2538
17497TIP3    H173906   0.510   1.007   3.067 -0.1016 -1.2692  0.3319
17497TIP3    H273907   0.536   1.089   2.942  1.1429 -0.3347  1.1795
17498TIP3   OH273908   5.455   0.731  14.001  0.0970  0.1299 -0.3612
17498TIP3    H173909   5.447   0.811  13.948 -1.9249  0.2478  0.0631
17498TIP3    H273910   5.373   0.684  13.984  0.4341 -0.9181  0.8943
17499TIP3   OH273911   5.699   0.471  14.695  0.3452  0.2133 -0.4951
17499TIP3    H173912   5.754   0.455  14.771  1.4884  1.0636 -1.1369
17499TIP3    H273913   5.724   0.558  14.664 -0.9653  0.3845 -1.1251
17500TIP3   OH273914   6.326   5.772   5.477 -0.2790 -0.0909 -0.3331
17500TIP3    H173915   6.377   5.691   5.467  1.7081  0.9053  1.3521
17500TIP3    H273916   6.344   5.821   5.397  1.2199  0.1247  0.1161
17501TIP3   OH273917   1.661   4.900   3.740 -0.6961  0.3897 -0.2286
17501TIP3    H173918   1.644   4.808   3.756  0.3421  0.3598  0.7706
17501TIP3    H273919   1.652   4.942   3.826  0.0741  1.0058 -0.4332
17502TIP3   OH273920   0.960   2.116   3.570  0.3064  0.3794  0.3400
17502TIP3    H173921   1.008   2.190   3.608  0.9087 -0.3994  1.0941
17502TIP3    H273922   0.868   2.143   3.574  0.4709  0.8489  1.1567
17503TIP3   OH273923   1.147   0.766   4.358  0.6740 -0.4857 -0.2252
17503TIP3    H173924   1.241   0.752   4.346  0.7657  0.0665 -0.1991
17503TIP3    H273925   1.136   0.779   4.452  0.7314  0.5122 -0.3479
17504TIP3   OH273926   1.076   5.669   1.315 -0.2136 -0.4502  0.2582
17504TIP3    H173927   1.099   5.580   1.290 -0.3368 -0.1035 -1.1334
17504TIP3    H273928   1.148   5.698   1.370  1.3160 -0.3758 -1.7206
17505TIP3   OH273929   4.631   4.062  13.895 -0.1710  0.1396 -0.3745
17505TIP3    H173930   4.654   4.057  13.802  1.2220  1.8358 -0.1390
17505TIP3    H273931   4.592   4.149  13.906  0.8437  0.4468  0.8789
17506TIP3   OH273932   3.121   2.613   5.285  0.0952 -0.0109  0.0929
17506TIP3    H173933   3.048   2.639   5.341 -0.4765  0.0763 -0.6816
17506TIP3    H273934   3.146   2.693   5.239 -0.3154 -0.3638 -0.7624
17507TIP3   OH273935   1.295   2.084   4.214  0.2008  0.0913  0.8556
17507TIP3    H173936   1.331   1.997   4.193 -0.9438 -0.5694  1.5676
17507TIP3    H273937   1.354   2.145   4.171  0.5441 -1.0694 -0.3683
17508TIP3   OH273938   2.821   3.780   6.145 -0.2265 -0.2669 -0.0826
17508TIP3    H173939   2.792   3.834   6.072  0.9673 -0.1621 -0.4878
17508TIP3    H273940   2.775   3.816   6.221 -1.3409 -0.2701 -0.7355
17509TIP3   OH273941   2.679   4.204   0.967 -0.6666 -0.0385 -0.0320
17509TIP3    H173942   2.672   4.185   0.873  0.3860  2.9280 -0.7461
17509TIP3    H273943   2.772   4.194   0.986 -0.4927  1.7584  0.1318
17510TIP3   OH273944   3.554   3.674  16.778  0.0158 -0.1497 -0.5101
17510TIP3    H173945   3.482   3.736  16.767 -0.1973 -0.5812 -1.6422
17510TIP3    H273946   3.558   3.626  16.695  2.1296  0.4390 -0.7929
17511TIP3   OH273947   6.410   1.476   2.213  0.0727  0.5919  0.2776
17511TIP3    H173948   6.492   1.436   2.182  0.2256  1.0212  0.1227
17511TIP3    H273949   6.408   1.457   2.307  1.6303  2.7795  0.7909
17512TIP3   OH273950   6.104   2.958   5.715 -0.1954  0.5592 -0.1285
17512TIP3    H173951   6.072   2.878   5.757  0.8010 -0.6239 -1.5570
17512TIP3    H273952   6.180   2.984   5.767 -0.0656  0.1392 -0.1084
17513TIP3   OH273953   5.229   3.588  13.588 -0.1445 -0.2289 -0.0423
17513TIP3    H173954   5.204   3.516  13.646  0.4761 -0.4261 -0.0189
17513TIP3    H273955   5.152   3.601  13.531 -0.5637 -0.3647  0.4877
17514TIP3   OH273956   3.617   4.905  15.319  0.2695  0.3279 -0.2600
17514TIP3    H173957   3.523   4.885  15.314 -0.2082  1.9051  1.4734
17514TIP3    H273958   3.638   4.940  15.232 -0.8480  0.3422 -0.5391
17515TIP3   OH273959   2.422   0.570   0.004  0.1020  0.2259  0.1783
17515TIP3    H173960   2.430   0.476   0.019 -0.4761  0.5656  3.0253
17515TIP3    H273961   2.505   0.596  -0.036  0.3915 -1.4360 -0.3118
17516TIP3   OH273962   0.630   2.051  14.386 -0.1181 -0.6029 -0.4406
17516TIP3    H173963   0.573   2.029  14.460  0.7583 -1.8186 -0.1156
17516TIP3    H273964   0.580   2.116  14.336 -1.4135 -1.0040  0.3081
17517TIP3   OH273965   4.185   5.239   0.473  0.0067  0.0987 -0.1236
17517TIP3    H173966   4.226   5.168   0.523  1.7816  1.0485 -0.2096
17517TIP3    H273967   4.206   5.219   0.382  0.0551  0.4542 -0.1901
17518TIP3   OH273968   1.001   2.856   1.297 -0.1833 -0.4021 -0.0083
17518TIP3    H173969   0.909   2.830   1.288 -0.5079  0.1350  1.5799
17518TIP3    H273970   1.046   2.808   1.227 -1.7459 -0.2252 -1.1889
17519TIP3   OH273971   1.996   3.529  13.306 -0.2066  0.0750 -0.7331
17519TIP3    H173972   1.907   3.529  13.272 -0.2594  0.4544 -0.5981
17519TIP3    H273973   1.987   3.552  13.398 -0.0832 -1.2088 -0.3993
17520TIP3   OH273974   2.473   5.323  15.454 -0.3865 -0.1901 -0.8576
17520TIP3    H173975   2.553   5.313  15.506 -1.2042 -0.7125  0.3154
17520TIP3    H273976   2.462   5.238  15.410  0.0118  0.0748 -1.4786
17521TIP3   OH273977   2.608   0.639  14.529  0.1390  0.4923  0.1366
17521TIP3    H173978   2.557   0.560  14.515 -0.3160  0.9955 -1.1203
17521TIP3    H273979   2.631   0.670  14.441 -0.1928  2.0729  0.5815
17522TIP3   OH273980   6.052   1.921   4.255  0.7741 -0.1878  0.3988
17522TIP3    H173981   6.031   1.990   4.318  0.5205 -0.8997  1.1188
17522TIP3    H273982   6.088   1.966   4.179  0.8785  0.7055  0.9776
17523TIP3   OH273983   2.383   5.442   1.201 -0.0067 -0.3048  0.0006
17523TIP3    H173984   2.299   5.439   1.155 -0.2146 -2.3936  0.4571
17523TIP3    H273985   2.363   5.478   1.287  0.0659  1.8366 -0.8479
17524TIP3   OH273986   0.717   1.072  16.182  0.9135 -0.7654 -0.2750
17524TIP3    H173987   0.665   1.008  16.231  0.3212 -0.2989 -0.2842
17524TIP3    H273988   0.653   1.115  16.124  0.8470  1.4273  1.3789
17525TIP3   OH273989   0.572   4.629  16.088 -0.6802  0.1983 -0.0957
17525TIP3    H173990   0.658   4.605  16.054 -0.5404 -0.9816  1.0492
17525TIP3    H273991   0.513   4.620  16.014  0.1868  1.1163 -0.9194
17526TIP3   OH273992   0.173   4.437   3.222  0.4598 -0.1162  0.2838
17526TIP3    H173993   0.208   4.370   3.281 -0.5083  0.4236  1.4893
17526TIP3    H273994   0.111   4.487   3.275 -1.7543 -0.6861 -1.6532
17527TIP3   OH273995   3.916   4.684  13.843 -0.2533  0.1332  0.1595
17527TIP3    H173996   3.952   4.761  13.798  2.3792 -2.0621 -1.6639
17527TIP3    H273997   3.891   4.624  13.773 -1.2891 -1.1311  1.5665
17528TIP3   OH273998   0.834   2.510   5.402 -0.2722 -0.2980  0.1011
17528TIP3    H173999   0.739   2.497   5.397 -0.1383 -0.7809 -1.2047
17528TIP3    H274000   0.867   2.429   5.441 -0.4697  0.2295  1.4164
17529TIP3   OH274001   1.868   6.399   5.059 -0.1772  0.0656  0.0164
17529TIP3    H174002   1.822   6.430   4.981 -1.5804  1.1681  1.2527
17529TIP3    H274003   1.855   6.304   5.058 -3.6470  0.4259  0.9639
17530TIP3   OH274004   1.916   5.059  17.180 -0.0040  0.3310  0.3108
17530TIP3    H174005   1.979   5.124  17.211  0.4590  0.8025 -1.5308
17530TIP3    H274006   1.865   5.105  17.114  1.4848 -1.6028 -2.3247
17531TIP3   OH274007   1.853   6.409  14.538  0.0561 -0.3098 -0.9145
17531TIP3    H174008   1.923   6.379  14.596  0.3574  0.4279 -0.8912
17531TIP3    H274009   1.781   6.349  14.554  0.5820 -0.8924 -0.7137
17532TIP3   OH274010   2.767   2.241   4.145  0.3766 -0.5724 -0.7960
17532TIP3    H174011   2.848   2.291   4.144 -0.8989  1.5627 -0.2097
17532TIP3    H274012   2.773   2.186   4.223  0.5101  0.8911  0.2477
17533TIP3   OH274013   0.518   1.414   5.869  0.2982 -0.2419 -0.3074
17533TIP3    H174014   0.517   1.337   5.811  0.2244 -0.3597 -0.1533
17533TIP3    H274015   0.587   1.395   5.932  0.2497 -0.1993 -0.2427
17534TIP3   OH274016   2.075   1.635  14.665 -0.3572 -0.5317  0.4442
17534TIP3    H174017   1.983   1.647  14.688 -0.8716 -0.0350 -1.7013
17534TIP3    H274018   2.085   1.540  14.654 -1.0596 -0.4674 -0.9182
17535TIP3   OH274019   0.570   1.117   2.429 -0.5721  0.0476 -0.0712
17535TIP3    H174020   0.603   1.190   2.481  0.6907  0.4840 -1.4364
17535TIP3    H274021   0.475   1.127   2.432 -0.4711  0.7965  1.0858
17536TIP3   OH274022   5.141   4.238   2.766  0.1674  0.5391  0.3455
17536TIP3    H174023   5.170   4.175   2.700  0.0012 -1.1152  1.8162
17536TIP3    H274024   5.209   4.237   2.833  0.7008  2.7476 -0.1052
17537TIP3   OH274025   2.964   1.391  14.513 -0.8047 -0.0308 -0.3625
17537TIP3    H174026   2.971   1.468  14.457  0.9561 -0.7564 -1.1800
17537TIP3    H274027   2.948   1.425  14.601 -1.9960  1.1808 -1.0513
17538TIP3   OH274028   5.363   1.337   5.204  0.3948  0.2995  0.3445
17538TIP3    H174029   5.297   1.382   5.257 -0.8059 -0.0055 -0.8860
17538TIP3    H274030   5.333   1.246   5.201  1.7607 -0.1978  1.1602
17539TIP3   OH274031   2.109   2.879  10.907  0.5654 -0.4390  0.5686
17539TIP3    H174032   2.166   2.829  10.848 -0.9867  0.5990 -1.9421
17539TIP3    H274033   2.043   2.816  10.935 -0.7969 -0.1316 -1.7795
17540TIP3   OH274034   1.467   5.044  12.923 -0.0984 -0.1851 -0.1705
17540TIP3    H174035   1.405   5.056  12.851  0.3420  0.2189 -0.4849
17540TIP3    H274036   1.491   5.134  12.949  0.5818 -0.3396 -0.2517
17541TIP3   OH274037   4.334   6.227  14.971  0.1494 -0.0551  0.1886
17541TIP3    H174038   4.326   6.137  14.939  2.1986 -0.8286  1.7104
17541TIP3    H274039   4.390   6.270  14.906 -0.1164 -0.1373 -0.0919
17542TIP3   OH274040   6.048   3.708   1.922  0.4573  0.5820 -0.6054
17542TIP3    H174041   6.106   3.634   1.940 -1.6306 -0.7207  1.1170
17542TIP3    H274042   6.000   3.722   2.004 -1.7167  1.5127 -1.9668
17543TIP3   OH274043   5.698   5.121  11.985 -0.1517  0.0313  0.3875
17543TIP3    H174044   5.656   5.149  12.067 -1.5887  1.2006 -0.7324
17543TIP3    H274045   5.763   5.188  11.967 -1.6599  1.1940 -0.8101
17544TIP3   OH274046   2.023   3.118   2.931 -0.5645 -0.0579 -0.4466
17544TIP3    H174047   2.094   3.061   2.903 -0.3397 -0.5917  1.1571
17544TIP3    H274048   2.049   3.147   3.019 -1.1321  1.7443 -0.8541
17545TIP3   OH274049   6.603   6.682   0.410 -0.1360  0.0883  0.0331
17545TIP3    H174050   6.646   6.759   0.374 -0.0548  0.0336  0.0127
17545TIP3    H274051   6.547   6.650   0.340 -1.5865  1.2082  0.6541
17546TIP3   OH274052   5.920   1.136   3.960  0.0648 -0.1432 -0.2655
17546TIP3    H174053   5.974   1.207   3.996 -3.0529  2.4990 -0.5526
17546TIP3    H274054   5.886   1.091   4.037  0.9223 -0.4659 -0.0671
17547TIP3   OH274055   5.649   2.386   4.631 -0.0581  0.1443  0.0038
17547TIP3    H174056   5.618   2.296   4.642 -0.1823  0.2406  0.4647
17547TIP3    H274057   5.715   2.397   4.700 -0.7796  0.7297  0.6185
17548TIP3   OH274058   4.801   1.087   6.152 -0.0039 -0.1045  0.2287
17548TIP3    H174059   4.736   1.020   6.130 -0.4621  0.1523  0.7818
17548TIP3    H274060   4.756   1.145   6.213  1.4062 -1.1507  2.3380
17549TIP3   OH274061   2.270   4.723  16.316  0.1111  0.5562  0.2368
17549TIP3    H174062   2.210   4.790  16.284 -0.3236 -0.5338 -1.2860
17549TIP3    H274063   2.215   4.666  16.370 -0.4898 -1.0155 -1.9681
17550TIP3   OH274064   0.501   5.943   1.884  0.6935  0.8623 -0.2074
17550TIP3    H174065   0.423   5.921   1.833 -0.4561  1.9245  1.0453
17550TIP3    H274066   0.546   5.859   1.897  0.0474  0.3241 -1.4077
17551TIP3   OH274067   3.676   0.606  16.963  0.1193 -0.4375 -0.5932
17551TIP3    H174068   3.635   0.520  16.978 -1.1047  0.5303  2.0003
17551TIP3    H274069   3.603   0.663  16.937  0.3485  0.5641  0.9184
17552TIP3   OH274070   1.801   6.460   3.758 -0.3002 -0.2267 -0.3150
17552TIP3    H174071   1.881   6.414   3.782 -0.3551 -0.5913 -0.8397
17552TIP3    H274072   1.731   6.402   3.785 -0.4968  1.4092  3.0060
17553TIP3   OH274073   5.366   6.715  14.508 -0.2117 -0.0324  0.8582
17553TIP3    H174074   5.338   6.773  14.578 -1.3005 -0.5328  0.8419
17553TIP3    H274075   5.393   6.774  14.437  3.8346  0.5635  2.7589
17554TIP3   OH274076   3.625   0.065  15.017 -0.3527  0.1070 -0.5196
17554TIP3    H174077   3.624   0.004  14.944  1.8618  0.9590 -1.3231
17554TIP3    H274078   3.666   0.015  15.089 -1.3820 -0.3270 -0.2274
17555TIP3   OH274079   1.420   3.142   0.020  0.3235 -0.2653 -0.0243
17555TIP3    H174080   1.382   3.219   0.062  1.2289 -0.3921  1.0505
17555TIP3    H274081   1.409   3.158  -0.074 -0.9795  0.3982  0.2293
17556TIP3   OH274082   2.225   2.720   2.644 -0.8221  0.5678 -0.4136
17556TIP3    H174083   2.233   2.627   2.665  0.4701  0.6615 -0.4382
17556TIP3    H274084   2.192   2.721   2.554 -0.3385  0.1246 -0.6008
17557TIP3   OH274085   1.290   4.299   4.399 -0.4192 -0.2961  0.3906
17557TIP3    H174086   1.199   4.273   4.389 -0.0413 -0.6276 -2.4163
17557TIP3    H274087   1.337   4.216   4.411 -0.3974 -0.1707  1.2042
17558TIP3   OH274088   6.470   4.105   2.569 -0.2339 -0.1119  0.1450
17558TIP3    H174089   6.430   4.154   2.496 -1.2869  0.6319  1.1911
17558TIP3    H274090   6.443   4.154   2.647  0.4665 -1.1869  1.0651
17559TIP3   OH274091   3.618   0.283  14.868  0.8911  0.5215  0.1122
17559TIP3    H174092   3.575   0.223  14.928 -0.0306  1.0619  0.0131
17559TIP3    H274093   3.647   0.228  14.795  0.1779  0.1666  0.0872
17560TIP3   OH274094   0.643   6.246  15.597  0.9272  0.0740  0.0176
17560TIP3    H174095   0.656   6.303  15.521 -0.2687  1.6080  0.9524
17560TIP3    H274096   0.720   6.259  15.651  1.5706 -0.6874 -0.6884
17561TIP3   OH274097   3.321   2.464   2.305  0.8022 -0.9003 -0.1333
17561TIP3    H174098   3.346   2.374   2.323 -0.6182 -1.6049 -1.6366
17561TIP3    H274099   3.250   2.482   2.366 -0.6069 -1.6390 -1.5262
17562TIP3   OH274100   1.481   6.754  12.531  0.0542  0.8365 -0.1299
17562TIP3    H174101   1.460   6.660  12.532 -0.4583  0.9457 -0.6118
17562TIP3    H274102   1.501   6.773  12.440 -0.3902  1.3166 -0.1302
17563TIP3   OH274103   4.549   0.482   6.633  0.1701 -0.0735 -0.0530
17563TIP3    H174104   4.526   0.390   6.619  0.7269 -0.2423  0.1435
17563TIP3    H274105   4.644   0.482   6.645  0.3497  0.6729 -1.3404
17564TIP3   OH274106   5.666   4.757   3.282 -0.3474  0.6193 -0.0622
17564TIP3    H174107   5.732   4.799   3.228  0.7550  0.6683  1.2950
17564TIP3    H274108   5.584   4.800   3.257  0.3034  1.3756 -0.9207
17565TIP3   OH274109   4.365   2.138   0.643  0.3281 -0.1159 -0.3933
17565TIP3    H174110   4.460   2.136   0.640  0.3532  1.2836 -0.6439
17565TIP3    H274111   4.343   2.117   0.734  0.8684 -0.3539 -0.3177
17566TIP3   OH274112   2.888   3.214   3.768 -0.1298  0.2264 -0.1115
17566TIP3    H174113   2.876   3.158   3.844  1.3141 -0.2015 -0.1935
17566TIP3    H274114   2.977   3.196   3.738 -0.9607 -0.2490 -2.4116
17567TIP3   OH274115   0.370   6.318  13.729  0.5772  0.9038 -0.0178
17567TIP3    H174116   0.315   6.393  13.756 -1.9808  0.4764 -3.7227
17567TIP3    H274117   0.332   6.244  13.776  0.3444  1.2203  0.3056
17568TIP3   OH274118   5.906   4.320   1.376 -0.5317 -0.3962 -0.0929
17568TIP3    H174119   5.990   4.339   1.418 -1.2110  0.4945  0.8879
17568TIP3    H274120   5.926   4.320   1.282  0.3379  1.0567  0.0697
17569TIP3   OH274121   0.604   1.350   3.817  0.3535 -0.2877  0.3876
17569TIP3    H174122   0.658   1.342   3.896  1.2342 -1.2834 -0.3009
17569TIP3    H274123   0.567   1.263   3.805  0.0177 -0.0705 -0.1618
17570TIP3   OH274124   0.776   2.018  15.529  0.2210 -0.6481 -0.2950
17570TIP3    H174125   0.731   2.087  15.481  1.4257 -0.7259 -1.5412
17570TIP3    H274126   0.757   2.037  15.621  1.4117  1.9521 -0.5383
17571TIP3   OH274127   5.822   3.832   1.242 -0.1557  0.1537 -0.3268
17571TIP3    H174128   5.803   3.901   1.305  0.2360  3.0713 -3.2847
17571TIP3    H274129   5.894   3.782   1.282  1.2597  2.9704  0.7586
17572TIP3   OH274130   1.858   4.566   1.661  0.1615  0.3926 -0.0679
17572TIP3    H174131   1.860   4.552   1.756  1.0215  0.9713  0.0141
17572TIP3    H274132   1.766   4.560   1.637 -0.0693  0.3089  0.8181
17573TIP3   OH274133   3.090   4.965  11.427 -0.4918  0.0338  0.1023
17573TIP3    H174134   3.003   4.925  11.421 -0.1850 -0.2646 -3.4011
17573TIP3    H274135   3.151   4.892  11.418  0.1529  0.3075  2.0462
17574TIP3   OH274136   5.653   0.224  13.938  0.4150 -0.4574  0.3374
17574TIP3    H174137   5.716   0.188  14.000 -0.4777  0.3396  1.7179
17574TIP3    H274138   5.577   0.246  13.991 -0.5072 -0.1228 -1.1028
17575TIP3   OH274139   5.556   1.000  13.450  0.1384 -0.3302 -0.5077
17575TIP3    H174140   5.605   0.941  13.393 -0.6712 -1.1520 -0.3773
17575TIP3    H274141   5.548   0.951  13.533 -0.6662 -0.1012 -0.4466
17576TIP3   OH274142   4.442   6.042  11.781 -0.1361  0.1107 -0.0403
17576TIP3    H174143   4.462   6.049  11.874  1.0031  0.3943 -0.3065
17576TIP3    H274144   4.389   6.120  11.762  0.3544  0.4968  0.1775
17577TIP3   OH274145   2.751   1.115  12.940 -0.3597  0.0448  0.2486
17577TIP3    H174146   2.765   1.166  12.859  0.1770 -0.5146 -0.0141
17577TIP3    H274147   2.753   1.024  12.911  2.8517 -0.2819  1.2996
17578TIP3   OH274148   0.375   1.407  10.921 -0.0392 -0.2787 -0.5822
17578TIP3    H174149   0.354   1.421  10.829 -0.3536  1.4262 -0.2650
17578TIP3    H274150   0.465   1.436  10.930 -0.1779  0.0593 -0.2503
17579TIP3   OH274151   3.070   3.279  13.843  0.3536 -0.1603 -0.3826
17579TIP3    H174152   3.081   3.316  13.755  3.5231 -0.3915 -0.1570
17579TIP3    H274153   3.048   3.354  13.898  0.8906  0.4170 -0.9427
17580TIP3   OH274154   5.238   6.616  10.942  0.7086  0.5441  0.1783
17580TIP3    H174155   5.152   6.590  10.909  0.3336  1.7024  0.2112
17580TIP3    H274156   5.300   6.587  10.875  0.2014  0.5401 -0.2917
17581TIP3   OH274157   5.340   6.134   1.462 -0.5265 -1.0059 -0.1531
17581TIP3    H174158   5.373   6.126   1.552 -1.6975 -1.5303  0.2397
17581TIP3    H274159   5.360   6.049   1.422 -0.6285 -1.0218 -0.1714
17582TIP3   OH274160   2.304   6.202  13.685  0.6980 -0.4131 -0.3334
17582TIP3    H174161   2.260   6.138  13.629  0.4981 -1.9417  1.5257
17582TIP3    H274162   2.259   6.195  13.769  2.5934  0.1145  0.7479
17583TIP3   OH274163   1.612   1.047   0.390  0.2770 -0.0785 -0.2682
17583TIP3    H174164   1.681   1.074   0.451 -0.3275 -0.8999  0.7850
17583TIP3    H274165   1.634   0.957   0.368 -1.6123 -1.0598  1.7130
17584TIP3   OH274166   5.786   6.707   4.788  0.3451 -0.3117 -0.0373
17584TIP3    H174167   5.731   6.785   4.796  0.8878  0.0323  0.3667
17584TIP3    H274168   5.864   6.737   4.741  1.3288 -0.2068  1.6160
17585TIP3   OH274169   4.729   4.301   0.038  0.1929 -0.2505  0.2935
17585TIP3    H174170   4.779   4.302   0.120 -0.3861  0.9455  0.6393
17585TIP3    H274171   4.651   4.353   0.057  0.1103  0.1229 -1.0474
17586TIP3   OH274172   5.031   4.687   1.415 -0.8290 -0.1070 -0.4786
17586TIP3    H174173   4.955   4.723   1.462  0.3879  1.3942  0.3692
17586TIP3    H274174   5.078   4.763   1.382  1.0189 -0.9669  0.1100
17587TIP3   OH274175   0.191   6.617   3.775 -0.4410 -0.5796 -0.4561
17587TIP3    H174176   0.204   6.680   3.846 -1.8079  0.4954 -1.1457
17587TIP3    H274177   0.269   6.560   3.779  0.1261  0.2784  1.0511
17588TIP3   OH274178   1.341   0.461  12.684 -0.7021 -0.2148  0.1542
17588TIP3    H174179   1.291   0.519  12.742 -0.3165  0.0330  0.2469
17588TIP3    H274180   1.427   0.453  12.727 -0.3298  0.1763 -0.5019
17589TIP3   OH274181   4.424   1.009   3.758 -0.3885  0.5359  0.3441
17589TIP3    H174182   4.349   1.011   3.818 -0.5256 -2.3829  0.3333
17589TIP3    H274183   4.389   0.971   3.678  0.9210 -0.1122  0.0795
17590TIP3   OH274184   0.647   1.792   3.082 -0.2624  0.0337 -0.4891
17590TIP3    H174185   0.604   1.710   3.108  0.2007  0.8951  3.3722
17590TIP3    H274186   0.614   1.857   3.144  1.2697  2.2472 -1.9174
17591TIP3   OH274187   6.598   5.805  15.744  0.0885 -0.0543 -0.0524
17591TIP3    H174188   6.617   5.834  15.833  2.2528  1.1851 -0.8910
17591TIP3    H274189   6.606   5.710  15.748  1.3611  0.0811  0.8126
17592TIP3   OH274190   1.909   1.735   6.253  0.2560 -0.2876  0.4029
17592TIP3    H174191   1.828   1.685   6.254  0.6772 -0.9544  1.0956
17592TIP3    H274192   1.941   1.731   6.343  1.0962 -0.0952  0.1150
17593TIP3   OH274193   3.340   5.783   4.976 -0.5555  0.0729  0.1863
17593TIP3    H174194   3.277   5.792   4.905 -2.5488  0.0614  1.8937
17593TIP3    H274195   3.286   5.781   5.055  1.7232  2.1409  1.8520
17594TIP3   OH274196   3.137   4.052  12.262 -0.0621 -0.4413  0.2311
17594TIP3    H174197   3.086   4.078  12.186 -0.2898 -1.5549 -0.0163
17594TIP3    H274198   3.224   4.090  12.248 -0.3102 -0.0543 -0.2377
17595TIP3   OH274199   0.478   3.881  10.993 -0.3780 -0.3850  0.2763
17595TIP3    H174200   0.398   3.841  10.960  0.3508 -1.8731  0.2854
17595TIP3    H274201   0.510   3.934  10.921  0.3041 -2.2831 -0.8563
17596TIP3   OH274202   3.269   1.281  15.095  0.6480 -0.4406 -0.4626
17596TIP3    H174203   3.277   1.362  15.045 -1.0416 -0.1629 -0.3362
17596TIP3    H274204   3.233   1.218  15.032  1.3963 -0.9303 -0.4049
17597TIP3   OH274205   0.598   1.994   1.089 -0.3074 -0.2469  0.0096
17597TIP3    H174206   0.690   1.969   1.105 -1.2135 -2.9760  1.3184
17597TIP3    H274207   0.563   1.921   1.037 -1.8279  0.6383 -0.2289
17598TIP3   OH274208   3.826   6.162   5.055  0.2678  0.0512  0.0102
17598TIP3    H174209   3.806   6.119   4.972 -1.8061  2.6779 -0.9206
17598TIP3    H274210   3.893   6.227   5.034 -1.9535  2.3554 -0.1449
17599TIP3   OH274211   0.515   5.479  10.457  0.7400  0.7397  0.0771
17599TIP3    H174212   0.603   5.490  10.493  0.6509  0.1676  0.4741
17599TIP3    H274213   0.457   5.514  10.524  0.6251  0.4635  0.1233
17600TIP3   OH274214   3.659   2.419   4.023  0.3969 -0.0755  0.1160
17600TIP3    H174215   3.642   2.457   4.109 -1.5830 -0.8442  0.0884
17600TIP3    H274216   3.629   2.485   3.961  0.4510 -0.1366  0.0251
17601TIP3   OH274217   0.067   1.813   6.673 -0.0787  0.1008  0.1934
17601TIP3    H174218   0.090   1.769   6.591  2.4757 -2.6336  2.2766
17601TIP3    H274219  -0.023   1.787   6.691 -0.8270  1.0950 -1.9147
17602TIP3   OH274220   0.635   3.364  15.637  0.2869 -0.2829  0.9733
17602TIP3    H174221   0.619   3.425  15.708 -1.0019  0.9880 -0.3577
17602TIP3    H274222   0.560   3.305  15.638 -0.0399  0.1137  0.3070
17603TIP3   OH274223   4.010   4.666  12.953 -0.3435 -0.0346 -0.0670
17603TIP3    H174224   4.105   4.664  12.963 -0.5410 -1.2127  1.9262
17603TIP3    H274225   3.996   4.691  12.862  1.8464  1.9666  0.0830
17604TIP3   OH274226   0.963   4.360   5.882 -0.1567  0.5089  0.3517
17604TIP3    H174227   0.946   4.288   5.822 -0.9067  1.5624 -0.7456
17604TIP3    H274228   0.883   4.368   5.933  0.4471 -0.3274  1.4527
17605TIP3   OH274229   0.838   6.706  12.081 -0.1179 -0.0956 -0.1675
17605TIP3    H174230   0.926   6.730  12.109 -0.5246  0.1689  0.8734
17605TIP3    H274231   0.846   6.613  12.058  0.1479 -0.3961  1.1058
17606TIP3   OH274232   2.629   2.685  13.912  0.2474  0.4105  0.2968
17606TIP3    H174233   2.636   2.592  13.933  0.8179  0.1686 -0.8965
17606TIP3    H274234   2.552   2.715  13.960 -0.5578 -0.9119 -0.1470
17607TIP3   OH274235   2.787   0.039  11.441 -0.7573 -0.1264 -0.2647
17607TIP3    H174236   2.712   0.060  11.496 -1.2978  1.3859 -1.5725
17607TIP3    H274237   2.765  -0.046  11.403 -1.0627 -0.4518  0.6033
17608TIP3   OH274238   1.266   2.251   0.880 -0.4190  0.3353  0.4753
17608TIP3    H174239   1.305   2.188   0.821  0.9160  1.2359  0.3777
17608TIP3    H274240   1.310   2.237   0.964  1.4728  2.5714 -0.0984
17609TIP3   OH274241   6.766   3.982  11.669  0.1259  0.2240 -0.1235
17609TIP3    H174242   6.719   4.002  11.588  1.5546  0.3519 -0.9258
17609TIP3    H274243   6.750   4.058  11.725 -1.5598 -0.2265  0.0578
17610TIP3   OH274244   3.935   6.678  16.306  0.6184  0.1049  0.2163
17610TIP3    H174245   3.996   6.656  16.377  0.4401  0.3524  0.4502
17610TIP3    H274246   3.848   6.655  16.341  0.3288  1.9695  0.8137
17611TIP3   OH274247   1.521   4.231  13.440 -0.3979  0.3206 -0.0134
17611TIP3    H174248   1.502   4.145  13.402 -0.3763 -0.2387  1.2335
17611TIP3    H274249   1.462   4.239  13.514  0.1797  1.0338  0.3789
17612TIP3   OH274250   6.337   4.204   2.789  0.0571  0.0818 -0.3710
17612TIP3    H174251   6.298   4.259   2.857 -0.4476  1.7306 -1.9745
17612TIP3    H274252   6.430   4.200   2.813 -0.0895  0.7837  0.3398
17613TIP3   OH274253   4.550   3.150  12.162 -0.0358 -0.9452  0.1676
17613TIP3    H174254   4.529   3.130  12.071  2.0209 -0.6877 -0.3817
17613TIP3    H274255   4.473   3.197  12.194 -0.7474 -0.9739 -1.4546
17614TIP3   OH274256   1.991   2.949  15.146  0.1332 -0.3669  0.4216
17614TIP3    H174257   2.058   2.972  15.081  0.5893 -2.8488 -0.0290
17614TIP3    H274258   2.035   2.957  15.230  0.3841 -0.0076  0.2584
17615TIP3   OH274259   6.553   5.818   2.594 -0.2192 -0.0828 -0.4779
17615TIP3    H174260   6.605   5.755   2.543 -0.3451 -0.4175 -0.2001
17615TIP3    H274261   6.491   5.763   2.643  0.7419  0.1128  1.0106
17616TIP3   OH274262   4.443   4.868  14.100  0.1484 -0.0276  0.2245
17616TIP3    H174263   4.401   4.954  14.101  0.4225  0.1292  2.4889
17616TIP3    H274264   4.398   4.819  14.032 -1.7492  1.0818  0.6595
17617TIP3   OH274265   5.866   0.856   4.958 -0.3867  0.0041 -0.1885
17617TIP3    H174266   5.864   0.919   5.030  0.3855 -0.9580  0.6727
17617TIP3    H274267   5.876   0.771   5.000  0.8198 -0.5065 -1.4737
17618TIP3   OH274268   4.027   0.094   0.679  0.2711 -0.2258  0.0273
17618TIP3    H174269   4.007   0.121   0.589 -0.3586 -2.8492 -0.6622
17618TIP3    H274270   4.117   0.121   0.692 -0.2901  2.0691 -0.6473
17619TIP3   OH274271   1.152   6.731  15.530 -0.2657  0.6983 -0.1826
17619TIP3    H174272   1.136   6.637  15.516  0.4455  0.7296 -1.2657
17619TIP3    H274273   1.190   6.761  15.447  0.1931  1.7875  0.4184
17620TIP3   OH274274   5.160   5.338   4.813 -0.5433  0.4489  0.3050
17620TIP3    H174275   5.178   5.249   4.844 -0.4362  0.4028  0.1108
17620TIP3    H274276   5.206   5.394   4.875  0.2135  0.3317 -0.1415
17621TIP3   OH274277   0.534   0.414  15.575  0.3097  0.1117  0.3685
17621TIP3    H174278   0.593   0.353  15.621 -0.1978 -0.7396 -0.0877
17621TIP3    H274279   0.465   0.431  15.639  0.7819  0.7137  0.7244
17622TIP3   OH274280   1.055   4.062   0.641 -0.1913 -0.1130 -0.2007
17622TIP3    H174281   1.056   3.981   0.691 -1.2961  0.2478  0.4171
17622TIP3    H274282   1.106   4.042   0.562 -0.0912 -1.2671  0.1468
17623TIP3   OH274283   3.627   5.274   0.869  0.0399  0.1226  0.1798
17623TIP3    H174284   3.560   5.319   0.817 -2.7789 -3.0717  0.8759
17623TIP3    H274285   3.604   5.294   0.960 -0.2650 -1.2965  0.4357
17624TIP3   OH274286   1.964   4.338  15.343  0.0511 -0.3652  0.4227
17624TIP3    H174287   2.003   4.265  15.392  1.3034 -0.5757 -0.8533
17624TIP3    H274288   2.033   4.367  15.284 -0.8102  1.1399  0.1309
17625TIP3   OH274289   0.700   4.457   3.438  0.1394  0.5862 -0.8871
17625TIP3    H174290   0.620   4.421   3.476 -0.6226  1.1278 -1.9386
17625TIP3    H274291   0.673   4.542   3.403  1.3169  1.0351 -0.7176
17626TIP3   OH274292   0.335   3.415  11.409 -0.5687 -0.1189  0.2028
17626TIP3    H174293   0.364   3.371  11.489  0.1862  1.9335  1.0702
17626TIP3    H274294   0.287   3.492  11.439  1.1449  1.5711 -1.3221
17627TIP3   OH274295   4.035   6.108   5.261 -0.2090 -0.0854  0.2766
17627TIP3    H174296   4.106   6.168   5.244 -0.1753 -0.1339  0.2452
17627TIP3    H274297   4.073   6.042   5.319 -0.5506  0.5535  1.2445
17628TIP3   OH274298   3.941   0.586  16.474  0.0021 -0.0078 -0.5937
17628TIP3    H174299   4.030   0.554  16.482 -0.3896 -0.8784  0.3633
17628TIP3    H274300   3.943   0.674  16.511  0.2552 -0.3951  0.3045
17629TIP3   OH274301   6.701   5.430   2.461  0.3224 -0.5294 -0.4745
17629TIP3    H174302   6.668   5.508   2.416 -0.1519 -1.9536 -2.6868
17629TIP3    H274303   6.625   5.392   2.503  0.0911 -1.0679 -1.3677
17630TIP3   OH274304   2.049   4.166   1.168  0.4534  0.2373  0.2621
17630TIP3    H174305   1.968   4.215   1.186 -0.3869 -0.6686 -0.9917
17630TIP3    H274306   2.077   4.134   1.254 -0.5637  0.4937  0.6953
17631TIP3   OH274307   3.772   1.090  10.786  0.0274 -0.4377 -0.2587
17631TIP3    H174308   3.751   1.131  10.870 -0.3351  2.3360 -1.6514
17631TIP3    H274309   3.730   1.004  10.791 -0.2269 -0.2203  2.2827
17632TIP3   OH274310   4.351   4.183   1.317 -0.2369 -0.2912 -0.0313
17632TIP3    H174311   4.338   4.269   1.276  3.6744 -0.3069 -1.5600
17632TIP3    H274312   4.304   4.122   1.261 -2.1369  0.6684  0.4537
17633TIP3   OH274313   2.815   2.155   1.025  0.0957  0.1304  0.4217
17633TIP3    H174314   2.779   2.144   0.937  0.4855 -1.6012  0.4676
17633TIP3    H274315   2.845   2.068   1.050  1.1243  0.8600  1.7855
17634TIP3   OH274316   0.515   3.541   1.636 -0.3053 -0.1917  0.0076
17634TIP3    H174317   0.581   3.601   1.672 -0.9924  1.2696 -1.0907
17634TIP3    H274318   0.563   3.488   1.573 -0.0008  0.3115 -0.1930
17635TIP3   OH274319   5.564   4.828  13.889  0.2595 -1.0040  0.1040
17635TIP3    H174320   5.644   4.804  13.935  0.9851 -0.3208 -0.7997
17635TIP3    H274321   5.592   4.846  13.799 -0.8789 -0.5875 -0.1745
17636TIP3   OH274322   2.036   2.480  16.250 -0.6940 -0.1039 -0.3363
17636TIP3    H174323   1.940   2.485  16.245 -0.6260  1.4744 -0.2187
17636TIP3    H274324   2.066   2.521  16.169 -0.0811  1.7524  0.8002
17637TIP3   OH274325   6.468   0.624  12.000 -0.4386 -0.1584  0.3289
17637TIP3    H174326   6.517   0.581  12.070  0.3680 -0.7627 -0.6071
17637TIP3    H274327   6.490   0.575  11.921 -2.2977 -0.2344 -0.1635
17638TIP3   OH274328   0.625   6.068   4.445  0.0107 -0.0992  0.9366
17638TIP3    H174329   0.709   6.110   4.464 -0.5672  0.8966  1.3342
17638TIP3    H274330   0.572   6.137   4.406 -0.1247 -1.1245 -0.7226
17639TIP3   OH274331   2.457   1.920   4.199 -0.3357  0.0399 -0.8666
17639TIP3    H174332   2.393   1.960   4.258  0.5506 -1.3757  1.1284
17639TIP3    H274333   2.513   1.867   4.257  0.2315 -1.8460 -3.0559
17640TIP3   OH274334   2.745   5.288  10.890 -0.1313  0.1515  0.2687
17640TIP3    H174335   2.740   5.197  10.919 -2.2213  0.1148 -0.1413
17640TIP3    H274336   2.740   5.283  10.795  0.3583  0.6608  0.2133
17641TIP3   OH274337   4.907   5.587   3.025  0.1715  0.0660 -0.3271
17641TIP3    H174338   4.923   5.514   3.084  1.7195 -0.3949 -1.2751
17641TIP3    H274339   4.954   5.661   3.066 -2.8240  1.0232  1.5370
17642TIP3   OH274340   6.467   4.485  14.096  0.3266 -0.4419  0.0145
17642TIP3    H174341   6.558   4.510  14.087 -0.0032  0.6266 -0.4354
17642TIP3    H274342   6.452   4.482  14.191  0.3018  1.4139  0.0962
17643TIP3   OH274343   5.560   5.446   5.622 -0.2462  0.7055 -0.1320
17643TIP3    H174344   5.599   5.359   5.635 -1.6393  0.0746 -0.1356
17643TIP3    H274345   5.625   5.506   5.658  1.7864 -0.1710 -2.2194
17644TIP3   OH274346   0.534   3.132  11.289  0.0624 -0.2827 -0.8173
17644TIP3    H174347   0.442   3.130  11.314  0.3860 -1.7942  0.3040
17644TIP3    H274348   0.575   3.192  11.352 -0.1094  0.2309 -1.1902
17645TIP3   OH274349   0.808   2.924  14.369 -0.3522 -0.5609  0.6500
17645TIP3    H174350   0.791   2.845  14.420  1.2345 -1.4761 -0.2065
17645TIP3    H274351   0.864   2.895  14.297 -0.5820  1.1598 -0.2614
17646TIP3   OH274352   6.749   6.591   3.972  0.6199  0.0594  0.1813
17646TIP3    H174353   6.792   6.507   3.990 -0.2807 -0.8004 -1.5004
17646TIP3    H274354   6.776   6.613   3.883  1.0735  1.7320  0.7084
17647TIP3   OH274355   5.791   5.380  12.496  0.2275 -0.3240  0.1937
17647TIP3    H174356   5.769   5.468  12.466  0.1897 -0.3357  0.1881
17647TIP3    H274357   5.879   5.364  12.462 -0.0195 -0.5419 -0.3604
17648TIP3   OH274358   2.422   6.477  17.129  0.2294  0.2368 -0.2161
17648TIP3    H174359   2.451   6.567  17.147  0.9373  0.3741 -2.0389
17648TIP3    H274360   2.488   6.422  17.172 -0.2957  0.5650  1.0534
17649TIP3   OH274361   0.424   4.145   4.032 -0.5572  0.2157 -0.2895
17649TIP3    H174362   0.483   4.220   4.036  0.3655 -0.5013 -0.3710
17649TIP3    H274363   0.395   4.134   4.123 -2.8163  2.3144 -0.6875
17650TIP3   OH274364   3.443   4.908  16.238  0.2674  0.4290 -0.2886
17650TIP3    H174365   3.469   4.828  16.284  0.7587  0.4790 -0.4772
17650TIP3    H274366   3.422   4.880  16.150  1.9197  0.7225 -0.7929
17651TIP3   OH274367   0.569   0.788   0.330 -0.7266  0.3118  0.6108
17651TIP3    H174368   0.624   0.712   0.345 -1.3909  0.0073  1.5309
17651TIP3    H274369   0.611   0.858   0.380 -1.3196  0.0138  1.5310
17652TIP3   OH274370   5.359   0.786  16.700  0.1946 -0.0638  0.4356
17652TIP3    H174371   5.430   0.817  16.644 -1.1201  0.6838 -0.8396
17652TIP3    H274372   5.283   0.835  16.672 -0.9024 -1.0384  1.6304
17653TIP3   OH274373   0.606   5.386   1.533  0.4447 -0.3518  0.0055
17653TIP3    H174374   0.545   5.335   1.480 -0.1143 -0.2405  0.5365
17653TIP3    H274375   0.666   5.426   1.470 -0.6447  0.3565 -0.5871
17654TIP3   OH274376   1.865   1.099  14.214 -0.0184  0.2620  0.2556
17654TIP3    H174377   1.927   1.037  14.178  0.6389  0.4418  1.0683
17654TIP3    H274378   1.823   1.053  14.286 -0.5760  0.2668 -0.0568
17655TIP3   OH274379   2.786   0.102   3.734 -0.2346  0.3714  0.1939
17655TIP3    H174380   2.753   0.049   3.806 -0.0746  2.2765  1.7146
17655TIP3    H274381   2.868   0.139   3.767  1.1720 -0.7741 -1.9190
17656TIP3   OH274382   6.139   0.809   5.792 -0.1921  0.1055  0.1330
17656TIP3    H174383   6.210   0.777   5.737 -0.9952  0.1664 -0.9544
17656TIP3    H274384   6.113   0.733   5.844 -1.0868 -0.6481 -1.3621
17657TIP3   OH274385   1.909   5.853   1.415 -0.7080 -0.7113  0.1198
17657TIP3    H174386   1.908   5.944   1.443 -2.4826 -1.2907  2.0754
17657TIP3    H274387   1.965   5.852   1.338  0.4161  1.7912  0.8621
17658TIP3   OH274388   0.923   0.447  16.420 -0.1795 -0.5355  0.2973
17658TIP3    H174389   0.932   0.423  16.512 -0.7578 -0.6750  0.3123
17658TIP3    H274390   0.833   0.477  16.411  0.2908  0.8344  0.0870
17659TIP3   OH274391   0.348   4.310   4.261 -0.2935 -0.5007 -0.0010
17659TIP3    H174392   0.311   4.353   4.184  0.8984  0.5146 -0.0188
17659TIP3    H274393   0.345   4.376   4.329 -0.0528 -0.9514  0.4506
17660TIP3   OH274394   5.700   5.250  13.725 -0.0566 -0.4575 -0.5012
17660TIP3    H174395   5.712   5.333  13.771 -0.1437 -0.6852 -0.0662
17660TIP3    H274396   5.707   5.273  13.632 -3.4380  0.6350 -0.5624
17661TIP3   OH274397   3.944   3.666  16.538 -0.3677 -0.3171  0.0747
17661TIP3    H174398   3.932   3.572  16.550  1.4573 -0.7643 -1.3691
17661TIP3    H274399   4.007   3.692  16.605  0.1944 -0.4022 -0.4161
17662TIP3   OH274400   0.711   0.592   3.095 -0.1107  0.3641  0.2964
17662TIP3    H174401   0.742   0.568   3.182  1.5787  0.0365 -0.3684
17662TIP3    H274402   0.628   0.546   3.086 -0.0071 -0.0882  1.5054
17663TIP3   OH274403   0.075   5.981   5.516 -0.4505 -0.0911  0.1910
17663TIP3    H174404   0.132   6.042   5.468  0.0203 -0.1982  0.6094
17663TIP3    H274405  -0.009   5.988   5.472 -0.5751  1.3495  0.6236
17664TIP3   OH274406   5.679   6.696  12.274  0.1771 -0.2678 -0.1895
17664TIP3    H174407   5.684   6.676  12.180  0.0472 -0.4735 -0.1527
17664TIP3    H274408   5.585   6.706  12.291  0.3134  1.5311 -0.4547
17665TIP3   OH274409   4.887   0.460   1.005 -0.1453 -0.2408 -0.4662
17665TIP3    H174410   4.856   0.508   1.082  0.3265 -0.6158 -0.0333
17665TIP3    H274411   4.880   0.368   1.030 -1.9603 -0.4460 -1.6437
17666TIP3   OH274412   1.641   1.169  14.075 -0.0594 -0.3307  0.0358
17666TIP3    H174413   1.723   1.145  14.118 -0.4734 -1.7116  0.0774
17666TIP3    H274414   1.572   1.141  14.135 -0.5934 -0.3163 -0.5554
17667TIP3   OH274415   0.272   1.803   4.792  0.0147  0.0295  0.0043
17667TIP3    H174416   0.313   1.885   4.819  1.1813 -0.4710 -0.2362
17667TIP3    H274417   0.343   1.740   4.789 -0.9238 -1.0758  0.4701
17668TIP3   OH274418   0.359   1.699   1.160 -0.2180  0.4208 -0.1972
17668TIP3    H174419   0.292   1.632   1.148  0.7619 -0.7379  0.6636
17668TIP3    H274420   0.341   1.735   1.247  0.9869 -0.7495  0.5648
17669TIP3   OH274421   6.023   3.839   5.557 -0.5762  0.1614 -0.3909
17669TIP3    H174422   6.081   3.804   5.625 -1.1318 -0.2089 -0.1044
17669TIP3    H274423   5.942   3.789   5.567 -1.1043  0.9861 -0.4964
17670TIP3   OH274424   3.123   2.466  15.795  0.2015  0.3331  0.2684
17670TIP3    H174425   3.124   2.407  15.871 -1.5235  0.2977  0.2723
17670TIP3    H274426   3.161   2.414  15.725 -0.6538 -0.5556  0.4506
17671TIP3   OH274427   0.885   3.867  15.530  0.1846 -0.2375 -0.1161
17671TIP3    H174428   0.868   3.941  15.588 -0.4233 -0.3888 -0.0983
17671TIP3    H274429   0.885   3.906  15.442  2.1869  0.1813  0.0403
17672TIP3   OH274430   2.010   0.473   1.845 -0.4101 -0.2753 -0.4380
17672TIP3    H174431   1.972   0.561   1.842 -1.4531 -0.5890  2.3799
17672TIP3    H274432   1.965   0.425   1.776 -1.8745  0.6086 -0.1153
17673TIP3   OH274433   4.998   5.181  15.014  0.0049  0.3097 -0.4087
17673TIP3    H174434   4.932   5.250  15.027  0.0172  0.1983  0.2330
17673TIP3    H274435   4.952   5.100  15.035  0.4954  0.2776  0.5575
17674TIP3   OH274436   3.006   1.389  13.967 -0.2327 -0.6264  0.0046
17674TIP3    H174437   3.013   1.482  13.990 -2.0889 -0.2777 -0.7054
17674TIP3    H274438   3.094   1.355  13.977  0.2131  0.9189  1.5812
17675TIP3   OH274439   1.711   2.946   5.270  0.3538  0.3568 -0.3112
17675TIP3    H174440   1.662   2.882   5.321 -1.3760 -0.8635 -3.4128
17675TIP3    H274441   1.651   3.020   5.260  0.1740  0.0244 -1.7324
17676TIP3   OH274442   2.549   5.137  12.905  0.2921 -0.1194  0.1076
17676TIP3    H174443   2.610   5.188  12.958 -0.1053 -0.2274  0.6699
17676TIP3    H274444   2.553   5.048  12.940 -1.5775  0.2651  1.3976
17677TIP3   OH274445   3.724   0.729  15.270 -0.3057  0.0017 -0.3891
17677TIP3    H174446   3.756   0.818  15.288  1.0891 -0.4360 -0.6209
17677TIP3    H274447   3.651   0.717  15.330  1.1120  0.3931  1.4570
17678TIP3   OH274448   0.077   1.664  17.217 -1.2113  0.3097 -0.1677
17678TIP3    H174449   0.031   1.745  17.237 -0.5227  0.4565  0.8404
17678TIP3    H274450   0.150   1.692  17.161 -1.8415  0.1849 -1.0639
17679TIP3   OH274451   3.541   1.356   0.616  0.0720  0.0566  0.2597
17679TIP3    H174452   3.540   1.271   0.572 -3.9885 -0.1894  0.5818
17679TIP3    H274453   3.540   1.335   0.709  0.1631  0.4616  0.3512
17680TIP3   OH274454   6.104   2.046   1.576 -0.5157 -0.5447 -0.0189
17680TIP3    H174455   6.167   2.087   1.517  1.1236 -1.0447  1.3307
17680TIP3    H274456   6.054   1.986   1.521  0.0920 -0.0211 -1.1394
17681TIP3   OH274457   6.010   3.552   3.438  0.3050 -0.2902  0.1369
17681TIP3    H174458   6.054   3.495   3.500 -0.9651  0.5494  1.8278
17681TIP3    H274459   6.064   3.632   3.436  1.0419 -0.8028 -0.8098
17682TIP3   OH274460   2.200   4.878   5.420 -0.2874 -0.0888 -0.1530
17682TIP3    H174461   2.258   4.882   5.495  0.0857 -1.5113 -0.3498
17682TIP3    H274462   2.172   4.968   5.406  1.9430  0.6347 -0.1225
17683TIP3   OH274463   6.599   0.848  13.641  0.3202  0.0800 -0.0966
17683TIP3    H174464   6.628   0.857  13.550 -1.3369 -3.0752 -1.0201
17683TIP3    H274465   6.645   0.770  13.673  1.0074  1.2618  1.8497
17684TIP3   OH274466   1.524   3.623   3.983  0.0820  0.2199 -0.2293
17684TIP3    H174467   1.528   3.571   3.903 -0.2442 -0.8192  0.4188
17684TIP3    H274468   1.557   3.710   3.957  0.7044 -0.3239 -1.2989
17685TIP3   OH274469   3.287   4.203  14.117  0.5959 -0.4411  0.1205
17685TIP3    H174470   3.286   4.235  14.027 -1.4559  1.4435  0.7592
17685TIP3    H274471   3.258   4.112  14.111 -1.2594  0.1851 -0.9775
17686TIP3   OH274472   5.672   0.571  12.305  0.7772 -0.0375  0.3661
17686TIP3    H174473   5.694   0.663  12.319  1.2980 -0.0029 -0.6524
17686TIP3    H274474   5.748   0.534  12.260  0.0780 -0.6792 -0.3108
17687TIP3   OH274475   3.045   3.826   5.103 -0.2105  0.5866  0.1120
17687TIP3    H174476   3.140   3.816   5.096 -0.1706 -2.8096  3.6957
17687TIP3    H274477   3.010   3.775   5.030  0.6837 -0.6838  0.5453
17688TIP3   OH274478   6.303   1.356   0.243 -0.2153 -0.1469 -0.1058
17688TIP3    H174479   6.341   1.285   0.191  2.1569  1.4560 -0.6515
17688TIP3    H274480   6.341   1.345   0.330 -0.1834  0.1996 -0.0766
17689TIP3   OH274481   0.966   2.232  11.363 -0.2438  0.0205  0.2405
17689TIP3    H174482   1.057   2.247  11.337 -0.4472  0.3680 -0.2768
17689TIP3    H274483   0.919   2.219  11.281 -0.5629 -0.7463  0.5384
17690TIP3   OH274484   4.591   3.778  13.684  0.0745  0.1850  0.4465
17690TIP3    H174485   4.664   3.827  13.721  3.1557 -2.9339 -1.2857
17690TIP3    H274486   4.573   3.709  13.748 -0.7528  0.3565  0.4091
17691TIP3   OH274487   1.405   1.750  12.536  0.5967  0.1911  1.0328
17691TIP3    H174488   1.449   1.826  12.575 -2.6856  2.3181  0.8447
17691TIP3    H274489   1.383   1.694  12.611 -0.5172  1.4459  1.6847
17692TIP3   OH274490   5.754   2.642   1.107 -0.0950  0.1226 -0.3321
17692TIP3    H174491   5.707   2.636   1.024  0.0709  0.0249 -0.4200
17692TIP3    H274492   5.729   2.728   1.143 -1.0457 -0.3122  0.0566
17693TIP3   OH274493   1.493   0.745  14.320 -0.0215 -0.3073  0.7706
17693TIP3    H174494   1.507   0.655  14.290 -0.3276 -0.0412 -0.2201
17693TIP3    H274495   1.572   0.767  14.369  0.4888 -0.7821  0.1735
17694TIP3   OH274496   6.463   3.727  15.225  0.1623  0.0149  0.0900
17694TIP3    H174497   6.419   3.793  15.172 -2.2950 -1.7790 -0.2314
17694TIP3    H274498   6.458   3.761  15.315 -3.2880 -0.7780  0.2728
17695TIP3   OH274499   5.669   1.471   0.680  0.4190  0.0668  0.4024
17695TIP3    H174500   5.645   1.379   0.667 -2.1834  0.2583  3.2506
17695TIP3    H274501   5.760   1.468   0.710  0.2085 -1.6229  0.9181
17696TIP3   OH274502   3.595   3.383  12.872 -0.2120 -0.3008 -0.2302
17696TIP3    H174503   3.559   3.471  12.877 -2.0953 -1.1155  0.9864
17696TIP3    H274504   3.608   3.357  12.964 -4.1079 -3.0271 -0.3463
17697TIP3   OH274505   3.958   6.397  12.857  0.2859 -0.1509  0.4347
17697TIP3    H174506   3.983   6.470  12.913  1.1469 -0.4566  0.4606
17697TIP3    H274507   3.961   6.321  12.914 -0.6460 -0.2041  0.4172
17698TIP3   OH274508   1.320   6.338   3.166 -0.1084 -0.6748 -0.0966
17698TIP3    H174509   1.399   6.300   3.127  0.8544 -0.0591  1.1980
17698TIP3    H274510   1.323   6.430   3.140 -0.3370 -0.6290  0.0359
17699TIP3   OH274511   3.678   4.590  12.208  0.3291  0.0565 -0.0375
17699TIP3    H174512   3.649   4.565  12.120  0.3261 -1.1454  0.2936
17699TIP3    H274513   3.741   4.660  12.194 -1.0297  1.1394 -0.9035
17700TIP3   OH274514   4.553   0.038   4.276  1.0292  0.2875  1.0173
17700TIP3    H174515   4.464   0.032   4.242  1.4352 -0.2203 -0.0102
17700TIP3    H274516   4.547   0.096   4.352 -0.6028 -1.6914  2.4558
17701TIP3   OH274517   5.429   5.616   1.012  0.1463  0.4093  0.3825
17701TIP3    H174518   5.408   5.554   1.081  1.3687  0.1044  0.4957
17701TIP3    H274519   5.523   5.630   1.020 -0.2517  3.0355  0.9918
17702TIP3   OH274520   4.934   6.656   2.524  0.1639 -0.4071 -0.3647
17702TIP3    H174521   4.854   6.695   2.558  0.5303 -0.5294  0.6694
17702TIP3    H274522   4.946   6.576   2.576  1.4538  0.0966  0.1441
17703TIP3   OH274523   1.417   6.747  17.218  0.0561 -0.0833 -0.1211
17703TIP3    H174524   1.499   6.739  17.169 -0.3645 -0.9248 -0.7023
17703TIP3    H274525   1.433   6.702  17.301  0.4829  0.5722  0.1535
17704TIP3   OH274526   2.874   2.656   2.392  0.1909  0.5961  0.3598
17704TIP3    H174527   2.942   2.592   2.370  1.1271  1.5907  0.3020
17704TIP3    H274528   2.807   2.645   2.325  0.9292  0.5297 -0.3695
17705TIP3   OH274529   2.140   4.791   2.205  0.0079  0.3973  0.2946
17705TIP3    H174530   2.209   4.776   2.270 -0.4677  0.8239  0.9159
17705TIP3    H274531   2.186   4.822   2.127  0.5648  0.1401  0.5208
17706TIP3   OH274532   0.606   5.686   0.041 -0.5488 -0.1670 -0.2464
17706TIP3    H174533   0.547   5.662   0.112 -1.6693  0.3938 -0.9636
17706TIP3    H274534   0.676   5.736   0.083  0.0526 -1.8482  0.7844
17707TIP3   OH274535   2.169   3.850  14.110 -0.3478 -0.3446 -0.0205
17707TIP3    H174536   2.156   3.817  14.021  0.7103  1.5400 -0.9040
17707TIP3    H274537   2.262   3.876  14.112 -0.5607  0.3123  1.3858
17708TIP3   OH274538   0.001   2.581  14.079  0.0889 -0.1552  0.0884
17708TIP3    H174539  -0.050   2.656  14.110 -0.0417 -1.0286  2.0162
17708TIP3    H274540  -0.042   2.505  14.117 -0.1957 -1.3056 -2.4111
17709TIP3   OH274541   0.768   3.274  17.204 -0.8767  0.6167  0.3605
17709TIP3    H174542   0.823   3.336  17.158  0.2602 -0.5843  0.0644
17709TIP3    H274543   0.777   3.192  17.155 -0.9085 -0.2572  1.7800
17710TIP3   OH274544   2.927   5.665   1.663 -0.5967  0.2901 -0.6092
17710TIP3    H174545   2.943   5.623   1.748  1.6207  1.2851 -0.4778
17710TIP3    H274546   2.939   5.595   1.599  2.0759  0.4125 -0.3286
17711TIP3   OH274547   6.059   4.309   6.402  0.1997  0.8183 -0.3823
17711TIP3    H174548   5.988   4.259   6.443  0.4020  0.2372 -0.7443
17711TIP3    H274549   6.042   4.399   6.428 -0.8014  0.7122 -0.6544
17712TIP3   OH274550   3.067   3.270   6.467  0.3261  0.2999 -0.1811
17712TIP3    H174551   3.010   3.223   6.528  0.5328  0.5110  0.1734
17712TIP3    H274552   3.122   3.202   6.428  0.1349  0.1546 -0.1979
17713TIP3   OH274553   1.607   2.202  15.810 -0.0651  0.4862 -0.6200
17713TIP3    H174554   1.680   2.140  15.819  0.4981  1.4448  1.8117
17713TIP3    H274555   1.646   2.277  15.765 -0.4324 -0.3627 -2.4095
17714TIP3   OH274556   1.790   2.567  11.728  0.2160  0.3121  0.2209
17714TIP3    H174557   1.834   2.512  11.663 -0.7822  0.0132 -0.2108
17714TIP3    H274558   1.832   2.653  11.719  0.6881  0.0397 -0.2007
17715TIP3   OH274559   2.912   5.030  10.708  0.4057  0.2909  0.0506
17715TIP3    H174560   2.892   5.106  10.653  1.8009  0.1633 -0.6448
17715TIP3    H274561   2.886   4.955  10.655  2.2649  0.1449 -0.6608
17716TIP3   OH274562   0.078   4.785  15.076 -0.0407  0.1837 -0.0505
17716TIP3    H174563   0.160   4.740  15.097  0.2507  1.3220  1.3640
17716TIP3    H274564   0.053   4.827  15.158 -0.9991  1.5020 -1.0082
17717TIP3   OH274565   0.835   4.252   1.130  0.0663 -0.1090  0.3678
17717TIP3    H174566   0.921   4.220   1.157 -0.2101 -1.8192 -0.7221
17717TIP3    H274567   0.778   4.175   1.133 -1.3343  0.9147  0.6603
17718TIP3   OH274568   1.698   0.170   2.583 -0.3361  0.8026 -0.0252
17718TIP3    H174569   1.644   0.127   2.517 -1.6345 -0.6779  1.9225
17718TIP3    H274570   1.732   0.098   2.636 -0.4807  2.0193  1.7694
17719TIP3   OH274571   0.012   4.227  16.838  0.4674 -0.0598  0.0312
17719TIP3    H174572  -0.019   4.205  16.750  0.7019 -0.7956  0.1330
17719TIP3    H274573   0.096   4.269  16.824  0.7278 -0.6113 -0.0711
17720TIP3   OH274574   1.491   3.194   1.479 -0.2449 -0.0982 -0.6144
17720TIP3    H174575   1.559   3.181   1.413 -0.5805 -0.4384 -0.9001
17720TIP3    H274576   1.458   3.105   1.496  0.2986 -0.0866  0.4965
17721TIP3   OH274577   5.075   6.580  12.565 -0.0040 -0.1998 -0.1638
17721TIP3    H174578   4.993   6.544  12.532 -0.1016 -0.7837  0.7009
17721TIP3    H274579   5.137   6.569  12.493 -1.1795  2.1126 -1.5731
17722TIP3   OH274580   4.347   5.984   5.760 -0.1557  0.3280  0.2953
17722TIP3    H174581   4.415   5.935   5.807  0.2802  0.2006 -0.4545
17722TIP3    H274582   4.301   5.917   5.709  1.0971  0.8312 -1.5281
17723TIP3   OH274583   2.973   3.336  14.224  0.0756 -0.5122  0.2047
17723TIP3    H174584   2.884   3.312  14.198 -0.7290  1.9608  0.5066
17723TIP3    H274585   2.976   3.317  14.318 -0.1543 -0.5647  0.2031
17724TIP3   OH274586   4.291   4.115   6.000 -0.7951 -0.0893  0.0724
17724TIP3    H174587   4.288   4.035   6.052  1.2618  0.0339  0.4280
17724TIP3    H274588   4.318   4.183   6.061 -0.9701  0.5638 -0.5698
17725TIP3   OH274589   3.766   5.416   4.832 -0.2329  0.1222 -0.4014
17725TIP3    H174590   3.785   5.464   4.912  0.6372  0.3460 -0.7331
17725TIP3    H274591   3.796   5.474   4.762 -1.3406  0.0904 -0.9039
17726TIP3   OH274592   1.996   0.633  14.693  0.4605  0.2856 -0.0956
17726TIP3    H174593   1.924   0.590  14.647 -0.4276  0.4803  1.1000
17726TIP3    H274594   1.968   0.637  14.784  1.8202  0.7190  0.3179
17727TIP3   OH274595   2.088   5.648  14.861  0.3252  0.1012 -0.2505
17727TIP3    H174596   2.070   5.664  14.768 -0.8038 -1.9091 -0.4039
17727TIP3    H274597   2.180   5.620  14.863  0.3765  0.2246 -0.7546
17728TIP3   OH274598   0.274   3.569  14.589  0.3135  0.0862  0.0968
17728TIP3    H174599   0.341   3.583  14.655 -0.4716 -1.0667  1.1636
17728TIP3    H274600   0.291   3.636  14.523  0.7707  1.6370  1.7445
17729TIP3   OH274601   0.318   3.923  15.086 -0.2690  0.2856 -0.0687
17729TIP3    H174602   0.319   3.950  14.995  4.0738  1.8840  0.3399
17729TIP3    H274603   0.276   3.995  15.132 -1.3853  0.0143 -0.6619
17730TIP3   OH274604   6.188   2.128   3.650 -0.4014  0.5785 -0.0188
17730TIP3    H174605   6.265   2.167   3.692  0.3587 -0.9639  0.0360
17730TIP3    H274606   6.132   2.203   3.630  1.4324  1.8072 -0.7213
17731TIP3   OH274607   2.876   1.903   1.100  0.2092 -0.3929 -0.3066
17731TIP3    H174608   2.794   1.914   1.148  1.2549  0.3004  1.3458
17731TIP3    H274609   2.937   1.867   1.164  1.6928  0.8024 -1.0253
17732TIP3   OH274610   0.944   1.806  15.460  0.2673  1.0845 -0.2587
17732TIP3    H174611   0.888   1.875  15.496 -0.7927  0.3509 -0.4770
17732TIP3    H274612   0.984   1.765  15.537  1.0610  2.0652 -0.1390
17733TIP3   OH274613   6.735   2.943   4.945 -0.2283 -0.6177 -0.2149
17733TIP3    H174614   6.759   2.851   4.955 -0.3466 -0.7842 -1.3761
17733TIP3    H274615   6.654   2.952   4.996  0.2384 -0.9496  0.5893
17734TIP3   OH274616   5.072   2.779  13.055  0.1432  0.3944  0.5340
17734TIP3    H174617   5.125   2.747  12.981 -0.5165  0.5137  0.0053
17734TIP3    H274618   5.013   2.706  13.075 -0.4112  0.7607  0.2401
17735TIP3   OH274619   5.393   3.433   0.888  0.1882  0.3071  0.6602
17735TIP3    H174620   5.323   3.384   0.845  1.3879 -1.4828  0.6850
17735TIP3    H274621   5.474   3.404   0.845  1.1350  0.5795  2.2021
17736TIP3   OH274622   0.736   0.277   0.804 -0.5139  0.0310 -0.1799
17736TIP3    H174623   0.672   0.237   0.746  0.8075 -0.3530 -1.3937
17736TIP3    H274624   0.736   0.221   0.882  0.4493 -1.6519 -1.3716
17737TIP3   OH274625   0.955   0.487   5.820 -0.3319 -0.2469  0.1673
17737TIP3    H174626   1.028   0.426   5.813  0.7772  1.1372 -0.3389
17737TIP3    H274627   0.985   0.554   5.881 -2.0274 -0.8655  1.7325
17738TIP3   OH274628   1.585   5.985   5.487  0.1468 -0.2422  0.7202
17738TIP3    H174629   1.614   5.903   5.526 -0.2868 -0.5831  0.3289
17738TIP3    H274630   1.547   6.034   5.560  1.3386  0.0451  1.1584
17739TIP3   OH274631   5.940   1.246   0.046  0.2386  0.3055  0.2292
17739TIP3    H174632   5.962   1.337   0.069 -3.3051  1.3510 -0.2489
17739TIP3    H274633   5.891   1.213   0.122  1.1063 -1.0936  0.2023
17740TIP3   OH274634   6.698   0.816  12.016  0.3324  0.0559 -0.0686
17740TIP3    H174635   6.679   0.770  12.097 -1.4094  0.5741 -0.1766
17740TIP3    H274636   6.644   0.773  11.950 -0.5252  1.5500 -0.3703
17741TIP3   OH274637   6.121   5.181  11.400  0.0739  0.3124 -0.3725
17741TIP3    H174638   6.054   5.239  11.436 -1.2523 -1.1120 -0.5130
17741TIP3    H274639   6.083   5.146  11.320  1.4417  0.3777 -1.0667
17742TIP3   OH274640   1.045   4.515  15.378  0.2325  0.0332  0.0645
17742TIP3    H174641   1.018   4.430  15.412  0.8409 -0.2184 -0.0643
17742TIP3    H274642   1.089   4.558  15.451  1.1599 -0.3342 -0.2654
17743TIP3   OH274643   6.194   2.154  11.305 -0.0198 -0.3075 -0.0683
17743TIP3    H174644   6.257   2.091  11.341 -1.0681 -1.8166 -0.7982
17743TIP3    H274645   6.124   2.159  11.371 -0.4990 -0.8071 -0.5309
17744TIP3   OH274646   5.440   0.886  11.529 -0.4000  0.6317  0.7435
17744TIP3    H174647   5.395   0.971  11.522 -1.0161  0.4589  2.3772
17744TIP3    H274648   5.496   0.882  11.452 -1.5495  1.8364 -0.1867
17745TIP3   OH274649   6.199   0.404   0.744 -0.5230  0.1532  0.6904
17745TIP3    H174650   6.196   0.494   0.712 -1.8732 -0.0700  0.1460
17745TIP3    H274651   6.119   0.396   0.797 -0.2072 -0.6074  1.0494
17746TIP3   OH274652   6.139   6.757  16.066  0.2155  0.3071  0.0616
17746TIP3    H174653   6.047   6.781  16.079  0.4237  1.6422 -0.8341
17746TIP3    H274654   6.135   6.667  16.033 -0.8033  0.5597 -0.5352
17747TIP3   OH274655   6.339   3.586   4.866 -0.1536 -0.2250  0.2012
17747TIP3    H174656   6.283   3.655   4.831 -0.1924  0.3142  1.3296
17747TIP3    H274657   6.407   3.632   4.916 -0.0996 -0.9849  0.8399
17748TIP3   OH274658   5.910   4.284  13.599 -0.4040  0.1009  0.1189
17748TIP3    H174659   5.888   4.262  13.689  0.0488 -2.0487 -0.2726
17748TIP3    H274660   5.829   4.323  13.564 -1.1138 -0.6026  0.9449
17749TIP3   OH274661   0.658   2.209   3.803 -0.0533  0.0011 -0.1318
17749TIP3    H174662   0.666   2.122   3.843  0.6454  0.3299  0.4553
17749TIP3    H274663   0.651   2.192   3.709  0.9923 -0.6434 -0.0928
17750TIP3   OH274664   3.607   1.555   0.441 -0.2201  0.1897  0.5277
17750TIP3    H174665   3.684   1.499   0.451 -0.2218  0.0751 -0.0891
17750TIP3    H274666   3.548   1.527   0.512 -0.3940 -0.8815 -0.0247
17751TIP3   OH274667   4.939   2.748   4.917 -0.3674  0.5787  0.0597
17751TIP3    H174668   4.974   2.837   4.917 -1.8057  1.1622  0.6019
17751TIP3    H274669   4.868   2.750   4.853  0.5038 -0.5673 -0.9724
17752TIP3   OH274670   3.648   5.349   5.928  0.1531  0.3194  0.3834
17752TIP3    H174671   3.698   5.428   5.904 -1.4238  1.1196 -0.3350
17752TIP3    H274672   3.569   5.383   5.970 -0.7645 -0.8677 -0.3636
17753TIP3   OH274673   1.282   1.899  11.232  0.0427 -0.4290 -0.1291
17753TIP3    H174674   1.274   1.906  11.137 -0.6896  1.0701  0.0251
17753TIP3    H274675   1.229   1.823  11.255 -0.7606 -0.0808 -0.7947
17754TIP3   OH274676   5.496   4.217  15.811  0.2248  0.3375 -0.1849
17754TIP3    H174677   5.441   4.155  15.763  0.4816  0.1178 -0.1982
17754TIP3    H274678   5.586   4.190  15.790  0.3485 -0.1885  0.9696
17755TIP3   OH274679   3.562   2.606  12.126  0.2898 -0.1361 -0.2325
17755TIP3    H174680   3.496   2.633  12.062 -2.2259 -0.1917  2.2550
17755TIP3    H274681   3.580   2.684  12.177  1.8413 -0.2451 -0.5770
17756TIP3   OH274682   0.691   2.728   2.847 -0.5347  0.0764  0.1001
17756TIP3    H174683   0.632   2.671   2.897  0.9367 -1.0019  0.6155
17756TIP3    H274684   0.732   2.784   2.913  0.8351 -0.8248  0.0268
17757TIP3   OH274685   3.044   0.571  10.831 -0.7208 -0.2271 -0.5534
17757TIP3    H174686   3.116   0.512  10.854 -0.3961 -0.1336 -1.3459
17757TIP3    H274687   3.005   0.532  10.753  0.4519  1.4151 -1.9854
17758TIP3   OH274688   3.245   6.573  14.167 -0.1077  0.4769 -0.6073
17758TIP3    H174689   3.228   6.631  14.241  2.0855  1.3169 -0.7260
17758TIP3    H274690   3.284   6.629  14.101  2.3053 -1.1184 -0.6365
17759TIP3   OH274691   6.318   4.555  12.714 -0.8901  0.1065  0.7355
17759TIP3    H174692   6.397   4.539  12.663 -2.3604 -1.7795 -1.0265
17759TIP3    H274693   6.314   4.482  12.776 -3.0436 -1.7833 -1.5232
17760TIP3   OH274694   2.277   3.237   4.919  0.3492  0.1646 -0.5036
17760TIP3    H174695   2.236   3.196   4.995  0.1999 -1.9477 -1.6946
17760TIP3    H274696   2.364   3.198   4.914 -0.1946 -0.8592 -2.2943
17761TIP3   OH274697   0.205   3.985  16.416  0.2728  0.0826  0.8331
17761TIP3    H174698   0.205   4.079  16.432  1.2210  0.0315  1.1399
17761TIP3    H274699   0.258   3.973  16.338 -2.2933  0.0796 -0.9867
17762TIP3   OH274700   5.632   3.445  14.863 -0.5646 -0.0450  0.3839
17762TIP3    H174701   5.717   3.451  14.909 -0.3776 -0.8938  0.1618
17762TIP3    H274702   5.584   3.522  14.893  1.2113  1.8472 -1.4138
17763TIP3   OH274703   3.282   0.397  14.961 -0.3208  0.2799  0.8141
17763TIP3    H174704   3.310   0.369  14.874 -1.2232  0.5612  0.4242
17763TIP3    H274705   3.362   0.429  15.003 -0.0837  1.3182 -0.3765
17764TIP3   OH274706   1.728   5.053   4.619 -0.4186 -0.0539  0.7029
17764TIP3    H174707   1.667   5.100   4.562 -1.6466  0.0274  2.0183
17764TIP3    H274708   1.752   4.975   4.571 -1.7541 -0.1881  0.2303
17765TIP3   OH274709   5.881   3.133  13.283 -0.0675  0.0369  0.1350
17765TIP3    H174710   5.948   3.201  13.291  1.6207 -1.2954 -2.1454
17765TIP3    H274711   5.799   3.181  13.273  0.8343  1.7081  0.5207
17766TIP3   OH274712   1.022   2.015  12.091  0.1509 -0.2577 -0.6910
17766TIP3    H174713   1.002   1.950  12.023 -1.1461 -0.0184 -0.5482
17766TIP3    H274714   0.996   1.973  12.173  1.5868 -0.4883 -0.3251
17767TIP3   OH274715   3.181   2.415  14.913 -0.2000  0.3530 -0.6844
17767TIP3    H174716   3.261   2.453  14.876 -0.0406 -0.1338 -0.8520
17767TIP3    H274717   3.113   2.433  14.848 -0.3742  1.3726 -0.2253
17768TIP3   OH274718   2.342   5.420   2.613  0.3875  0.5911 -0.1336
17768TIP3    H174719   2.335   5.328   2.638 -0.2990  0.7531  0.2863
17768TIP3    H274720   2.405   5.420   2.541 -0.4092 -0.3379 -0.8444
17769TIP3   OH274721   5.927   3.940  13.739 -0.4132  1.0259  0.2312
17769TIP3    H174722   5.901   4.021  13.783 -1.7486  0.5951  0.2862
17769TIP3    H274723   5.944   3.878  13.809  1.1976  1.4193  0.2015
17770TIP3   OH274724   6.528   0.545  11.051  0.2981 -0.4087  0.8141
17770TIP3    H174725   6.515   0.600  10.974 -1.1497 -1.7565  0.0627
17770TIP3    H274726   6.458   0.570  11.111  0.0972 -0.9016  0.7877
17771TIP3   OH274727   0.883   4.537  16.781 -0.5089  0.3418 -0.1499
17771TIP3    H174728   0.923   4.490  16.855 -0.0706  1.7507  0.5319
17771TIP3    H274729   0.905   4.483  16.705 -1.8724 -1.6885  0.8480
17772TIP3   OH274730   0.915   4.328  16.936  0.1468 -0.0784 -0.0767
17772TIP3    H174731   0.873   4.313  17.021  0.3353  0.7031  0.1543
17772TIP3    H274732   1.008   4.337  16.957  0.1534  0.4493 -0.3233
17773TIP3   OH274733   5.422   3.458   6.045 -0.4065  0.6711  0.1921
17773TIP3    H174734   5.440   3.467   5.952 -1.1119  0.0274 -0.0129
17773TIP3    H274735   5.416   3.548   6.077 -2.3781  0.9475 -0.8355
17774TIP3   OH274736   3.694   6.159   2.511  0.1943  0.3467 -0.7928
17774TIP3    H174737   3.609   6.133   2.475 -0.3848  0.0331  0.7872
17774TIP3    H274738   3.673   6.210   2.589  1.4791 -0.3485  0.0140
17775TIP3   OH274739   4.665   1.107   4.086  0.2542 -0.0343  0.1595
17775TIP3    H174740   4.655   1.016   4.061 -1.5529  0.6635 -1.8193
17775TIP3    H274741   4.611   1.117   4.164  0.0310 -0.5243  0.0649
17776TIP3   OH274742   4.111   1.779   2.534  0.4076  0.4041  0.8119
17776TIP3    H174743   4.203   1.799   2.516  0.5974 -1.4472 -0.3697
17776TIP3    H274744   4.100   1.801   2.627  2.0932  0.4802  1.0103
17777TIP3   OH274745   3.735   2.078  13.265 -0.3581 -0.0033  0.0862
17777TIP3    H174746   3.716   1.997  13.217  1.8377 -0.2594 -0.4145
17777TIP3    H274747   3.811   2.056  13.320 -0.9794  1.1583  1.4558
17778TIP3   OH274748   3.709   0.882  12.448 -0.2416 -0.5104  0.1363
17778TIP3    H174749   3.787   0.937  12.456 -1.3888  1.1429  0.2574
17778TIP3    H274750   3.740   0.794  12.466  1.4398  0.2385  1.0439
17779TIP3   OH274751   1.381   6.475  16.136 -0.0970  0.0401 -0.2266
17779TIP3    H174752   1.425   6.514  16.060 -0.0523 -0.9897 -0.7377
17779TIP3    H274753   1.446   6.417  16.175 -0.3878 -0.0522  0.1265
17780TIP3   OH274754   3.506   6.666  14.466 -0.0153 -0.2344 -0.1361
17780TIP3    H174755   3.498   6.722  14.389 -0.7283 -0.7444 -0.4478
17780TIP3    H274756   3.507   6.577  14.431  1.5410 -0.4065  0.3251
17781TIP3   OH274757   6.050   4.764  13.111 -0.2149  0.6141 -0.5195
17781TIP3    H174758   6.145   4.751  13.116 -0.0767  1.5842 -0.5685
17781TIP3    H274759   6.014   4.702  13.176  0.3549 -0.7015 -1.4377
17782TIP3   OH274760   0.382   2.699   4.889  0.6441 -0.1559  0.2397
17782TIP3    H174761   0.464   2.726   4.849  0.2863 -0.8579 -0.9876
17782TIP3    H274762   0.409   2.645   4.964  1.3110 -1.3204 -0.8157
17783TIP3   OH274763   1.515   0.389  17.021  0.2536 -0.4136  0.1566
17783TIP3    H174764   1.603   0.358  16.999  0.3556  0.9411 -1.4749
17783TIP3    H274765   1.456   0.324  16.984  0.5332 -0.4239 -0.2696
17784TIP3   OH274766   5.093   4.055  12.499 -1.1336  0.2609  0.5215
17784TIP3    H174767   4.998   4.067  12.500 -0.9940  1.3124  1.8204
17784TIP3    H274768   5.112   4.020  12.411 -2.6882  0.1836  0.2065
17785TIP3   OH274769   3.961   1.448   3.789 -0.4294  0.0305  0.1814
17785TIP3    H174770   4.004   1.369   3.756 -0.3515  0.7706 -1.5248
17785TIP3    H274771   3.973   1.513   3.720  0.8276  2.0106  2.1874
17786TIP3   OH274772   5.811   0.505   1.973  0.2136 -0.0535 -0.1952
17786TIP3    H174773   5.719   0.522   1.997  0.3407  0.0550  0.2328
17786TIP3    H274774   5.832   0.573   1.909 -0.4240 -0.9315 -1.3481
17787TIP3   OH274775   2.474   4.252  16.971 -0.1155 -0.3626  0.0376
17787TIP3    H174776   2.476   4.326  17.032 -2.5589 -0.5086  0.3546
17787TIP3    H274777   2.449   4.290  16.887 -0.1677 -0.6537 -0.0795
17788TIP3   OH274778   2.490   5.101  15.286  0.3241 -0.3282  0.7460
17788TIP3    H174779   2.584   5.111  15.273  0.2114  0.2375  0.3359
17788TIP3    H274780   2.479   5.012  15.317  0.9732 -0.4871  0.5239
17789TIP3   OH274781   6.731   1.272  15.522  0.0805  0.2996 -0.5399
17789TIP3    H174782   6.721   1.192  15.469 -0.3241 -0.3381  0.4893
17789TIP3    H274783   6.642   1.308  15.528  0.3245  1.0500 -1.3379
17790TIP3   OH274784   2.274   6.408  15.609 -0.0956 -0.1286 -0.8487
17790TIP3    H174785   2.356   6.408  15.656 -1.5919  0.8843  1.8501
17790TIP3    H274786   2.262   6.498  15.578 -0.2037 -0.2708 -1.2388
17791TIP3   OH274787   5.448   4.141  11.760 -0.3953  0.1271  0.0277
17791TIP3    H174788   5.432   4.152  11.666  1.3806  1.3955 -0.1500
17791TIP3    H274789   5.541   4.158  11.771  0.2036 -3.6701  1.5130
17792TIP3   OH274790   2.155   6.646  12.193 -0.1981  0.2149  0.5492
17792TIP3    H174791   2.074   6.694  12.172  0.7720  0.9809 -1.5726
17792TIP3    H274792   2.218   6.714  12.216  0.9302 -0.0854 -1.5852
17793TIP3   OH274793   2.921   2.914  12.592  0.9444 -0.4845  0.0294
17793TIP3    H174794   2.931   2.946  12.681 -0.0740 -0.8465  0.2770
17793TIP3    H274795   2.920   2.993  12.538 -0.7113 -0.1314  0.5591
17794TIP3   OH274796   2.757   6.684  14.021  0.8900 -0.7514  0.2597
17794TIP3    H174797   2.789   6.680  13.931  0.5461  0.5945  0.0642
17794TIP3    H274798   2.792   6.605  14.063  0.6612 -1.6281 -1.1731
17795TIP3   OH274799   0.669   6.477   5.895 -0.0911 -0.0236 -0.2042
17795TIP3    H174800   0.723   6.492   5.973  1.9379 -0.8393 -1.4172
17795TIP3    H274801   0.600   6.419   5.925  0.7933 -0.5101  0.9598
17796TIP3   OH274802   4.735   6.424   5.246  0.1258 -0.7649  0.7921
17796TIP3    H174803   4.647   6.426   5.284  0.3613 -0.3902  1.3350
17796TIP3    H274804   4.788   6.476   5.307  0.5640 -0.3628  0.0690
17797TIP3   OH274805   2.169   0.294  15.742  0.1723  0.4108  0.4083
17797TIP3    H174806   2.138   0.376  15.780 -0.8943  0.5364 -0.7085
17797TIP3    H274807   2.149   0.302  15.649 -0.1369 -1.2097  0.3287
17798TIP3   OH274808   2.529   2.689   2.510  0.0703 -0.1753 -0.0838
17798TIP3    H174809   2.541   2.638   2.590 -0.1262 -0.6553 -0.3583
17798TIP3    H274810   2.581   2.768   2.524 -0.4192  0.0020  0.7506
17799TIP3   OH274811   5.112   0.900   5.145 -0.3096  0.2779  0.6056
17799TIP3    H174812   5.091   0.810   5.170 -0.8148  0.4718  0.8808
17799TIP3    H274813   5.159   0.891   5.062 -4.2699 -0.0072 -1.7324
17800TIP3   OH274814   3.749   2.699   2.231 -0.0022 -0.4058  0.0364
17800TIP3    H174815   3.734   2.642   2.156 -0.4971  0.5926 -0.6264
17800TIP3    H274816   3.662   2.711   2.269  0.0243  0.3535 -0.1472
17801TIP3   OH274817   0.817   1.429  12.780 -0.1496 -0.2526 -0.5706
17801TIP3    H174818   0.762   1.357  12.750  1.2468 -1.1142 -1.0759
17801TIP3    H274819   0.761   1.478  12.840 -1.2408 -1.5280 -0.5315
17802TIP3   OH274820   2.240   4.391  16.528 -0.3209  0.1937  0.3362
17802TIP3    H174821   2.328   4.429  16.530  0.1225 -0.7615 -0.1975
17802TIP3    H274822   2.255   4.296  16.528 -1.3841  0.0120  1.1973
17803TIP3   OH274823   2.840   6.745   5.764  0.5972  0.1136  0.1373
17803TIP3    H174824   2.792   6.698   5.833  0.1668  1.6647  0.9266
17803TIP3    H274825   2.801   6.832   5.764  1.4440  0.4941 -1.2458
17804TIP3   OH274826   1.983   4.942   5.187  0.1691  0.4094 -0.5089
17804TIP3    H174827   1.982   4.877   5.257  2.6071 -0.1780 -0.9747
17804TIP3    H274828   2.036   5.014   5.222 -1.8601  1.8451 -0.2925
17805TIP3   OH274829   6.712   3.954   0.693 -0.6842 -0.8559 -0.2784
17805TIP3    H174830   6.715   4.050   0.687  0.2335 -0.9927 -2.6447
17805TIP3    H274831   6.801   3.926   0.676 -1.3894 -2.2220 -1.8499
17806TIP3   OH274832   2.910   4.686   4.724  0.6619 -0.1926 -0.2068
17806TIP3    H174833   2.861   4.617   4.769  0.0725 -0.2563 -0.9431
17806TIP3    H274834   2.982   4.707   4.783  0.1525 -0.5987  0.5639
17807TIP3   OH274835   3.546   2.316   3.022 -0.2572  0.1481 -0.0517
17807TIP3    H174836   3.468   2.315   3.076 -1.9300 -0.7362 -2.4032
17807TIP3    H274837   3.560   2.225   2.998  0.2834  0.5408 -1.3060
17808TIP3   OH274838   2.679   0.393  16.440 -0.1108 -0.4440  0.3971
17808TIP3    H174839   2.652   0.307  16.473  1.4307 -0.7217  0.9736
17808TIP3    H274840   2.597   0.437  16.418 -0.8593 -3.3977 -3.2959
17809TIP3   OH274841   3.185   0.264   3.774  0.7348  0.4946  0.0982
17809TIP3    H174842   3.114   0.322   3.747  0.6748  1.6427  2.6242
17809TIP3    H274843   3.142   0.181   3.795  0.1858  1.0453  1.1787
17810TIP3   OH274844   2.087   3.126  16.040 -0.7638 -0.3923  0.5037
17810TIP3    H174845   2.148   3.062  16.076 -0.8603 -0.8476 -0.1096
17810TIP3    H274846   2.142   3.188  15.992 -0.7316 -0.4581  0.4556
17811TIP3   OH274847   4.164   2.352  15.630 -0.7657 -0.1619  0.0421
17811TIP3    H174848   4.096   2.379  15.692 -0.7411 -2.1643  1.0036
17811TIP3    H274849   4.130   2.271  15.591  0.2214 -0.1437 -0.8759
17812TIP3   OH274850   6.297   0.098   0.723  0.3104 -0.3322 -0.1916
17812TIP3    H174851   6.378   0.047   0.722  0.0228 -0.7865 -1.0384
17812TIP3    H274852   6.325   0.189   0.709  0.8591 -0.1728  1.7161
17813TIP3   OH274853   2.670   4.391  14.664 -0.0506  0.2069  0.0791
17813TIP3    H174854   2.653   4.465  14.722 -0.6393 -0.6526  1.0378
17813TIP3    H274855   2.625   4.413  14.582 -1.0315  0.4971  0.6785
17814TIP3   OH274856   5.463   1.425   3.807 -0.2071  0.1229 -0.1787
17814TIP3    H174857   5.445   1.347   3.753  0.0615  0.9256 -1.4478
17814TIP3    H274858   5.555   1.444   3.791 -0.4079  1.0096 -0.2683
17815TIP3   OH274859   0.871   3.016   0.407  0.7648 -0.1738  0.0254
17815TIP3    H174860   0.961   3.048   0.416  1.0160 -0.9459  0.3132
17815TIP3    H274861   0.838   3.059   0.329  0.1902  2.8497  1.8584
17816TIP3   OH274862   6.027   2.333   1.530  0.1289  0.1242  0.2387
17816TIP3    H174863   5.957   2.326   1.466  1.0759  1.3820 -0.9677
17816TIP3    H274864   6.008   2.264   1.594 -0.7102 -1.2997 -1.4906
17817TIP3   OH274865   3.828   6.357  16.423 -0.1298  0.1482 -0.0824
17817TIP3    H174866   3.791   6.273  16.451  0.6530 -0.1670  0.0054
17817TIP3    H274867   3.754   6.402  16.381 -0.5938 -0.5176  0.0025
17818TIP3   OH274868   5.564   5.938   1.355  0.3411  0.1144  0.3464
17818TIP3    H174869   5.577   5.890   1.273 -0.9951 -0.6586  0.5749
17818TIP3    H274870   5.494   5.890   1.400 -1.0074  2.2573  0.5987
17819TIP3   OH274871   3.489   6.741   6.008  0.1322  0.4099 -0.1478
17819TIP3    H174872   3.516   6.649   6.009  0.8871  0.6259 -0.3881
17819TIP3    H274873   3.494   6.768   6.100 -1.1529 -0.0808  0.0922
17820TIP3   OH274874   2.725   4.864  11.208  0.1138 -0.6425 -0.0764
17820TIP3    H174875   2.654   4.923  11.183  0.0283 -0.7115  0.0034
17820TIP3    H274876   2.764   4.838  11.125 -1.1401 -2.0663 -0.2449
17821TIP3   OH274877   2.367   0.443   5.250 -0.2591 -0.5265 -0.4570
17821TIP3    H174878   2.443   0.410   5.298 -1.2890  0.0244  1.6090
17821TIP3    H274879   2.307   0.369   5.244  0.0524 -0.7195 -1.3231
17822TIP3   OH274880   6.152   1.087   0.085 -0.5590 -0.2678  0.2984
17822TIP3    H174881   6.222   1.141   0.049 -0.1415 -1.4021 -0.6056
17822TIP3    H274882   6.071   1.132   0.060 -0.2500 -0.6477 -1.4166
17823TIP3   OH274883   2.593   3.740   5.658 -0.1632  0.3443  0.4416
17823TIP3    H174884   2.590   3.808   5.726  0.7846 -1.9623  2.8976
17823TIP3    H274885   2.680   3.751   5.618 -0.4663  1.3032  0.0423
17824TIP3   OH274886   0.999   1.850  11.883  0.6539 -0.0170 -0.2934
17824TIP3    H174887   1.047   1.832  11.802 -1.0188 -0.6914 -1.1811
17824TIP3    H274888   1.005   1.768  11.932  0.5855 -0.0425 -0.3262
17825TIP3   OH274889   2.652   1.862  16.291  0.0598  0.2244  0.0816
17825TIP3    H174890   2.680   1.935  16.236  2.3033 -0.1562  0.6643
17825TIP3    H274891   2.622   1.796  16.229  1.8941  0.0699 -0.6929
17826TIP3   OH274892   4.512   4.731   4.783  0.5700 -0.2092  0.5386
17826TIP3    H174893   4.547   4.803   4.835 -2.3429  1.9433 -0.3847
17826TIP3    H274894   4.431   4.707   4.827  0.4078 -1.4605 -0.4227
17827TIP3   OH274895   4.026   5.465  13.930 -0.2892  0.2663  0.2264
17827TIP3    H174896   3.983   5.380  13.940 -0.2512  0.1954 -0.2019
17827TIP3    H274897   3.957   5.529  13.943 -0.6920  0.1408 -1.2531
17828TIP3   OH274898   4.616   0.190  12.289  0.1279  0.3471 -0.1402
17828TIP3    H174899   4.544   0.253  12.295 -0.2471 -0.2944  2.7700
17828TIP3    H274900   4.686   0.228  12.344  0.4720 -1.0139  0.3802
17829TIP3   OH274901   6.619   5.652  13.753  0.0142  0.2392  0.2550
17829TIP3    H174902   6.694   5.626  13.807  0.6033  0.7221 -0.3196
17829TIP3    H274903   6.553   5.585  13.771  0.7425 -0.4541  0.4256
17830TIP3   OH274904   3.819   2.328   6.179 -0.0519 -0.0976  0.2522
17830TIP3    H174905   3.899   2.284   6.150 -0.4827 -1.6846  1.4264
17830TIP3    H274906   3.834   2.420   6.158  0.8777 -0.7644 -2.1835
17831TIP3   OH274907   1.178   5.322  13.458 -0.2764  0.4020 -0.0435
17831TIP3    H174908   1.087   5.292  13.461 -0.3448  0.5765 -0.4285
17831TIP3    H274909   1.203   5.315  13.366  0.2582 -0.1085  0.1400
17832TIP3   OH274910   2.467   0.196  15.720 -0.3162 -0.2980  0.3105
17832TIP3    H174911   2.401   0.250  15.763  0.8142  0.5782  0.9585
17832TIP3    H274912   2.492   0.244  15.642  0.1160 -0.2572  0.4714
17833TIP3   OH274913   2.870   4.413   1.831 -0.2327  0.2132  0.1573
17833TIP3    H174914   2.930   4.409   1.756 -1.3421  0.2134 -0.7620
17833TIP3    H274915   2.926   4.420   1.907  0.9562 -0.9880 -0.5960
17834TIP3   OH274916   2.185   6.712  13.639  0.2059 -0.0749  0.3008
17834TIP3    H174917   2.111   6.669  13.681 -1.3913  1.0298 -1.2725
17834TIP3    H274918   2.249   6.643  13.626 -0.3358 -0.9480  2.1517
17835TIP3   OH274919   4.933   4.314   2.293  0.0419  0.2152 -0.1630
17835TIP3    H174920   4.966   4.237   2.340  1.5994  0.1992 -1.2660
17835TIP3    H274921   4.943   4.386   2.356 -0.3898 -0.2760  0.4759
17836TIP3   OH274922   0.450   6.778   2.759 -0.3668 -0.2004 -0.6549
17836TIP3    H174923   0.422   6.687   2.771  1.2872 -0.6575 -0.0778
17836TIP3    H274924   0.531   6.771   2.708 -0.3505  0.9652 -0.7910
17837TIP3   OH274925   3.773   5.293  17.016 -0.2936  0.4610 -0.3250
17837TIP3    H174926   3.696   5.301  17.071  1.3522  0.8082  1.9821
17837TIP3    H274927   3.797   5.200  17.022  2.7706  1.4268  3.6113
17838TIP3   OH274928   1.875   5.640  11.795 -0.1509  0.2148 -0.7623
17838TIP3    H174929   1.915   5.649  11.708  1.8101 -1.1689 -0.0305
17838TIP3    H274930   1.845   5.550  11.798  0.2233  0.1236  0.1979
17839TIP3   OH274931   5.122   6.588   2.285  0.1129 -0.0344  0.3924
17839TIP3    H174932   5.174   6.509   2.298  0.5605  0.2666  0.4269
17839TIP3    H274933   5.135   6.639   2.365 -0.3061  0.0011  0.4402
17840TIP3   OH274934   4.327   0.979   2.959 -0.1017 -0.6968 -0.1289
17840TIP3    H174935   4.360   1.052   3.010 -1.2708  0.2499 -0.7108
17840TIP3    H274936   4.291   0.918   3.023  0.2948 -0.4704  0.3081
17841TIP3   OH274937   6.619   5.741  14.048 -0.0870  0.4742  0.1976
17841TIP3    H174938   6.679   5.678  14.011  1.1104  1.8042 -0.1700
17841TIP3    H274939   6.633   5.736  14.142  0.8763  1.0238  0.0928
17842TIP3   OH274940   4.859   4.779  14.865 -0.4908  0.8535  0.3902
17842TIP3    H174941   4.796   4.818  14.804 -2.1238 -1.0275  0.8097
17842TIP3    H274942   4.941   4.825  14.848 -1.2580  1.3213 -2.2778
17843TIP3   OH274943   1.603   6.709   1.966 -0.4122  0.2497  0.1571
17843TIP3    H174944   1.669   6.774   1.945 -0.9036  0.3708 -1.0585
17843TIP3    H274945   1.570   6.680   1.881 -1.5854 -0.1518  0.7336
17844TIP3   OH274946   4.138   3.888  12.151 -0.3474 -0.0547  0.6469
17844TIP3    H174947   4.224   3.880  12.108 -1.1549  0.2943 -1.1036
17844TIP3    H274948   4.103   3.799  12.152  0.1914 -0.2552  1.6988
17845TIP3   OH274949   4.707   2.339   4.427 -0.2400  0.0004 -0.6893
17845TIP3    H174950   4.651   2.337   4.349  2.1583 -0.0701 -2.4823
17845TIP3    H274951   4.780   2.281   4.405  1.5628  1.6669  0.7765
17846TIP3   OH274952   5.613   1.632   1.070 -0.1502 -0.1338 -0.2940
17846TIP3    H174953   5.596   1.673   0.985 -2.1982 -0.1312  0.1040
17846TIP3    H274954   5.561   1.683   1.132  0.3519 -0.9270  0.7893
17847TIP3   OH274955   0.320   5.344   0.271 -0.3185 -0.0760  0.0342
17847TIP3    H174956   0.353   5.432   0.288 -1.4761  0.5870 -1.0422
17847TIP3    H274957   0.323   5.300   0.356 -0.4235  1.2366  0.7273
17848TIP3   OH274958   6.593   2.594   2.514 -0.4158 -0.3453 -0.7039
17848TIP3    H174959   6.644   2.673   2.533 -0.0204 -0.9954  0.9755
17848TIP3    H274960   6.552   2.612   2.429 -0.9218  1.9711  0.0045
17849TIP3   OH274961   3.776   6.639  12.215 -0.0213 -0.0145 -0.1508
17849TIP3    H174962   3.692   6.609  12.251 -1.0164  0.2966 -2.1228
17849TIP3    H274963   3.810   6.563  12.168  1.2712 -0.4224  1.3970
17850TIP3   OH274964   4.186   2.477   0.433  0.4463 -0.1379 -0.0390
17850TIP3    H174965   4.174   2.382   0.427 -0.1385 -0.1849  1.5741
17850TIP3    H274966   4.278   2.491   0.413  0.3334 -0.9588 -1.1578
17851TIP3   OH274967   2.356   4.488  14.951 -0.3028 -0.1228  0.0087
17851TIP3    H174968   2.381   4.460  14.864 -1.6343  2.3144 -1.2269
17851TIP3    H274969   2.439   4.517  14.991  0.2437 -0.8226 -0.5953
17852TIP3   OH274970   0.900   3.465  16.370 -0.6056  0.0922  0.4810
17852TIP3    H174971   0.908   3.559  16.384 -1.0982 -0.0339  1.6549
17852TIP3    H274972   0.849   3.457  16.290  0.2863  0.8253 -0.1650
17853TIP3   OH274973   5.941   6.147  11.744 -0.0311 -0.2847  0.1146
17853TIP3    H174974   5.871   6.212  11.756  2.7962  3.0332 -0.4729
17853TIP3    H274975   5.919   6.103  11.662 -0.8628  1.5499 -0.6880
17854TIP3   OH274976   3.876   4.765  15.302  0.3583  0.6934 -0.4383
17854TIP3    H174977   3.899   4.770  15.209 -0.9876  0.4736 -0.7930
17854TIP3    H274978   3.796   4.817  15.309  0.3567  0.5499  0.5652
17855TIP3   OH274979   3.236   0.083   0.345 -0.2812  0.3419 -0.4522
17855TIP3    H174980   3.314   0.115   0.300  0.0790  1.5190  0.9631
17855TIP3    H274981   3.165   0.135   0.309 -0.0843  0.8126 -0.1785
17856TIP3   OH274982   3.867   4.242  14.991  0.6980 -0.0511 -0.1249
17856TIP3    H174983   3.821   4.198  15.063  1.2397 -1.6776 -0.7697
17856TIP3    H274984   3.947   4.275  15.031  0.6512 -0.3083  0.1824
17857TIP3   OH274985   2.028   2.792  12.198  0.3223 -0.0236  0.8963
17857TIP3    H174986   1.960   2.804  12.263 -0.8056  0.5269 -0.3624
17857TIP3    H274987   2.072   2.876  12.193  1.4093 -0.5027  2.0234
17858TIP3   OH274988   4.421   5.722   5.408 -0.2538  0.1481  0.6257
17858TIP3    H174989   4.373   5.655   5.457  1.9704 -0.7867  1.5806
17858TIP3    H274990   4.405   5.700   5.317 -0.2576 -1.1943  0.9300
17859TIP3   OH274991   1.780   5.436  11.506 -0.0092 -0.2766  0.4028
17859TIP3    H174992   1.809   5.428  11.597  1.8583 -0.8297 -0.2198
17859TIP3    H274993   1.857   5.412  11.454 -1.0902 -0.0783 -1.3254
17860TIP3   OH274994   6.570   4.028  13.096  0.0940 -0.0087 -0.0272
17860TIP3    H174995   6.587   4.062  13.184  0.7647 -0.2335 -0.0690
17860TIP3    H274996   6.497   3.966  13.108  0.6613 -0.5861  0.4945
17861TIP3   OH274997   2.107   5.153   5.257  0.3513 -0.5539  0.2546
17861TIP3    H174998   2.073   5.180   5.171 -1.9128  2.1090  1.9208
17861TIP3    H274999   2.199   5.179   5.254 -0.1165  1.0921 -0.7630
17862TIP3   OH275000   4.302   0.534   0.552 -0.1873 -0.6748  0.6986
17862TIP3    H175001   4.348   0.583   0.620  2.5299 -3.3318  0.8967
17862TIP3    H275002   4.212   0.530   0.583  0.3185  0.9548  2.5039
17863TIP3   OH275003   1.397   3.855   0.089  0.1903 -0.3276 -0.0504
17863TIP3    H175004   1.391   3.801   0.010 -2.5623  0.6797 -0.5709
17863TIP3    H275005   1.309   3.852   0.127  1.0520  0.5786  2.0622
17864TIP3   OH275006   3.643   1.708   1.945 -0.3655 -0.3598  0.2591
17864TIP3    H175007   3.628   1.703   1.851 -0.9554 -0.2285  0.3489
17864TIP3    H275008   3.660   1.618   1.972  2.5438 -0.0845 -0.4285
17865TIP3   OH275009   6.374   0.394  13.196 -0.2224 -0.4261  0.3681
17865TIP3    H175010   6.320   0.438  13.131 -0.9249  0.4636  1.5269
17865TIP3    H275011   6.420   0.465  13.241  1.6258 -1.1404 -0.3255
17866TIP3   OH275012   2.211   4.152  14.139  0.0951 -0.0704  0.3409
17866TIP3    H175013   2.180   4.066  14.167 -0.3051 -0.0962 -0.1716
17866TIP3    H275014   2.305   4.149  14.154  0.1677 -0.8186 -0.2531
17867TIP3   OH275015   1.139   4.086   6.064  0.3987 -0.5315  0.0727
17867TIP3    H175016   1.147   4.013   6.002 -0.3512  0.1772 -0.8742
17867TIP3    H275017   1.221   4.133   6.057  0.4252 -0.6137 -0.1794
17868TIP3   OH275018   4.333   3.578   5.899 -0.1562 -0.2640  0.0842
17868TIP3    H175019   4.295   3.666   5.894  1.6633  0.3933 -3.1935
17868TIP3    H275020   4.335   3.559   5.993 -4.5070  1.3982  0.6554
17869TIP3   OH275021   5.005   3.177  15.982  0.2467 -0.0015 -0.4333
17869TIP3    H175022   4.982   3.200  16.072  1.5013  0.6261 -0.2521
17869TIP3    H275023   5.091   3.217  15.969  0.9242 -1.6933 -1.2865
17870TIP3   OH275024   2.628   2.864  15.978 -0.0780  0.2064 -0.2229
17870TIP3    H175025   2.693   2.922  16.018  0.6479 -1.1328  0.5933
17870TIP3    H275026   2.667   2.838  15.895 -0.3512  0.7944 -0.5353
17871TIP3   OH275027   5.603   1.596  16.276  0.1295 -0.4740  0.3353
17871TIP3    H175028   5.642   1.681  16.297  0.2973 -0.3109 -0.6243
17871TIP3    H275029   5.642   1.571  16.192  0.7923 -1.9500  1.0699
17872TIP3   OH275030   5.939   3.384  12.673  0.8094 -0.1720  0.0479
17872TIP3    H175031   5.985   3.429  12.744 -1.9274  2.1675  0.4102
17872TIP3    H275032   5.902   3.306  12.715  1.6924 -0.3776  0.4723
17873TIP3   OH275033   2.240   3.949  15.997  0.5052  0.2736 -0.2007
17873TIP3    H175034   2.247   4.010  15.924  2.3042 -1.9064 -1.9057
17873TIP3    H275035   2.272   3.866  15.963 -1.7201 -1.6407  2.1005
17874TIP3   OH275036   0.230   6.491   2.981  0.1340 -0.6494 -0.3350
17874TIP3    H175037   0.242   6.527   2.893 -0.6576 -1.5196 -0.8164
17874TIP3    H275038   0.298   6.532   3.033 -0.9145  1.7122 -0.7904
17875TIP3   OH275039   0.302   0.709   5.627  0.0735  0.0116 -0.2078
17875TIP3    H175040   0.380   0.656   5.637 -0.2998 -0.4818  0.1085
17875TIP3    H275041   0.309   0.746   5.538 -0.0708 -1.2196 -0.7437
17876TIP3   OH275042   3.595   2.420   5.660  0.1651 -0.0561 -0.2193
17876TIP3    H175043   3.543   2.493   5.693 -0.8033 -0.7478 -0.2186
17876TIP3    H275044   3.558   2.402   5.573 -0.0304 -0.9786  0.0570
17877TIP3   OH275045   0.178   3.024  11.705  0.0269 -0.4958 -0.4549
17877TIP3    H175046   0.221   3.076  11.637 -0.8334  1.7334  0.6438
17877TIP3    H275047   0.088   3.056  11.706  0.1467 -0.1382  2.0764
17878TIP3   OH275048   0.167   0.528  15.751 -0.1220 -0.7411 -0.4205
17878TIP3    H175049   0.147   0.492  15.665 -2.7248  1.4882 -0.8205
17878TIP3    H275050   0.085   0.520  15.800  0.1863  1.4974  0.5383
17879TIP3   OH275051   5.631   0.342  15.754 -0.0534 -0.2046  0.1442
17879TIP3    H175052   5.658   0.430  15.781  2.2670 -1.0521  0.6625
17879TIP3    H275053   5.563   0.357  15.688 -0.2974  1.9559  0.8518
17880TIP3   OH275054   1.557   4.423   1.974 -0.1241  0.4155  0.0820
17880TIP3    H175055   1.556   4.332   2.006  0.6099  0.8326  1.3586
17880TIP3    H275056   1.479   4.462   2.012 -0.0239  0.5186  0.1845
17881TIP3   OH275057   6.363   2.590   5.861  1.3669  0.3831 -0.1167
17881TIP3    H175058   6.424   2.579   5.934  3.4060  0.3971 -1.7346
17881TIP3    H275059   6.323   2.675   5.875  1.0819 -0.0058  1.4536
17882TIP3   OH275060   1.810   0.084  16.826  0.2241 -0.5797  0.1316
17882TIP3    H175061   1.888   0.107  16.775 -0.0056 -0.6804 -0.2668
17882TIP3    H275062   1.789  -0.005  16.798 -0.6387 -0.1782 -0.5197
17883TIP3   OH275063   2.320   0.254  16.097  0.1988  0.5591  0.6901
17883TIP3    H175064   2.338   0.189  16.165  0.6702 -0.6923 -0.6031
17883TIP3    H275065   2.370   0.224  16.021 -1.7192  0.9671 -0.7630
17884TIP3   OH275066   2.088   3.720   5.194 -0.5692  0.5382 -0.6050
17884TIP3    H175067   2.007   3.685   5.157 -1.2705  1.3515  0.1382
17884TIP3    H275068   2.090   3.686   5.284  0.1098  0.1985 -0.7489
17885TIP3   OH275069   2.017   4.536   2.007  0.6260 -0.1041 -0.0697
17885TIP3    H175070   2.009   4.630   2.017 -0.5602 -0.3790  1.9104
17885TIP3    H275071   2.032   4.503   2.096  2.7287 -1.6442 -0.9472
17886TIP3   OH275072   2.789   1.023  14.256 -0.9710  0.2273 -0.2527
17886TIP3    H175073   2.863   0.965  14.237 -0.0907  0.8379  1.2296
17886TIP3    H275074   2.796   1.093  14.191  0.5289  0.9708  0.6786
17887TIP3   OH275075   2.760   6.463   4.288 -0.2577 -0.2033 -0.0896
17887TIP3    H175076   2.819   6.419   4.228  0.9091  0.0326  0.8688
17887TIP3    H275077   2.816   6.492   4.360 -1.4633  0.4117  0.6168
17888TIP3   OH275078   6.682   2.402   3.115 -0.0332  0.3229  0.2733
17888TIP3    H175079   6.668   2.310   3.093  4.5618 -0.3648 -0.2631
17888TIP3    H275080   6.725   2.440   3.038  0.9717  2.1201  1.6681
17889TIP3   OH275081   2.810   3.582   4.206 -0.3315  0.7415  0.1523
17889TIP3    H175082   2.870   3.554   4.275  1.4314 -1.4994 -2.1991
17889TIP3    H275083   2.815   3.678   4.207  3.4803  0.5955 -0.1041
17890TIP3   OH275084   0.231   4.125  16.103  0.6548  0.3483  0.2141
17890TIP3    H175085   0.192   4.206  16.136  0.8952  0.1878  0.9076
17890TIP3    H275086   0.165   4.090  16.043 -0.4259 -0.0712  1.5902
17891TIP3   OH275087   1.669   4.613  13.694  0.4294 -0.3707 -0.8082
17891TIP3    H175088   1.664   4.554  13.619  0.1216 -1.8482  0.3640
17891TIP3    H275089   1.578   4.628  13.719  0.5875 -1.3884  0.4214
17892TIP3   OH275090   3.550   1.510  12.598  0.1209  0.0847 -0.4021
17892TIP3    H175091   3.520   1.532  12.686 -0.9368 -1.7218 -0.2773
17892TIP3    H275092   3.550   1.593  12.551 -2.5394  0.5692  0.3608
17893TIP3   OH275093   4.566   6.209   4.308 -0.4495  0.1543 -0.6801
17893TIP3    H175094   4.532   6.233   4.222  0.5064  1.2247 -0.7664
17893TIP3    H275095   4.607   6.124   4.295  1.1409  1.0363 -1.6854
17894TIP3   OH275096   4.320   6.736  16.139 -0.1601 -0.4005 -0.2833
17894TIP3    H175097   4.276   6.661  16.099  0.6406 -0.6299 -0.7454
17894TIP3    H275098   4.357   6.785  16.066 -0.3114  0.2227  0.0490
17895TIP3   OH275099   5.048   6.476  11.125 -0.0011  0.0375 -0.0891
17895TIP3    H175100   5.076   6.488  11.035  0.5698  0.4770  0.1462
17895TIP3    H275101   5.006   6.390  11.126 -1.5832  0.7698 -1.1555
17896TIP3   OH275102   0.976   4.331  15.614 -0.2716  0.5278  0.1751
17896TIP3    H175103   0.917   4.256  15.605 -1.6525  1.4089  1.7146
17896TIP3    H275104   1.057   4.293  15.651 -0.4927 -0.4041 -0.2736
17897TIP3   OH275105   1.394   0.245  15.477 -0.1331  0.2163  0.5018
17897TIP3    H175106   1.457   0.187  15.519 -0.5265  0.7934  1.9301
17897TIP3    H275107   1.324   0.187  15.447  2.0478 -0.7143 -3.0912
17898TIP3   OH275108   0.949   3.377   3.128 -0.3786 -0.3461 -0.2613
17898TIP3    H175109   0.926   3.449   3.069 -0.9987 -0.3402 -0.0170
17898TIP3    H275110   1.012   3.325   3.079  1.6962  1.5178  0.3527
17899TIP3   OH275111   5.665   2.972   5.110 -0.1161  0.0126  0.4115
17899TIP3    H175112   5.619   3.041   5.156 -1.2320 -0.6565  0.3221
17899TIP3    H275113   5.617   2.892   5.133  1.1716 -0.7274  0.5455
17900TIP3   OH275114   1.397   2.415   5.334 -0.3299 -0.1997  0.0994
17900TIP3    H175115   1.457   2.490   5.327 -1.8484  0.9348 -0.9422
17900TIP3    H275116   1.346   2.433   5.413  0.1741 -0.7990  0.5710
17901TIP3   OH275117   4.762   0.658  11.763 -0.5855  0.0762  0.5943
17901TIP3    H175118   4.797   0.594  11.825  0.5462  0.5954  0.4980
17901TIP3    H275119   4.815   0.648  11.684 -1.2196  0.2705  0.1364
17902TIP3   OH275120   4.724   5.750  13.651  0.2482  0.4142  0.3663
17902TIP3    H175121   4.801   5.695  13.636  0.9789  1.6999 -0.7035
17902TIP3    H275122   4.758   5.839  13.653 -1.2577  1.0390 -0.5549
17903TIP3   OH275123   6.530   2.951  11.136  0.0847 -0.1070  0.3268
17903TIP3    H175124   6.453   2.964  11.080  0.1941 -0.2750  0.1372
17903TIP3    H275125   6.500   2.974  11.224  0.7285  3.1028 -0.2183
17904TIP3   OH275126   1.497   4.663   4.750 -0.1513  0.4427  0.6680
17904TIP3    H175127   1.445   4.714   4.688 -0.4930 -0.9558 -0.2270
17904TIP3    H275128   1.478   4.572   4.727  2.9856 -0.0969  0.0625
17905TIP3   OH275129   3.830   3.901   2.484 -0.0991 -0.2097 -0.5637
17905TIP3    H175130   3.789   3.987   2.475  2.4050  0.9411 -1.6765
17905TIP3    H275131   3.876   3.905   2.568 -0.0116 -0.4691 -0.5969
17906TIP3   OH275132   4.147   1.375  10.872  0.5007  0.0951  0.5130
17906TIP3    H175133   4.151   1.294  10.923 -1.7707 -0.6961 -0.4771
17906TIP3    H275134   4.122   1.346  10.784 -0.9232  1.9062  0.2885
17907TIP3   OH275135   2.194   0.750  14.324  0.6908 -0.1457  0.0219
17907TIP3    H175136   2.177   0.807  14.399  0.3766  1.5055 -1.2569
17907TIP3    H275137   2.145   0.670  14.342  0.1591  0.4612  1.3065
17908TIP3   OH275138   1.566   6.133  12.158  0.2671  0.1859  0.2926
17908TIP3    H175139   1.566   6.200  12.226  2.4494 -0.7260  1.2451
17908TIP3    H275140   1.479   6.094  12.163 -0.5907  2.0703  0.5760
17909TIP3   OH275141   3.913   4.671   4.312 -0.7923  0.0768  0.1432
17909TIP3    H175142   3.945   4.647   4.399 -0.1330 -0.4013 -0.2202
17909TIP3    H275143   3.918   4.590   4.262 -0.5220  0.5053 -0.5307
17910TIP3   OH275144   1.740   3.324  11.261  0.1708 -0.3334  0.7451
17910TIP3    H175145   1.739   3.344  11.167 -0.5131 -0.4594  0.7256
17910TIP3    H275146   1.769   3.232  11.265 -0.7952 -0.6472  0.5984
17911TIP3   OH275147   5.892   2.866  15.632  0.2007 -0.2071 -0.9063
17911TIP3    H175148   5.927   2.833  15.550  3.0265 -1.2149  0.6418
17911TIP3    H275149   5.934   2.951  15.644 -1.1988  0.5280 -1.1251
17912TIP3   OH275150   5.678   0.411   5.295 -0.0111  0.3027  0.0776
17912TIP3    H175151   5.672   0.502   5.325 -0.3077 -0.2704  1.8306
17912TIP3    H275152   5.594   0.395   5.252  0.5170  1.2150 -1.3474
17913TIP3   OH275153   1.290   2.529  11.980  0.0187  0.5689  0.2234
17913TIP3    H175154   1.383   2.512  11.992  0.1774  1.0702 -0.2646
17913TIP3    H275155   1.247   2.446  12.000  0.6581  0.0194 -0.6642
17914TIP3   OH275156   4.162   0.689   3.738  0.2944  0.1525  0.4346
17914TIP3    H175157   4.101   0.750   3.696 -0.2727  0.4601  1.6796
17914TIP3    H275158   4.169   0.616   3.677 -2.0603 -0.3311  0.7267
17915TIP3   OH275159   0.030   0.010  11.427 -0.6131  0.3056 -0.0653
17915TIP3    H175160   0.052   0.085  11.483  0.0901  0.3923 -0.4508
17915TIP3    H275161  -0.066   0.006  11.428 -0.5786 -2.6073  4.9472
17916TIP3   OH275162   3.799   2.121   5.444  0.0649  0.1489  0.6821
17916TIP3    H175163   3.892   2.129   5.426  0.0851  0.2636  0.8434
17916TIP3    H275164   3.769   2.210   5.460 -0.5023  0.3915 -1.4520
17917TIP3   OH275165   6.642   0.660  12.268  0.5173 -0.3402 -0.3411
17917TIP3    H175166   6.563   0.714  12.270 -0.0349 -1.1472  2.0797
17917TIP3    H275167   6.610   0.570  12.262  1.2333 -0.6577  0.5043
17918TIP3   OH275168   2.956   3.219   0.267  0.1609  0.0165 -0.1606
17918TIP3    H175169   2.902   3.197   0.191  1.0374 -2.7131 -0.0307
17918TIP3    H275170   2.924   3.162   0.337  0.8995  0.8841  0.9177
17919TIP3   OH275171   4.272   0.825  13.920 -0.6349 -0.5666 -0.0415
17919TIP3    H175172   4.289   0.761  13.989 -0.0787 -1.7812 -1.2709
17919TIP3    H275173   4.188   0.864  13.943 -1.3728 -2.3338  0.2829
17920TIP3   OH275174   1.401   0.749  16.707  0.2409  0.4968  0.0623
17920TIP3    H175175   1.435   0.715  16.625  0.0442  1.3612 -0.3841
17920TIP3    H275176   1.308   0.766  16.689  0.3430  1.3019  0.2534
17921TIP3   OH275177   2.431   2.802   2.827  0.6393  0.0350  0.1011
17921TIP3    H175178   2.358   2.794   2.765 -1.1427 -0.4365  2.1922
17921TIP3    H275179   2.433   2.718   2.872  1.1232  0.7853  1.4987
17922TIP3   OH275180   0.413   2.319   0.291  0.1755 -0.7405 -0.0018
17922TIP3    H175181   0.362   2.266   0.352  0.0345 -1.4184 -0.6968
17922TIP3    H275182   0.359   2.323   0.212 -0.1242  1.0245  0.2782
17923TIP3   OH275183   2.370   0.382   4.569  0.1683 -0.6069  0.2815
17923TIP3    H175184   2.369   0.379   4.665 -0.7491  0.9093  0.3274
17923TIP3    H275185   2.379   0.475   4.548 -3.3883 -0.5187 -1.1250
17924TIP3   OH275186   2.648   0.791  16.278 -0.4531  0.2977  0.0434
17924TIP3    H175187   2.553   0.783  16.289 -0.4064  0.2505  0.4168
17924TIP3    H275188   2.674   0.709  16.235 -0.6603  0.5617 -0.6032
17925TIP3   OH275189   0.609   2.691   5.912  0.0101  0.3925 -0.5860
17925TIP3    H175190   0.647   2.719   5.995 -3.6465 -2.8280  2.3640
17925TIP3    H275191   0.544   2.759   5.892 -0.8658 -0.0914  0.5554
17926TIP3   OH275192   5.443   5.343  10.713 -0.8741 -0.1612  0.3890
17926TIP3    H175193   5.401   5.271  10.758  1.8198 -2.1656 -0.2088
17926TIP3    H275194   5.450   5.314  10.622  0.0011  0.9360  0.0870
17927TIP3   OH275195   6.087   4.411   6.001 -0.0279  0.6308 -0.6138
17927TIP3    H175196   6.032   4.430   5.925  0.6689 -2.1940 -1.9217
17927TIP3    H275197   6.038   4.345   6.050  0.8437  0.2828 -0.1982
17928TIP3   OH275198   4.788   5.023  12.777 -0.0216 -0.2774 -0.2936
17928TIP3    H175199   4.765   4.977  12.857  0.6812  0.5515  0.4003
17928TIP3    H275200   4.842   4.960  12.728  2.4227  0.3825  1.4452
17929TIP3   OH275201   3.723   4.420   2.111 -0.1115  0.3992  0.2015
17929TIP3    H175202   3.693   4.392   2.197 -1.9813  0.2983 -0.4600
17929TIP3    H275203   3.792   4.485   2.129 -1.1961  1.1443  1.7741
17930TIP3   OH275204   1.859   4.730  14.351 -0.1852  0.0469  0.6580
17930TIP3    H175205   1.943   4.755  14.390 -0.1789 -0.0391  0.6994
17930TIP3    H275206   1.819   4.673  14.417 -0.8229  1.0822  1.1807
17931TIP3   OH275207   0.104   0.068  15.135 -0.4000 -0.1167 -0.6636
17931TIP3    H175208   0.031   0.041  15.080  0.8586 -0.5201 -2.1686
17931TIP3    H275209   0.076   0.152  15.172 -2.5743 -1.3902  0.6561
17932TIP3   OH275210   1.304   2.378   5.594  0.3062 -0.0116 -0.3028
17932TIP3    H175211   1.366   2.310   5.621  1.4698  1.4288  0.7005
17932TIP3    H275212   1.220   2.350   5.632  0.8205 -0.7745  0.2841
17933TIP3   OH275213   3.852   3.711  14.561  0.0836  0.0093 -0.3620
17933TIP3    H175214   3.895   3.753  14.635  2.8987 -1.2547 -1.1621
17933TIP3    H275215   3.852   3.777  14.492 -0.7598  0.5596  0.1698
17934TIP3   OH275216   3.356   4.017   4.418  0.5877  0.0611 -0.5001
17934TIP3    H175217   3.427   3.972   4.372  2.0263  1.4348  0.3043
17934TIP3    H275218   3.277   3.970   4.393  1.7887 -1.5201 -1.4032
17935TIP3   OH275219   0.050   4.347  14.822  0.3735  0.2114  0.1107
17935TIP3    H175220   0.088   4.402  14.753  0.9048 -2.2153 -1.6243
17935TIP3    H275221   0.076   4.258  14.798 -2.0879 -1.0019  1.7565
17936TIP3   OH275222   4.036   2.271  13.786 -0.1960  0.4720  0.5138
17936TIP3    H175223   4.068   2.201  13.729 -0.9759  0.9958 -0.5756
17936TIP3    H275224   4.004   2.225  13.864 -1.2668 -0.4460 -0.4439
17937TIP3   OH275225   0.673   4.293   2.827 -0.2993 -0.4046  0.0119
17937TIP3    H175226   0.680   4.368   2.769 -1.0442  0.9854  1.6777
17937TIP3    H275227   0.731   4.314   2.900 -0.2670 -1.5916  0.3390
17938TIP3   OH275228   2.483   2.977  14.891  0.2914 -0.6060  0.2215
17938TIP3    H175229   2.508   2.956  14.802 -0.2416 -2.8140  0.5671
17938TIP3    H275230   2.467   3.071  14.890  5.0168  0.3116 -0.8638
17939TIP3   OH275231   1.725   6.523  15.939 -0.1396 -0.1733  0.3559
17939TIP3    H175232   1.750   6.614  15.957  1.2887 -0.5595  0.3644
17939TIP3    H275233   1.631   6.527  15.924  0.0178  1.4263 -0.3277
17940TIP3   OH275234   6.243   3.824  11.773 -0.0332 -0.0460  0.2170
17940TIP3    H175235   6.264   3.890  11.838 -1.0306  0.9182 -0.4198
17940TIP3    H275236   6.147   3.822  11.771 -0.0620 -2.9230  1.6392
17941TIP3   OH275237   3.214   4.769  11.939  0.4137  0.3540  0.3634
17941TIP3    H175238   3.159   4.846  11.924 -0.8323 -0.4422  0.7218
17941TIP3    H275239   3.295   4.803  11.976  0.9588  1.7419 -2.0032
17942TIP3   OH275240   4.595   1.773   4.676 -0.0682 -0.0814  0.1241
17942TIP3    H175241   4.682   1.740   4.698 -0.5936 -1.0146  0.8273
17942TIP3    H275242   4.588   1.855   4.726  0.5032  0.1244 -0.1307
17943TIP3   OH275243   5.287   6.591   1.476 -1.1466  0.5545 -0.0671
17943TIP3    H175244   5.298   6.568   1.384  0.4872 -0.8577  0.4492
17943TIP3    H275245   5.251   6.679   1.475 -0.5486  0.7895 -2.0537
17944TIP3   OH275246   6.775   2.076  13.428 -0.9005  0.3745 -0.2519
17944TIP3    H175247   6.753   1.993  13.385 -1.7087  0.1045  0.6588
17944TIP3    H275248   6.723   2.076  13.508  0.8300  0.7338  0.8889
17945TIP3   OH275249   4.382   3.969  11.634  0.2130  0.4153  0.1334
17945TIP3    H175250   4.312   3.911  11.664 -1.0370  0.5830 -2.2852
17945TIP3    H275251   4.462   3.916  11.640 -0.6091 -0.8545 -0.1034
17946TIP3   OH275252   0.806   5.933  12.550  0.5523  0.1275  0.3852
17946TIP3    H175253   0.747   5.951  12.624 -0.7507 -1.9510 -0.1087
17946TIP3    H275254   0.749   5.937  12.473  0.9192 -2.4528 -0.0530
17947TIP3   OH275255   0.364   3.626  16.094  0.1346  0.7704  0.3509
17947TIP3    H175256   0.366   3.721  16.110 -3.2595  1.0344 -0.4730
17947TIP3    H275257   0.384   3.617  16.001  2.5282  0.4845  0.8608
17948TIP3   OH275258   6.407   5.269  11.047  0.8815  0.2499 -1.3970
17948TIP3    H175259   6.491   5.228  11.068 -0.3815 -2.1486 -0.8433
17948TIP3    H275260   6.391   5.246  10.955  1.4428  1.8484 -1.9101
17949TIP3   OH275261   5.755   0.121  16.328 -0.3824 -0.1270 -0.1708
17949TIP3    H175262   5.829   0.172  16.362 -0.0131  0.0027 -1.1469
17949TIP3    H275263   5.766   0.034  16.367 -0.8665  0.4499  1.2879
17950TIP3   OH275264   3.561   6.231   1.818 -0.6406  0.0572 -0.1664
17950TIP3    H175265   3.565   6.201   1.909 -0.3506  0.5794 -0.0044
17950TIP3    H275266   3.561   6.151   1.766  1.2182 -0.2268  0.2262
17951TIP3   OH275267   6.005   5.226  10.796 -0.3037  0.0152 -0.5974
17951TIP3    H175268   5.996   5.191  10.885  0.9975 -0.9470 -0.8232
17951TIP3    H275269   6.073   5.171  10.756  0.1256  1.3486 -1.7252
17952TIP3   OH275270   2.357   5.284  16.498 -0.1927  0.2430  0.4423
17952TIP3    H175271   2.349   5.318  16.587 -1.1881 -0.7319  0.7368
17952TIP3    H275272   2.424   5.338  16.457 -0.6123  1.5095  1.3969
17953TIP3   OH275273   0.957   5.833  13.387  0.2693 -0.4602 -1.0009
17953TIP3    H175274   0.895   5.765  13.361 -1.7537  0.9055  0.1257
17953TIP3    H275275   1.031   5.785  13.423 -0.2298 -2.1191 -2.1144
17954TIP3   OH275276   3.671   4.304  12.055 -0.2789 -0.3359 -0.2956
17954TIP3    H175277   3.745   4.340  12.006  0.0641 -2.0764 -1.0895
17954TIP3    H275278   3.598   4.362  12.032  0.1940 -0.3009 -1.7858
17955TIP3   OH275279   1.157   6.620  11.902 -0.2239 -0.1302  0.6971
17955TIP3    H175280   1.239   6.645  11.860 -0.5506 -1.8043 -1.0504
17955TIP3    H275281   1.092   6.679  11.864 -0.4163 -1.2451 -0.7581
17956TIP3   OH275282   0.713   0.388   5.135 -0.5812  0.3993  0.1201
17956TIP3    H175283   0.756   0.403   5.051  0.0285  1.6152  0.6262
17956TIP3    H275284   0.682   0.298   5.131  1.5086 -0.3116 -0.4954
17957TIP3   OH275285   5.411   4.655  13.386  0.6213  0.3117 -0.7502
17957TIP3    H175286   5.438   4.639  13.476  1.3210 -0.0258 -1.0182
17957TIP3    H275287   5.353   4.732  13.392 -0.6623 -0.7086  0.1826
17958TIP3   OH275288   4.434   0.428   4.304  0.3232 -0.4257  0.2392
17958TIP3    H175289   4.386   0.484   4.364 -1.5477 -0.4173 -1.2269
17958TIP3    H275290   4.441   0.479   4.223  0.1705 -1.6004 -0.5329
17959TIP3   OH275291   5.792   2.613  16.435  0.6399 -0.1680  0.3059
17959TIP3    H175292   5.815   2.598  16.343  2.6750  0.5018  0.6699
17959TIP3    H275293   5.755   2.701  16.437 -0.5843 -0.6708 -0.0630
17960TIP3   OH275294   5.038   5.246   0.836 -0.3252 -0.6594 -0.4758
17960TIP3    H175295   5.004   5.192   0.765 -0.4964  0.3190 -1.1505
17960TIP3    H275296   5.081   5.319   0.792 -0.5826  0.0434  0.4339
17961TIP3   OH275297   2.545   0.287   2.070 -0.3023  0.2327 -0.3623
17961TIP3    H175298   2.477   0.355   2.064 -1.1116 -0.4965  0.4170
17961TIP3    H275299   2.611   0.314   2.007 -0.4011  2.0089  0.2466
17962TIP3   OH275300   1.945   5.672   3.534  0.2632  0.0152  0.4087
17962TIP3    H175301   1.921   5.587   3.498 -0.8387  0.8996 -1.0394
17962TIP3    H275302   1.925   5.666   3.627 -1.0458 -0.8816  0.0854
17963TIP3   OH275303   0.636   3.248  16.288  0.6480  0.0304 -0.2363
17963TIP3    H175304   0.577   3.175  16.271  0.7300  0.3472 -1.9378
17963TIP3    H275305   0.592   3.299  16.356 -0.6530 -0.1865 -0.9051
17964TIP3   OH275306   6.180   6.225  12.121 -0.4168  0.0609 -0.4444
17964TIP3    H175307   6.268   6.204  12.087  0.1133  1.4152  0.0574
17964TIP3    H275308   6.140   6.140  12.136  1.3060 -0.6034  0.5780
17965TIP3   OH275309   4.543   1.990  11.894 -0.5056 -0.0538 -0.0314
17965TIP3    H175310   4.577   2.067  11.939  2.9642  0.6251 -3.5388
17965TIP3    H275311   4.603   1.919  11.918 -0.9206 -0.5675 -0.4864
17966TIP3   OH275312   4.688   1.615  11.471 -0.2919  0.1872 -0.2656
17966TIP3    H175313   4.672   1.608  11.565  0.7228  1.3280  0.0025
17966TIP3    H275314   4.600   1.617  11.432 -0.7178 -0.2982  0.6461
17967TIP3   OH275315   0.659   4.654   5.448  0.4150  0.0166 -0.0418
17967TIP3    H175316   0.740   4.669   5.497  0.8487  0.5523 -0.9111
17967TIP3    H275317   0.672   4.569   5.405  0.8970  0.5329 -0.9259
17968TIP3   OH275318   0.787   1.349   1.866 -0.2603  0.0335 -0.1657
17968TIP3    H175319   0.779   1.257   1.891 -0.3931 -0.1471 -0.8820
17968TIP3    H275320   0.697   1.380   1.858 -0.2193  0.3427  0.4793
17969TIP3   OH275321   4.619   1.940   5.539 -0.5311  0.2398 -0.2006
17969TIP3    H175322   4.674   1.906   5.609 -0.6770  2.0675  0.8406
17969TIP3    H275323   4.676   1.938   5.461  0.3633  0.2625  0.4395
17970TIP3   OH275324   0.333   4.153   3.592  0.3493  0.0904 -0.7391
17970TIP3    H175325   0.263   4.156   3.527 -0.0025 -1.3120 -0.4411
17970TIP3    H275326   0.288   4.165   3.676  0.4892 -0.4940 -0.5752
17971TIP3   OH275327   4.966   6.000  15.329  0.1614 -0.3375 -0.2167
17971TIP3    H175328   4.947   6.040  15.244 -0.5578 -0.9347 -0.3451
17971TIP3    H275329   4.999   6.072  15.382 -1.7265  0.5911 -0.2419
17972TIP3   OH275330   1.300   5.165   2.450  0.0393  0.1908  0.2250
17972TIP3    H175331   1.224   5.172   2.507 -0.7127  1.2053 -0.8864
17972TIP3    H275332   1.278   5.095   2.389 -0.0361  0.5327 -0.1420
17973TIP3   OH275333   6.608   2.556  11.748 -0.1424  0.0228  0.5084
17973TIP3    H175334   6.655   2.639  11.740  1.0073 -0.6572  0.0594
17973TIP3    H275335   6.569   2.559  11.836  2.7799 -0.4016  1.8951
17974TIP3   OH275336   2.619   0.125  16.521 -0.6447 -0.4440  0.6927
17974TIP3    H175337   2.630   0.089  16.433  0.0701  0.0533  0.5754
17974TIP3    H275338   2.560   0.063  16.565  0.0991 -1.4360  0.2998
17975TIP3   OH275339   2.462   2.267  12.334  0.1524 -0.1026 -0.1344
17975TIP3    H175340   2.497   2.353  12.356  2.5469 -0.6479 -1.5819
17975TIP3    H275341   2.477   2.258  12.240 -0.5191 -1.9016 -0.0952
17976TIP3   OH275342   0.491   5.171   4.145 -0.2982 -0.4178 -0.0715
17976TIP3    H175343   0.532   5.086   4.134  1.9060  0.5779  0.1267
17976TIP3    H275344   0.480   5.181   4.239 -0.5700 -0.4934 -0.0962
17977TIP3   OH275345   5.105   3.612   5.000  0.1741  0.0329  0.1867
17977TIP3    H175346   5.096   3.518   5.017 -0.8325  0.1889  0.6123
17977TIP3    H275347   5.117   3.619   4.906 -1.1674 -0.4549 -0.0409
17978TIP3   OH275348   1.821   4.663  14.102  0.2973 -0.2687  0.2029
17978TIP3    H175349   1.907   4.668  14.062  0.8014  0.5320  1.3460
17978TIP3    H275350   1.830   4.712  14.184 -1.5213  0.7169 -0.1671
17979TIP3   OH275351   0.356   0.815   5.366  0.2250  0.3869  0.0010
17979TIP3    H175352   0.451   0.822   5.353  0.3317  1.7233  1.4157
17979TIP3    H275353   0.319   0.842   5.281  1.0922  0.5813 -0.3286
17980TIP3   OH275354   3.232   1.011   3.683  0.6998 -0.9004  0.3390
17980TIP3    H175355   3.306   0.959   3.650  1.2785 -1.4016  2.3331
17980TIP3    H275356   3.274   1.086   3.725 -0.0257 -0.2914 -0.0192
17981TIP3   OH275357   3.241   1.307  13.493  0.3516  0.0145  0.2830
17981TIP3    H175358   3.324   1.268  13.465  1.1443  1.0157  1.2148
17981TIP3    H275359   3.174   1.257  13.445  1.5056 -0.4585 -0.8645
17982TIP3   OH275360   1.078   6.031   2.919 -0.3782  0.1901 -0.2976
17982TIP3    H175361   1.126   5.969   2.863 -1.6837 -2.6540  1.6186
17982TIP3    H275362   1.127   6.113   2.910  2.2601 -1.4473 -1.8245
17983TIP3   OH275363   0.473   1.736   0.439 -0.1496 -0.0952  0.6186
17983TIP3    H175364   0.382   1.708   0.448 -0.3809  0.2642 -0.4749
17983TIP3    H275365   0.467   1.829   0.418  0.5542  0.3950  2.5027
17984TIP3   OH275366   3.877   1.692   4.735 -0.4696 -0.6604  0.9429
17984TIP3    H175367   3.925   1.680   4.653 -0.4110 -1.5552  1.1032
17984TIP3    H275368   3.945   1.709   4.801 -0.6078  1.3153  0.5752
17985TIP3   OH275369   0.348   3.991  14.775 -0.2320  0.1439 -0.2740
17985TIP3    H175370   0.375   4.083  14.781  0.1219  0.1420 -1.6012
17985TIP3    H275371   0.431   3.942  14.771 -0.4154 -0.1576 -0.4253
17986TIP3   OH275372   1.549   3.369  14.038 -0.5415 -0.0369  0.3867
17986TIP3    H175373   1.564   3.459  14.067  1.4728  0.1111 -0.9818
17986TIP3    H275374   1.630   3.323  14.059 -0.5670 -0.8742 -1.2399
17987TIP3   OH275375   3.423   2.196   0.039 -0.0863  0.1089 -0.2522
17987TIP3    H175376   3.390   2.115   0.001  0.3691 -1.6998  3.0093
17987TIP3    H275377   3.344   2.244   0.065 -0.3282  0.0002 -0.7801
17988TIP3   OH275378   4.921   5.127   1.732  0.2698  0.5346 -0.4278
17988TIP3    H175379   4.995   5.066   1.732 -1.2011 -1.2941  0.2570
17988TIP3    H275380   4.884   5.119   1.644 -1.3079 -1.2905  0.3948
17989TIP3   OH275381   2.216   4.454   2.919  0.0329 -0.0280  0.0662
17989TIP3    H175382   2.239   4.477   2.829  1.7533 -0.7625  0.2905
17989TIP3    H275383   2.236   4.532   2.970  2.5341 -0.8136  0.3252
17990TIP3   OH275384   0.549   2.340  13.936  0.2591  0.2723  0.0282
17990TIP3    H175385   0.628   2.321  13.887 -0.0862  0.3219 -0.5448
17990TIP3    H275386   0.544   2.436  13.937  0.0970  0.2656 -0.1114
17991TIP3   OH275387   3.327   2.452   2.670  0.3276 -0.1480  0.2776
17991TIP3    H175388   3.394   2.513   2.639  0.7629  0.1424  1.7661
17991TIP3    H275389   3.332   2.457   2.765  0.4181 -2.5542  0.4424
17992TIP3   OH275390   2.719   3.522   5.031 -0.4831  0.7231  0.1908
17992TIP3    H175391   2.731   3.565   4.947 -1.9448  0.6324 -0.0820
17992TIP3    H275392   2.727   3.429   5.013 -0.6395  0.7123  0.1729
17993TIP3   OH275393   0.156   6.454   2.490 -0.4131 -0.9363 -0.1786
17993TIP3    H175394   0.182   6.394   2.560 -1.1450 -1.1122 -0.0539
17993TIP3    H275395   0.196   6.416   2.411  1.1757 -0.2367  0.2665
17994TIP3   OH275396   5.492   5.236  13.305 -0.5732 -0.2058  0.0251
17994TIP3    H175397   5.569   5.230  13.361  0.6821  0.4289 -1.5637
17994TIP3    H275398   5.427   5.178  13.345  0.9356 -1.2003  1.0628
17995TIP3   OH275399   1.107   1.757   2.378 -0.2562  0.2113 -0.1172
17995TIP3    H175400   1.028   1.714   2.347  0.9942 -2.1133 -0.2320
17995TIP3    H275401   1.137   1.810   2.304 -0.4963 -0.6498 -0.8351
17996TIP3   OH275402   3.685   6.207  17.083 -0.1096  0.0982  0.3393
17996TIP3    H175403   3.687   6.188  17.177 -0.5032 -0.2492  0.2728
17996TIP3    H275404   3.664   6.301  17.079  1.3765  0.4608  0.6326
17997TIP3   OH275405   5.381   2.070   4.513  0.2405 -0.4328 -0.1387
17997TIP3    H175406   5.321   2.053   4.587  0.2857  0.4573  0.1030
17997TIP3    H275407   5.392   2.165   4.513  1.9980 -0.6253  0.0789
17998TIP3   OH275408   5.419   2.635   4.129 -0.0474  0.1355  0.0827
17998TIP3    H175409   5.495   2.689   4.110  0.0619  0.0229  0.2010
17998TIP3    H275410   5.452   2.564   4.184 -0.2731  0.1960  0.3008
17999TIP3   OH275411   0.410   3.999   5.113  0.0885  0.5546  0.1540
17999TIP3    H175412   0.383   3.988   5.022  1.1369  1.3224 -0.2693
17999TIP3    H275413   0.349   4.064   5.149 -0.3954  0.1673  0.0254
18000TIP3   OH275414   5.188   3.278  15.241  0.4719 -0.2523  0.0224
18000TIP3    H175415   5.164   3.317  15.157  0.5643  0.3036  0.2484
18000TIP3    H275416   5.220   3.191  15.219 -1.7804 -1.0267 -0.2922
18001TIP3   OH275417   6.044   3.376  14.644  0.3120  0.2556  0.2073
18001TIP3    H175418   6.066   3.302  14.702 -1.1672 -0.1057  0.3297
18001TIP3    H275419   5.957   3.403  14.672  1.1573  2.5642  0.6533
18002TIP3   OH275420   5.164   5.700  15.666  0.1505  0.0776 -1.1770
18002TIP3    H175421   5.069   5.702  15.652  0.0105  1.4218 -0.0769
18002TIP3    H275422   5.189   5.611  15.642 -1.6561 -0.8242  0.0856
18003TIP3   OH275423   1.470   5.294  10.884  0.4747  0.1643 -0.0537
18003TIP3    H175424   1.488   5.357  10.815  0.0971 -0.8647 -1.1181
18003TIP3    H275425   1.429   5.220  10.839 -0.1296 -0.3664  1.3259
18004TIP3   OH275426   5.323   4.289  11.480  0.4963  0.2720 -0.5274
18004TIP3    H175427   5.273   4.284  11.562  1.7446 -0.2597  0.2171
18004TIP3    H275428   5.256   4.302  11.413 -0.4804  1.6309  0.6642
18005TIP3   OH275429   6.770   1.941  12.467  0.0117  0.4276  0.3837
18005TIP3    H175430   6.827   1.871  12.499 -1.0938 -0.6709  0.0074
18005TIP3    H275431   6.735   1.907  12.384  2.3812  2.9696 -1.7578
18006TIP3   OH275432   5.102   0.149  15.632  0.5560  0.6976  0.0250
18006TIP3    H175433   5.044   0.102  15.572  3.2445 -1.4248 -1.0405
18006TIP3    H275434   5.084   0.110  15.718  0.2224  0.2254 -0.2522
18007TIP3   OH275435   5.888   4.926  14.268  0.4183  0.2029 -0.3767
18007TIP3    H175436   5.936   4.848  14.239  1.1109  0.7331 -0.6622
18007TIP3    H275437   5.796   4.903  14.254  0.5160 -1.1458  0.9802
18008TIP3   OH275438   6.235   2.498   5.261 -0.0622 -0.3166 -0.4505
18008TIP3    H175439   6.287   2.460   5.190  0.6550 -1.8670  0.8857
18008TIP3    H275440   6.287   2.482   5.340 -1.9802 -0.7464  0.7450
18009TIP3   OH275441   1.960   2.121   4.950 -0.0110 -0.3651  0.0076
18009TIP3    H175442   2.012   2.156   5.022 -0.1088  0.5222 -0.3461
18009TIP3    H275443   2.024   2.098   4.882  0.0445 -0.7724  0.1964
18010TIP3   OH275444   0.665   4.792  15.326 -0.7624  0.2726  0.3252
18010TIP3    H175445   0.685   4.813  15.417  2.7305  0.0363 -0.3204
18010TIP3    H275446   0.716   4.855  15.275 -0.3110 -1.5047 -1.4847
18011TIP3   OH275447   1.794   2.924   2.582 -0.5509  0.0320  0.3510
18011TIP3    H175448   1.767   2.938   2.673  0.5588  0.4660  0.6217
18011TIP3    H275449   1.882   2.962   2.577 -0.7067  0.2472 -0.9707
18012TIP3   OH275450   2.286   0.968   2.714  0.7964  0.2914 -0.3848
18012TIP3    H175451   2.272   0.874   2.706  2.5197  0.1551 -2.2576
18012TIP3    H275452   2.263   1.003   2.628  0.1904  1.6073  0.2845
18013TIP3   OH275453   1.810   3.738  11.432  0.4056  0.2642  0.1998
18013TIP3    H175454   1.788   3.674  11.365  0.1445 -0.8317  1.3217
18013TIP3    H275455   1.892   3.777  11.402  0.7210 -0.8024 -0.3351
18014TIP3   OH275456   1.700   2.660   4.059 -0.1072 -0.2449 -0.0694
18014TIP3    H175457   1.640   2.642   4.132  0.0735 -2.2310 -0.3769
18014TIP3    H275458   1.654   2.626   3.982 -0.7692  2.8049 -1.0670
18015TIP3   OH275459   4.037   4.074  12.888 -0.1733 -0.5314  0.5441
18015TIP3    H175460   4.073   4.044  12.971 -2.1349 -0.9301  1.2669
18015TIP3    H275461   3.943   4.060  12.895 -0.4978  0.4391 -1.3293
18016TIP3   OH275462   2.802   6.608  13.759  0.4873  0.5315  0.5426
18016TIP3    H175463   2.804   6.531  13.702  0.7199  0.1767  1.0209
18016TIP3    H275464   2.866   6.669  13.720  3.2786 -1.1078  2.3288
18017TIP3   OH275465   1.476   2.019  13.532  0.1639 -1.1516  0.2821
18017TIP3    H175466   1.566   2.033  13.562  0.3439  0.8146 -1.0857
18017TIP3    H275467   1.426   2.003  13.612  1.3294  0.0559  1.2721
18018TIP3   OH275468   0.112   0.885   5.156  0.5137  0.2338 -0.0649
18018TIP3    H175469   0.079   0.925   5.237 -1.6975  0.8914 -1.2420
18018TIP3    H275470   0.085   0.945   5.087 -1.7837 -2.6134 -1.7631
18019TIP3   OH275471   0.097   5.098  12.882  0.0912 -0.4158 -0.6661
18019TIP3    H175472   0.042   5.164  12.924  1.6501  1.1342 -0.9557
18019TIP3    H275473   0.058   5.085  12.796  1.0181  1.8592 -1.4851
18020TIP3   OH275474   4.317   1.095   4.566 -0.4898 -0.2422 -0.1041
18020TIP3    H175475   4.286   1.163   4.507 -3.7295 -2.1176 -0.7040
18020TIP3    H275476   4.304   1.132   4.654 -0.7919  0.5162 -0.4637
18021TIP3   OH275477   4.104   4.629   6.133  0.0565  0.5361 -0.8559
18021TIP3    H175478   4.172   4.608   6.198 -1.5134 -0.9479  0.3827
18021TIP3    H275479   4.047   4.691   6.178 -1.2379 -0.7691 -0.6525
18022TIP3   OH275480   1.535   1.686   4.914  0.0426  0.3227 -0.2210
18022TIP3    H175481   1.506   1.595   4.921 -0.6058  0.5851  0.5705
18022TIP3    H275482   1.459   1.737   4.942  0.3776  1.1108 -0.7452
18023TIP3   OH275483   5.811   1.784  14.073  0.0432  0.5588  0.0785
18023TIP3    H175484   5.748   1.746  14.135  0.1885 -1.9808 -1.2379
18023TIP3    H275485   5.878   1.824  14.128 -0.4990 -0.5024  1.5441
18024TIP3   OH275486   5.207   4.861   5.446  0.1653 -0.6399  0.0133
18024TIP3    H175487   5.222   4.889   5.355  2.1048 -1.0894  0.1779
18024TIP3    H275488   5.186   4.768   5.439  1.0932 -0.8579  0.0827
18025TIP3   OH275489   5.767   3.459  12.187 -0.2530  0.1431  0.4383
18025TIP3    H175490   5.846   3.505  12.214  0.6742  0.3441 -2.4486
18025TIP3    H275491   5.697   3.524  12.195 -0.1376  0.0040  2.8747
18026TIP3   OH275492   3.126   3.345  15.655  0.4271  0.1927  0.2436
18026TIP3    H175493   3.210   3.303  15.670 -1.2562 -2.1686  3.8110
18026TIP3    H275494   3.064   3.272  15.642 -1.2059  1.8455 -1.7130
18027TIP3   OH275495   4.562   6.656   0.789 -0.3597  0.1873  0.0168
18027TIP3    H175496   4.602   6.652   0.876 -2.4734 -1.3806  0.9552
18027TIP3    H275497   4.560   6.749   0.768 -1.3666  0.7282  2.3861
18028TIP3   OH275498   4.551   6.536  12.757 -0.4836 -0.0709  0.6777
18028TIP3    H175499   4.525   6.455  12.714 -0.7791  0.1382  0.4623
18028TIP3    H275500   4.490   6.544  12.831 -0.3396 -0.1387  0.8044
18029TIP3   OH275501   5.586   4.313  16.116 -0.0783 -0.4968  0.0705
18029TIP3    H175502   5.501   4.344  16.087 -0.4631  0.3025  2.0028
18029TIP3    H275503   5.582   4.317  16.212  1.8825 -1.1074  0.1997
18030TIP3   OH275504   1.357   3.097  12.996 -0.1115 -0.2919  0.1703
18030TIP3    H175505   1.271   3.128  13.023 -0.3651  0.2760 -1.2706
18030TIP3    H275506   1.392   3.166  12.940  0.8652 -0.9630 -0.0709
18031TIP3   OH275507   2.030   1.632  12.954 -0.4980  0.2361 -0.0210
18031TIP3    H175508   1.977   1.676  13.021 -0.7310  0.7386 -0.5320
18031TIP3    H275509   1.972   1.565  12.918  0.0786 -0.9530  1.2249
18032TIP3   OH275510   5.767   0.518  17.224  0.0891 -0.4753 -0.1839
18032TIP3    H175511   5.829   0.547  17.156  0.3341 -2.8838 -1.0474
18032TIP3    H275512   5.791   0.568  17.301 -0.1221  2.2646 -1.8451
18033TIP3   OH275513   2.637   1.209   3.263  0.2403  0.0710  0.7554
18033TIP3    H175514   2.611   1.235   3.174 -0.4521  2.6989  1.6963
18033TIP3    H275515   2.565   1.155   3.294 -0.9428  1.6809  0.8328
18034TIP3   OH275516   3.882   6.718  15.823 -0.1557  0.4285  0.1965
18034TIP3    H175517   3.930   6.679  15.896  1.6636  2.5701  0.2200
18034TIP3    H275518   3.951   6.748  15.763 -1.4954  2.4219 -0.3965
18035TIP3   OH275519   1.987   4.860   0.599  0.2451 -1.1942 -0.3266
18035TIP3    H175520   1.989   4.829   0.689 -0.7261 -1.3594 -0.3617
18035TIP3    H275521   1.945   4.789   0.550 -0.1152 -0.6892 -0.7477
18036TIP3   OH275522   6.050   0.053  14.785 -0.1554 -0.3555  0.4098
18036TIP3    H175523   6.078  -0.033  14.755  1.2799  0.2711 -0.1060
18036TIP3    H275524   5.961   0.040  14.816 -0.3923 -1.7658 -0.8159
18037TIP3   OH275525   3.055   1.673   5.885 -0.1007 -0.0312 -0.3503
18037TIP3    H175526   2.980   1.665   5.944  0.8941  0.2956  0.9585
18037TIP3    H275527   3.021   1.723   5.811 -1.1436  0.2364  0.2998
18038TIP3   OH275528   1.239   0.510   0.416  0.4309  0.6069 -0.2701
18038TIP3    H175529   1.147   0.485   0.422  0.4623  0.4844 -0.3162
18038TIP3    H275530   1.249   0.540   0.326 -0.6289  4.6900  0.8576
18039TIP3   OH275531   2.801   3.000   0.218  0.1958  0.3023 -0.0595
18039TIP3    H175532   2.798   2.990   0.122 -1.7560  2.6787 -0.2685
18039TIP3    H275533   2.733   2.940   0.250  1.5900 -1.3106 -0.0673
18040TIP3   OH275534   5.928   1.491  11.167 -0.5261 -0.1889  0.1825
18040TIP3    H175535   5.880   1.408  11.167  1.1362 -1.1828  0.7531
18040TIP3    H275536   6.013   1.469  11.204  0.0636  1.7176  0.0134
18041TIP3   OH275537   1.137   2.648  15.363 -0.3435 -0.2757 -0.4632
18041TIP3    H175538   1.146   2.738  15.332  0.4945  0.0260  0.6645
18041TIP3    H275539   1.070   2.652  15.431 -0.3946 -0.5356 -0.4970
18042TIP3   OH275540   4.111   1.102   3.477 -0.0537  0.0741 -0.7662
18042TIP3    H175541   4.075   1.170   3.534 -1.1552  0.2039 -1.6017
18042TIP3    H275542   4.104   1.139   3.389 -2.6065 -1.9195 -1.4658
18043TIP3   OH275543   5.042   1.334   2.318  0.5052  0.1308 -0.1723
18043TIP3    H175544   4.985   1.261   2.295 -0.1614  1.2766 -2.3070
18043TIP3    H275545   4.989   1.412   2.301  2.1322  1.1767 -0.5404
18044TIP3   OH275546   2.579   0.697  12.657 -0.3069  0.3029  0.0953
18044TIP3    H175547   2.491   0.727  12.634 -0.9037  0.2610  2.2002
18044TIP3    H275548   2.592   0.617  12.605 -0.1349  2.1252 -2.8091
18045TIP3   OH275549   2.678   0.644   1.235 -0.3815 -0.1737 -0.1012
18045TIP3    H175550   2.748   0.696   1.198 -0.2881 -0.7965 -0.8071
18045TIP3    H275551   2.708   0.622   1.323  2.1280 -3.7524 -1.7194
18046TIP3   OH275552   0.093   5.327  14.569 -0.6313 -0.0947  0.2805
18046TIP3    H175553   0.187   5.328  14.552 -0.7388  0.0109 -0.3055
18046TIP3    H275554   0.078   5.406  14.622 -0.5391  0.4164 -0.4435
18047TIP3   OH275555   0.623   6.314  12.348 -0.1246  0.1074 -0.0327
18047TIP3    H175556   0.576   6.368  12.412  3.1180  1.2826  1.4492
18047TIP3    H275557   0.608   6.224  12.377 -1.0913  0.4836  0.6540
18048TIP3   OH275558   5.755   1.857  12.438  0.1190 -0.3037 -0.2374
18048TIP3    H175559   5.774   1.797  12.509  2.0393  1.9900  1.2807
18048TIP3    H275560   5.817   1.832  12.369  0.2669 -0.6625  0.0224
18049TIP3   OH275561   4.099   4.484  11.812  0.0881 -0.4297 -0.3617
18049TIP3    H175562   4.185   4.525  11.804 -0.6952  1.3633  0.2791
18049TIP3    H275563   4.082   4.447  11.725  2.2401 -2.3183 -0.0155
18050TIP3   OH275564   2.673   4.652  12.379 -0.1926 -0.0381 -0.0061
18050TIP3    H175565   2.758   4.661  12.336 -0.4730 -0.6736 -0.6938
18050TIP3    H275566   2.652   4.741  12.408  0.1932  0.3209 -0.8146
18051TIP3   OH275567   5.959   3.890  11.785  0.9890  0.5271  0.8318
18051TIP3    H175568   5.927   3.838  11.858  0.1480 -0.4465 -0.2083
18051TIP3    H275569   5.962   3.980  11.819 -1.6778  0.4605  1.3548
18052TIP3   OH275570   0.398   6.725  12.111  0.6572  0.4323 -0.1254
18052TIP3    H175571   0.331   6.712  12.045 -0.2035  0.5417  0.7251
18052TIP3    H275572   0.416   6.638  12.146 -0.0705  0.5743  0.6359
18053TIP3   OH275573   2.453   4.754  14.349  0.1327  0.4221  0.2091
18053TIP3    H175574   2.447   4.849  14.345  0.2257  0.3903 -0.6288
18053TIP3    H275575   2.499   4.736  14.431 -0.7429  1.0626  0.8563
18054TIP3   OH275576   1.194   3.574   1.500 -0.0158  0.1688 -0.0275
18054TIP3    H175577   1.249   3.496   1.494 -0.5320 -0.2667  0.8300
18054TIP3    H275578   1.166   3.590   1.409  0.4397 -0.3846 -0.2684
18055TIP3   OH275579   4.178   4.988   2.175 -0.2180  0.8110  0.2031
18055TIP3    H175580   4.198   5.079   2.155  0.0529  0.8648  0.7444
18055TIP3    H275581   4.239   4.938   2.121 -0.1017  0.9484  0.2076
18056TIP3   OH275582   4.247   3.190   1.460  0.2555  0.5716  0.2410
18056TIP3    H175583   4.154   3.165   1.460  0.8894 -1.9854  2.9563
18056TIP3    H275584   4.262   3.225   1.372 -2.5437 -1.7759 -1.2428
18057TIP3   OH275585   5.147   5.394  10.479 -0.2342  0.6510 -0.5484
18057TIP3    H175586   5.212   5.329  10.504  1.0670  1.2404 -2.2960
18057TIP3    H275587   5.194   5.477  10.478 -1.0322  1.1137 -1.6935
18058TIP3   OH275588   5.400   1.622  13.892  0.3413  0.1932 -0.3812
18058TIP3    H175589   5.414   1.637  13.798  0.6122  0.9980 -0.2149
18058TIP3    H275590   5.462   1.680  13.935  0.3021 -0.2595  0.3054
18059TIP3   OH275591   4.368   6.102   2.071  0.1897  0.1166 -0.0179
18059TIP3    H175592   4.405   6.031   2.124  0.1153  0.3463  0.3364
18059TIP3    H275593   4.286   6.066   2.038  0.7446 -0.4165 -0.8490
18060TIP3   OH275594   5.477   6.139  14.756 -0.2088 -0.0917  0.3371
18060TIP3    H175595   5.479   6.048  14.726  0.6784 -0.1161  0.4353
18060TIP3    H275596   5.397   6.175  14.718  0.3389 -0.4241 -1.2046
18061TIP3   OH275597   3.213   6.120   4.775 -0.1796  0.2789  0.8555
18061TIP3    H175598   3.139   6.139   4.833 -2.3198 -0.7871 -1.4371
18061TIP3    H275599   3.195   6.033   4.740  2.4508 -0.2237  0.6342
18062TIP3   OH275600   0.741   0.664  12.771 -0.7174 -0.5167  0.0445
18062TIP3    H175601   0.781   0.577  12.770  0.1913 -0.1170 -2.4264
18062TIP3    H275602   0.705   0.674  12.683 -0.8344  1.5929  0.3187
18063TIP3   OH275603   3.135   6.485  12.715  0.5507 -0.2187  0.2245
18063TIP3    H175604   3.094   6.468  12.800  0.7464 -0.6939  0.2269
18063TIP3    H275605   3.139   6.399  12.673 -0.8799  0.2306 -0.8744
18064TIP3   OH275606   6.261   5.792   4.909 -0.0565  0.0395  0.7130
18064TIP3    H175607   6.173   5.811   4.942 -0.6707  0.1512 -0.9452
18064TIP3    H275608   6.288   5.714   4.958 -0.8523  0.3169  1.6172
18065TIP3   OH275609   5.912   2.359   3.922  0.4822 -0.5400 -0.2734
18065TIP3    H175610   5.907   2.272   3.960  0.3044 -0.6905 -0.6505
18065TIP3    H275611   5.894   2.418   3.996  0.5867 -0.8181 -0.0236
18066TIP3   OH275612   2.895   0.231  13.578 -0.1201  0.3752 -0.0380
18066TIP3    H175613   2.924   0.261  13.664  0.4445  1.2619 -0.5303
18066TIP3    H275614   2.802   0.253  13.574 -0.7852 -2.0029  1.3436
18067TIP3   OH275615   0.231   4.406  15.250 -0.0369 -0.0167 -0.7079
18067TIP3    H175616   0.321   4.432  15.230 -0.2412  0.3987 -1.0928
18067TIP3    H275617   0.182   4.424  15.169 -0.3609 -0.7404 -0.6829
18068TIP3   OH275618   3.029   3.207  11.122  0.4547  0.4431 -0.3215
18068TIP3    H175619   2.963   3.199  11.053 -0.8523 -0.5762  1.0290
18068TIP3    H275620   3.090   3.136  11.105  0.7706  0.8794 -1.0769
18069TIP3   OH275621   5.149   6.306  12.201 -0.2545  0.2796 -0.3512
18069TIP3    H175622   5.151   6.396  12.234 -1.6946  0.7487 -1.4699
18069TIP3    H275623   5.072   6.267  12.243  0.5733 -0.5425  0.4078
18070TIP3   OH275624   1.720   0.902   0.961 -0.2366  1.3091  0.5223
18070TIP3    H175625   1.748   0.910   1.052  1.1750  3.2327 -0.0355
18070TIP3    H275626   1.770   0.969   0.915 -0.8172  0.2610 -1.7035
18071TIP3   OH275627   3.676   3.742  10.356  0.2719 -0.3057 -0.2391
18071TIP3    H175628   3.754   3.715  10.404 -0.7941 -0.7606  1.2580
18071TIP3    H275629   3.659   3.831  10.385 -0.8383 -0.8618  0.8658
18072TIP3   OH275630   3.473   1.336   2.577 -0.0843  0.4781 -0.3733
18072TIP3    H175631   3.548   1.277   2.575 -0.6620 -0.2830  0.3505
18072TIP3    H275632   3.436   1.331   2.488 -1.2572 -1.7159  0.2138
18073TIP3   OH275633   2.180   2.550   1.790 -0.8121 -0.1386  0.3085
18073TIP3    H175634   2.256   2.574   1.843  0.7538 -0.8663 -1.5699
18073TIP3    H275635   2.191   2.457   1.772 -2.3502 -0.3394  0.3054
18074TIP3   OH275636   1.779   3.697  15.223 -0.1109 -0.3959 -0.5899
18074TIP3    H175637   1.735   3.757  15.283  0.4856  0.0691 -0.6091
18074TIP3    H275638   1.709   3.642  15.187 -0.3883 -1.1300  1.0378
18075TIP3   OH275639   6.732   5.654   4.939  0.0930  0.5375 -0.6666
18075TIP3    H175640   6.763   5.647   4.848  0.5415  0.4933 -0.5098
18075TIP3    H275641   6.659   5.716   4.935 -2.0131 -1.9071 -1.6094
18076TIP3   OH275642   4.840   2.945  16.942 -0.0052 -0.0149  0.3637
18076TIP3    H175643   4.875   3.033  16.931  1.6304 -0.8205 -1.1058
18076TIP3    H275644   4.786   2.950  17.021 -1.1276  2.6401 -0.5322
18077TIP3   OH275645   2.986   0.024   1.503  0.6057  0.0390  0.7908
18077TIP3    H175646   3.026   0.023   1.416 -0.4753  0.1112  0.2865
18077TIP3    H275647   2.919  -0.045   1.500 -1.2498  1.8047  0.6834
18078TIP3   OH275648   1.905   6.096  14.304 -0.1328 -0.0692  0.1349
18078TIP3    H175649   1.860   6.174  14.272  1.8953  0.7476 -0.8269
18078TIP3    H275650   1.915   6.110  14.398 -1.3413  0.0139  0.2525
18079TIP3   OH275651   4.138   2.488  11.828 -0.2418  0.4460  0.0953
18079TIP3    H175652   4.097   2.544  11.894 -1.8038 -1.1054  0.4623
18079TIP3    H275653   4.072   2.479  11.759  0.2132 -0.4834 -0.2304
18080TIP3   OH275654   4.200   4.035  14.364 -0.1590  0.6302  0.1412
18080TIP3    H175655   4.174   4.029  14.456 -4.9435  0.3311 -1.1270
18080TIP3    H275656   4.242   3.950  14.346  1.0501  0.7829  2.0537
18081TIP3   OH275657   5.549   0.391   3.328  0.1190  0.4752  0.3617
18081TIP3    H175658   5.609   0.368   3.257 -0.2885  2.1852 -0.5372
18081TIP3    H275659   5.605   0.428   3.396  0.0764  2.3894 -0.6149
18082TIP3   OH275660   6.770   0.205   5.276 -0.1077 -0.1195 -0.4159
18082TIP3    H175661   6.751   0.262   5.202 -1.7982 -0.2370 -0.1050
18082TIP3    H275662   6.710   0.234   5.345  1.5178  0.0640  0.9565
18083TIP3   OH275663   0.964   6.333   1.184  0.0957  0.1247  0.2165
18083TIP3    H175664   0.931   6.318   1.273  1.7404 -0.0704  0.8190
18083TIP3    H275665   1.007   6.250   1.160 -0.7171  0.0318 -0.9272
18084TIP3   OH275666   4.730   6.063  15.091 -0.3333 -0.0394  0.3929
18084TIP3    H175667   4.668   6.128  15.059  0.0467  0.3620  0.4552
18084TIP3    H275668   4.678   6.006  15.148 -1.3318 -1.6562 -2.0683
18085TIP3   OH275669   5.878   1.865   1.944 -0.2296  0.3065  0.5482
18085TIP3    H175670   5.930   1.785   1.936 -2.4430 -1.2438  1.1221
18085TIP3    H275671   5.881   1.905   1.857 -2.6575 -2.7105 -1.0175
18086TIP3   OH275672   5.270   0.833   4.929  0.0983 -0.6799 -0.0190
18086TIP3    H175673   5.221   0.759   4.893 -0.1132 -0.1457 -0.8127
18086TIP3    H275674   5.360   0.800   4.936 -0.0850 -1.1690  0.0699
18087TIP3   OH275675   1.107   5.353   0.946 -0.2257  0.1564  0.4334
18087TIP3    H175676   1.071   5.441   0.947 -2.9810 -0.9428  0.2794
18087TIP3    H275677   1.034   5.296   0.969  0.5757 -2.4071 -2.9601
18088TIP3   OH275678   2.649   4.462   3.832  0.5680  0.5698 -0.5474
18088TIP3    H175679   2.654   4.553   3.860  1.6704  0.5111 -0.5267
18088TIP3    H275680   2.613   4.465   3.743  0.6151  1.0183 -0.5483
18089TIP3   OH275681   4.025   5.943   5.522 -0.0890 -0.3690 -0.1415
18089TIP3    H175682   3.931   5.941   5.536 -0.1545 -0.2833 -0.5463
18089TIP3    H275683   4.050   6.035   5.533  0.1529 -0.5928  1.2315
18090TIP3   OH275684   0.592   0.093  15.001 -0.1205  0.5884  0.1943
18090TIP3    H175685   0.634   0.168  14.958 -0.8288 -0.2116 -1.9742
18090TIP3    H275686   0.658   0.023  14.997 -0.2240  0.4820  0.3257
18091TIP3   OH275687   1.404   2.502   1.365 -0.2470 -0.3754  0.0084
18091TIP3    H175688   1.458   2.464   1.296 -1.3542  0.0262 -1.0843
18091TIP3    H275689   1.356   2.429   1.403  0.1031 -0.5415  0.1361
18092TIP3   OH275690   5.124   2.114   1.042 -0.0766 -0.3763 -0.1285
18092TIP3    H175691   5.071   2.038   1.065  0.7062 -1.5525 -2.0577
18092TIP3    H275692   5.061   2.177   1.007 -0.7249 -0.1351  1.4337
18093TIP3   OH275693   4.858   0.630   5.087  0.4411  0.2093  0.0069
18093TIP3    H175694   4.926   0.593   5.031  0.4565 -1.4627  1.1144
18093TIP3    H275695   4.788   0.653   5.026  0.0737 -2.4542 -0.6317
18094TIP3   OH275696   4.221   4.870   4.630  0.7990 -0.3730 -0.4095
18094TIP3    H175697   4.296   4.930   4.628  1.6049 -1.3119  0.6067
18094TIP3    H275698   4.234   4.813   4.554  0.0709  0.6830 -1.3353
18095TIP3   OH275699   5.991   0.830  14.691  0.2972 -0.1507 -0.1663
18095TIP3    H175700   5.898   0.808  14.699  0.7310 -3.3418 -2.8585
18095TIP3    H275701   6.034   0.779  14.758  0.2177  0.6997  0.5411
18096TIP3   OH275702   5.741   1.244  11.211  0.0982 -0.2033 -0.7560
18096TIP3    H175703   5.752   1.190  11.290 -0.1601  0.7258 -0.0723
18096TIP3    H275704   5.812   1.217  11.153  0.5125 -0.6352 -0.0544
18097TIP3   OH275705   5.231   1.661  15.475 -0.3165 -0.4203  0.3082
18097TIP3    H175706   5.143   1.622  15.478 -0.5989  0.2748  1.0832
18097TIP3    H275707   5.262   1.643  15.386 -0.9590 -1.2885  0.2499
18098TIP3   OH275708   3.402   1.669  12.814 -0.5858 -0.0279  0.0148
18098TIP3    H175709   3.321   1.681  12.864 -1.0424 -0.6132 -0.5790
18098TIP3    H275710   3.418   1.754  12.773 -1.7962 -0.3624 -1.1907
18099TIP3   OH275711   1.046   1.774  12.981  0.1172  0.4010  0.3362
18099TIP3    H175712   1.020   1.749  13.069  0.0505 -0.2835  0.1245
18099TIP3    H275713   0.964   1.782  12.932  0.3044 -2.5974 -0.5535
18100TIP3   OH275714   5.431   4.254  13.812  0.1052  0.1491 -0.6647
18100TIP3    H175715   5.340   4.226  13.801 -0.2066  0.8801  0.0501
18100TIP3    H275716   5.473   4.180  13.855 -0.2206 -0.0621 -0.7037
18101TIP3   OH275717   0.890   6.386   6.469 -0.4172 -0.0713  0.0808
18101TIP3    H175718   0.893   6.326   6.395 -2.4090 -1.7092  1.2632
18101TIP3    H275719   0.806   6.432   6.460 -0.4217  0.1132  1.0174
18102TIP3   OH275720   3.721   0.938   5.856 -0.2763  0.4632 -0.1312
18102TIP3    H175721   3.791   0.934   5.791 -1.6689 -2.0138 -1.5793
18102TIP3    H275722   3.702   1.031   5.866  1.7288  1.0223 -1.3452
18103TIP3   OH275723   0.350   2.210   2.821 -0.2826  0.7122  0.4644
18103TIP3    H175724   0.407   2.284   2.842 -0.0698  0.6340  0.1743
18103TIP3    H275725   0.338   2.215   2.726  0.5873 -0.2251  0.2891
18104TIP3   OH275726   1.207   1.466   3.797  0.0495  0.3911  0.7268
18104TIP3    H175727   1.221   1.375   3.770  0.2842  0.3350  1.0335
18104TIP3    H275728   1.156   1.505   3.726  3.1057  1.0300 -1.2041
18105TIP3   OH275729   0.003   0.044   0.264  0.2017  0.2891  0.7387
18105TIP3    H175730   0.084  -0.006   0.264 -0.8354 -1.4801 -1.8327
18105TIP3    H275731   0.031   0.135   0.250  1.7272 -0.3226 -0.3379
18106TIP3   OH275732   4.046   1.749  14.396  0.3644  0.4711  0.2027
18106TIP3    H175733   3.950   1.759  14.396  0.4801  1.7314  0.7581
18106TIP3    H275734   4.063   1.684  14.328 -1.1554 -2.7999  2.7952
18107TIP3   OH275735   2.293   6.648  11.539 -0.0322  0.3939 -0.7062
18107TIP3    H175736   2.296   6.597  11.620 -0.2209 -0.3830 -1.1816
18107TIP3    H275737   2.233   6.720  11.558 -0.9494 -0.4126 -0.5098
18108TIP3   OH275738   6.474   2.189   0.205  0.2033  0.1976  0.0720
18108TIP3    H175739   6.458   2.109   0.254 -0.0597  1.1895  1.6319
18108TIP3    H275740   6.561   2.176   0.165  0.8188 -0.2586  1.5421
18109TIP3   OH275741   3.519   2.334  15.391  0.4781 -0.3387  0.1824
18109TIP3    H175742   3.495   2.372  15.306  2.4320  0.6805  0.0425
18109TIP3    H275743   3.438   2.335  15.442 -0.1675  1.3339 -0.8408
18110TIP3   OH275744   3.938   1.880   4.134 -0.4127 -0.0981  0.4628
18110TIP3    H175745   4.015   1.927   4.167  1.3295 -3.5938  1.5753
18110TIP3    H275746   3.877   1.879   4.207  0.6471 -1.8598  1.3468
18111TIP3   OH275747   4.985   4.916   2.516  0.3735 -0.4751  0.2699
18111TIP3    H175748   4.974   4.830   2.474 -0.1564  1.3547 -3.4748
18111TIP3    H275749   4.899   4.934   2.555  0.4064 -1.4860  0.8435
18112TIP3   OH275750   0.318   6.345   5.507 -0.2343 -0.4128 -0.1877
18112TIP3    H175751   0.287   6.279   5.445 -2.7306 -0.4889  1.0698
18112TIP3    H275752   0.273   6.426   5.482  1.2596  0.3417 -0.4750
18113TIP3   OH275753   4.293   6.110  15.643 -0.5871 -0.0365 -0.5155
18113TIP3    H175754   4.359   6.179  15.640  1.7231 -2.1665 -0.6347
18113TIP3    H275755   4.254   6.117  15.730  0.2422  0.8602 -0.2163
18114TIP3   OH275756   2.900   0.599  11.758 -0.3741 -0.1468  0.2387
18114TIP3    H175757   2.904   0.511  11.720 -2.1630  0.4654 -1.5061
18114TIP3    H275758   2.979   0.643  11.727 -0.5901 -0.4489 -0.7510
18115TIP3   OH275759   0.950   4.007  12.007 -0.2098  0.3159 -0.0112
18115TIP3    H175760   0.969   3.995  12.100  0.4303  0.6385 -0.1012
18115TIP3    H275761   0.991   3.933  11.964  0.3691  0.7140 -0.1444
18116TIP3   OH275762   6.268   1.793  12.767  0.3094 -0.2457  0.7476
18116TIP3    H175763   6.211   1.870  12.760  0.8435  0.0812 -0.0487
18116TIP3    H275764   6.344   1.813  12.713  0.6907 -1.1303  0.9318
18117TIP3   OH275765   3.257   3.851   3.152 -0.3206 -0.0166 -0.4910
18117TIP3    H175766   3.238   3.757   3.151 -1.7695  0.2525 -1.6028
18117TIP3    H275767   3.192   3.888   3.212  1.2605  0.1081  1.1863
18118TIP3   OH275768   0.571   4.492  16.325  0.6220  0.1292 -0.0557
18118TIP3    H175769   0.662   4.464  16.317  0.1496 -1.7516  0.7691
18118TIP3    H275770   0.543   4.511  16.235  1.4942 -0.3643 -0.4328
18119TIP3   OH275771   5.736   2.027  11.764 -0.9394  0.4749  0.0903
18119TIP3    H175772   5.823   2.037  11.803 -1.5144  0.1925  1.5052
18119TIP3    H275773   5.738   2.083  11.687  0.1920  1.2116  0.6291
18120TIP3   OH275774   0.726   3.132   0.195 -0.6855 -0.7644 -0.2351
18120TIP3    H175775   0.695   3.067   0.132  2.1343 -1.8918 -0.5588
18120TIP3    H275776   0.784   3.189   0.144 -0.2305 -0.2620  0.8217
18121TIP3   OH275777   0.210   0.845  11.770 -0.3779  0.0583  0.5350
18121TIP3    H175778   0.254   0.861  11.686  0.3251 -0.1871  0.8575
18121TIP3    H275779   0.281   0.824  11.831 -0.8746  0.3901  1.2307
18122TIP3   OH275780   1.818   0.583   0.139 -0.3918 -0.1967  0.5611
18122TIP3    H175781   1.856   0.553   0.056 -1.3513  0.2721 -0.0650
18122TIP3    H275782   1.890   0.582   0.201  0.2301 -1.0261 -0.1668
18123TIP3   OH275783   6.226   5.839  11.550  0.1946  0.1727 -0.3574
18123TIP3    H175784   6.135   5.811  11.548  0.7994 -1.8315 -1.4113
18123TIP3    H275785   6.223   5.934  11.540 -1.6642 -0.1720 -3.4264
18124TIP3   OH275786   2.870   4.528  16.891 -0.0594 -0.0417  0.1949
18124TIP3    H175787   2.861   4.443  16.848  0.3312 -1.2074  2.3487
18124TIP3    H275788   2.825   4.517  16.974 -0.0250  1.8859  0.4737
18125TIP3   OH275789   4.485   0.876   4.741 -0.0752  0.1834 -0.3879
18125TIP3    H175790   4.579   0.895   4.743  0.2806 -1.5181 -0.6222
18125TIP3    H275791   4.453   0.924   4.664  0.4865  1.2047  0.0037
18126TIP3   OH275792   5.528   6.557   3.544 -0.0847 -0.5508 -0.4299
18126TIP3    H175793   5.600   6.504   3.577  0.3241  0.7988  0.9423
18126TIP3    H275794   5.488   6.593   3.623 -3.1806 -2.4290 -1.0608
18127TIP3   OH275795   0.137   3.964  13.002  0.7381 -0.3746  0.0259
18127TIP3    H175796   0.187   3.882  13.000  2.5037  0.6738  0.5095
18127TIP3    H275797   0.202   4.033  12.990 -0.7790  0.9605 -0.7357
18128TIP3   OH275798   0.291   5.040  14.608  0.8460 -0.6518 -0.1889
18128TIP3    H175799   0.382   5.049  14.639  0.2441  1.5240  1.0612
18128TIP3    H275800   0.278   5.116  14.551 -1.2407  1.0390  2.4326
18129TIP3   OH275801   0.891   4.868  14.426  0.2256 -0.7154 -0.0949
18129TIP3    H175802   0.852   4.953  14.442  0.8452 -0.5711  0.6997
18129TIP3    H275803   0.891   4.858  14.331  0.3360  0.2581 -0.2019
18130TIP3   OH275804   6.506   4.198   0.955  1.3545 -0.3003  0.1680
18130TIP3    H175805   6.508   4.102   0.952  2.7077 -0.3968  2.5679
18130TIP3    H275806   6.594   4.223   0.985  0.9163  1.6653 -0.0965
18131TIP3   OH275807   0.330   0.454  12.461 -1.0534  0.3556 -0.0360
18131TIP3    H175808   0.240   0.425  12.444 -0.4479 -1.8727  0.4332
18131TIP3    H275809   0.355   0.502  12.382 -2.6836  1.0933 -0.1242
18132TIP3   OH275810   2.822   1.949   0.429 -0.2641 -0.1800  0.1105
18132TIP3    H175811   2.820   1.935   0.334 -0.6169 -1.0658  0.2398
18132TIP3    H275812   2.837   1.861   0.466  1.6012  0.3959  0.8163
18133TIP3   OH275813   4.422   3.876  12.130  0.2133 -0.5144 -0.1578
18133TIP3    H175814   4.476   3.807  12.169  1.8683  0.3187 -0.9159
18133TIP3    H275815   4.430   3.861  12.036  0.2227  0.4504 -0.3071
18134TIP3   OH275816   2.386   4.553  14.658  0.2663 -0.3995 -0.0812
18134TIP3    H175817   2.405   4.579  14.568 -0.2971  0.9216  0.1764
18134TIP3    H275818   2.438   4.612  14.712  1.4013 -1.8587  0.4456
18135TIP3   OH275819   4.429   4.592   5.866  0.3655  0.8394  0.5913
18135TIP3    H175820   4.379   4.673   5.854 -0.5324  0.0569 -1.0531
18135TIP3    H275821   4.520   4.618   5.857  0.1058  1.7292  0.4851
18136TIP3   OH275822   3.343   5.526  12.736  0.1991  0.0463 -0.4150
18136TIP3    H175823   3.255   5.494  12.753  0.8121 -1.1205  0.6780
18136TIP3    H275824   3.400   5.451  12.754  1.5180  1.1741  0.2459
18137TIP3   OH275825   4.838   1.042  16.048  0.2557  0.5025 -0.4367
18137TIP3    H175826   4.789   1.077  15.973  0.4694  0.3013 -0.6698
18137TIP3    H275827   4.771   1.017  16.111  0.1241  3.5405  0.7277
18138TIP3   OH275828   2.458   0.486   3.808 -0.2638  0.5077 -0.1547
18138TIP3    H175829   2.495   0.423   3.747 -2.2543  1.7731 -2.7490
18138TIP3    H275830   2.525   0.555   3.814  1.1857 -0.9608  1.4106
18139TIP3   OH275831   5.220   3.807  11.704  0.6857  0.4947 -0.2431
18139TIP3    H175832   5.284   3.792  11.634  4.4873  2.1344  2.7179
18139TIP3    H275833   5.214   3.724  11.750 -0.0377  0.0860 -1.0565
18140TIP3   OH275834   3.633   4.666   3.173 -0.2461 -0.3548  0.4400
18140TIP3    H175835   3.559   4.626   3.219 -0.9460  2.9860  2.3124
18140TIP3    H275836   3.601   4.752   3.145  2.0928  0.0622 -1.0841
18141TIP3   OH275837   3.677   0.064   2.546 -0.3047 -0.3515  0.5829
18141TIP3    H175838   3.626   0.049   2.626 -1.0375 -1.2323 -0.0310
18141TIP3    H275839   3.749   0.001   2.552 -1.4084 -1.7198 -0.3268
18142TIP3   OH275840   0.161   3.181   4.552  0.5047  0.0880  0.3182
18142TIP3    H175841   0.216   3.191   4.474  0.4050  0.2212  0.2647
18142TIP3    H275842   0.108   3.104   4.534 -1.8745  1.9916 -1.1812
18143TIP3   OH275843   1.271   0.854   6.414 -0.0016 -0.1038  0.4715
18143TIP3    H175844   1.199   0.916   6.403  0.1095 -0.2227 -1.0557
18143TIP3    H275845   1.261   0.793   6.341  1.5094 -0.2383  0.3552
18144TIP3   OH275846   4.096   2.846  13.504 -0.4480 -0.4621 -0.1202
18144TIP3    H175847   4.140   2.921  13.465  2.3585 -0.8986  2.0094
18144TIP3    H275848   4.048   2.881  13.579  0.4904 -0.6771  0.6005
18145TIP3   OH275849   0.939   2.429   3.387  0.2868 -0.0478 -0.3546
18145TIP3    H175850   0.892   2.419   3.470 -1.7414 -1.0716 -1.5958
18145TIP3    H275851   1.029   2.405   3.408  0.2134  1.5680  1.9779
18146TIP3   OH275852   5.970   4.421  13.869  0.8332 -0.0338 -0.0965
18146TIP3    H175853   6.061   4.403  13.892  0.2670 -2.0675  0.6070
18146TIP3    H275854   5.975   4.495  13.808  3.0748 -1.2559 -1.4547
18147TIP3   OH275855   1.912   1.537  13.287  0.6669 -0.0589  0.0677
18147TIP3    H175856   1.891   1.610  13.229 -0.7570 -0.3507  0.2137
18147TIP3    H275857   2.008   1.533  13.286  0.6835  0.0792 -2.0915
18148TIP3   OH275858   1.375   1.367  12.524 -0.5829 -0.1728  0.0987
18148TIP3    H175859   1.425   1.302  12.573  0.9375  0.1428 -1.0169
18148TIP3    H275860   1.364   1.439  12.585 -0.0704 -0.4311  0.5038
18149TIP3   OH275861   0.314   1.161  13.466  0.2258 -0.5845  0.1696
18149TIP3    H175862   0.382   1.194  13.524  1.0455  1.1239 -1.6987
18149TIP3    H275863   0.335   1.069  13.454  1.8061 -0.2378  0.1805
18150TIP3   OH275864   1.958   0.598  17.150  0.4429 -0.3369  0.3346
18150TIP3    H175865   1.987   0.511  17.125  1.2182  0.8986 -3.4168
18150TIP3    H275866   2.027   0.631  17.207  1.2318 -1.3781 -0.0066
18151TIP3   OH275867   2.051   4.114  12.475 -0.0789 -0.2873 -0.1590
18151TIP3    H175868   2.091   4.027  12.483 -0.3389 -0.3366  0.6343
18151TIP3    H275869   1.957   4.098  12.474 -0.0962 -0.1629 -1.9836
18152TIP3   OH275870   3.181   1.259  16.028  0.2591  0.3550  0.4112
18152TIP3    H175871   3.133   1.188  15.986 -0.0873  0.5359  0.5054
18152TIP3    H275872   3.123   1.335  16.023  0.0897  0.3036  1.4994
18153TIP3   OH275873   2.511   5.715  15.455  0.2516 -0.0983 -0.3602
18153TIP3    H175874   2.500   5.797  15.408 -2.2449 -0.6879 -0.8826
18153TIP3    H275875   2.503   5.647  15.388 -1.3047 -0.8690  0.5700
18154TIP3   OH275876   0.514   2.127   2.032 -0.0520  0.3435 -0.3487
18154TIP3    H175877   0.545   2.098   2.117 -1.7334 -0.4975 -0.0097
18154TIP3    H275878   0.542   2.059   1.971  0.5356  0.5964 -0.3625
18155TIP3   OH275879   4.349   1.897   5.843  0.1194  0.5030  0.1148
18155TIP3    H175880   4.332   1.981   5.885  1.3333  0.6584  0.3172
18155TIP3    H275881   4.347   1.917   5.749  0.3945  0.7683  0.1610
18156TIP3   OH275882   3.311   0.551   1.501 -0.1423  0.0280 -0.2536
18156TIP3    H175883   3.228   0.596   1.518 -0.3293  0.1541 -1.4707
18156TIP3    H275884   3.360   0.559   1.583  0.1287  3.1023 -0.6682
18157TIP3   OH275885   2.860   0.695   2.919  0.0144 -0.4556  0.4563
18157TIP3    H175886   2.805   0.634   2.969 -1.4179  0.2830 -0.1689
18157TIP3    H275887   2.806   0.718   2.843  1.0829  0.5495 -0.0124
18158TIP3   OH275888   0.485   2.024   5.445 -0.3146  0.2949  0.5120
18158TIP3    H175889   0.444   2.058   5.525 -1.2125  0.6599 -0.0933
18158TIP3    H275890   0.457   2.084   5.376  0.4886  0.0031 -0.0737
18159TIP3   OH275891   0.350   5.163  11.032  0.2631 -0.6439  0.1820
18159TIP3    H175892   0.394   5.098  10.977  1.3498 -1.3467  1.8331
18159TIP3    H275893   0.258   5.134  11.034  0.8564 -2.5230  1.4014
18160TIP3   OH275894   1.353   6.531  14.710  0.2143 -0.2615 -0.2682
18160TIP3    H175895   1.280   6.475  14.684 -0.2129  0.0203  0.3073
18160TIP3    H275896   1.424   6.507  14.650 -0.7756  0.4631 -1.7450
18161TIP3   OH275897   5.785   2.128  12.336  0.0017  0.6879 -0.2386
18161TIP3    H175898   5.769   2.050  12.389  2.1577  0.2133 -0.2458
18161TIP3    H275899   5.760   2.102  12.247  1.4447 -0.2798 -0.3848
18162TIP3   OH275900   3.582   4.739  14.249 -0.1419 -0.0103  0.1816
18162TIP3    H175901   3.646   4.763  14.181 -1.1535 -0.0190 -0.7788
18162TIP3    H275902   3.633   4.687  14.312  0.8827  0.2949 -0.3777
18163TIP3   OH275903   0.994   6.739   3.621  0.7127  0.1422 -0.8118
18163TIP3    H175904   1.051   6.807   3.586 -0.1229  0.1301 -2.2155
18163TIP3    H275905   0.964   6.774   3.705  2.2215  0.4388 -0.3722
18164TIP3   OH275906   4.395   1.823  11.740 -0.0177  0.5306  0.1728
18164TIP3    H175907   4.328   1.867  11.792 -0.1653  1.7715 -1.0417
18164TIP3    H275908   4.478   1.845  11.782 -0.1773  1.0950  0.1899
18165TIP3   OH275909   0.314   0.730   3.074  0.4684 -0.2354  0.2953
18165TIP3    H175910   0.279   0.816   3.097 -0.0098 -0.0746 -0.9979
18165TIP3    H275911   0.327   0.734   2.980  0.8510 -1.4446  0.2887
18166TIP3   OH275912   2.671   2.506   4.545 -0.2205  0.7223  0.1441
18166TIP3    H175913   2.716   2.429   4.510 -1.2101 -0.4711  1.4924
18166TIP3    H275914   2.648   2.557   4.467  0.8774 -0.0939 -0.7280
18167TIP3   OH275915   0.171   5.632  14.198  0.0394 -0.0956 -0.7497
18167TIP3    H175916   0.202   5.562  14.256 -0.0919 -0.9172 -1.6714
18167TIP3    H275917   0.236   5.702  14.210  0.7288 -0.7507 -0.5824
18168TIP3   OH275918   4.078   1.014  12.064 -0.6860 -0.3886 -0.0634
18168TIP3    H175919   3.999   0.960  12.071 -0.2499 -1.0464 -0.2221
18168TIP3    H275920   4.143   0.957  12.024 -0.0647  0.0935  0.2571
18169TIP3   OH275921   6.551   0.959   5.087 -0.3792 -0.1311 -0.0197
18169TIP3    H175922   6.595   0.916   5.160 -1.2912  0.4260  0.8769
18169TIP3    H275923   6.460   0.930   5.093 -0.2524 -0.8658 -1.5370
18170TIP3   OH275924   2.940   1.134  11.723 -0.0968  0.8075  0.5839
18170TIP3    H175925   2.969   1.206  11.667  0.7395  0.2537  0.2877
18170TIP3    H275926   2.982   1.056  11.686 -0.2278  0.3069  1.4653
18171TIP3   OH275927   4.857   5.543  15.398  0.1935 -0.2901 -0.1874
18171TIP3    H175928   4.930   5.579  15.448 -0.6457  0.5634  0.4465
18171TIP3    H275929   4.829   5.466  15.448 -0.0543  0.0336  0.1835
18172TIP3   OH275930   4.303   2.352  13.004 -0.3667  0.2884  0.5702
18172TIP3    H175931   4.371   2.364  13.070  0.5661  0.8809 -0.4767
18172TIP3    H275932   4.226   2.393  13.041  0.0076  0.1415  1.5222
18173TIP3   OH275933   0.335   0.720   1.157  0.5181  0.3742  0.0387
18173TIP3    H175934   0.352   0.789   1.220  0.0061  0.1765  0.4027
18173TIP3    H275935   0.382   0.644   1.192 -0.0083  0.1843  0.3476
18174TIP3   OH275936   6.415   6.475  12.154  0.3227 -0.1961  0.6226
18174TIP3    H175937   6.419   6.384  12.122  0.3243 -0.3509  1.0552
18174TIP3    H275938   6.411   6.466  12.249 -1.2174  0.2055  0.6109
18175TIP3   OH275939   2.194   1.919  13.096  0.4115  0.2923  0.8970
18175TIP3    H175940   2.128   1.946  13.159 -0.5676  1.7715 -0.7288
18175TIP3    H275941   2.237   2.000  13.069  0.5245 -0.2593 -0.6467
18176TIP3   OH275942   5.496   0.265  11.534  0.2198  0.0417 -0.0531
18176TIP3    H175943   5.482   0.198  11.601 -0.1803 -1.7167 -1.8586
18176TIP3    H275944   5.588   0.290  11.543 -0.1361  0.6951  1.9233
18177TIP3   OH275945   0.474   4.859  15.820 -0.4637  0.8247  0.3351
18177TIP3    H175946   0.439   4.886  15.735 -2.1072 -0.0383  0.7180
18177TIP3    H275947   0.518   4.936  15.854  2.5530  0.4405 -2.4655
18178TIP3   OH275948   6.556   6.648   1.479 -0.0574 -0.0499 -0.2158
18178TIP3    H175949   6.630   6.639   1.419  1.0745  1.0955  0.9752
18178TIP3    H275950   6.533   6.741   1.474 -1.2689 -0.3542 -0.3936
18179TIP3   OH275951   5.249   5.210   3.246 -0.1379  0.1784 -0.1114
18179TIP3    H175952   5.223   5.148   3.314  0.4664  0.9297  0.8178
18179TIP3    H275953   5.170   5.223   3.194 -0.1539 -1.6962 -0.5854
18180TIP3   OH275954   5.564   4.482   3.736  0.5738 -0.2178 -0.1037
18180TIP3    H175955   5.648   4.442   3.714  1.0738  0.4774  0.4652
18180TIP3    H275956   5.569   4.496   3.831  0.5333  1.4027 -0.3174
18181TIP3   OH275957   1.767   0.624  15.941 -0.1599 -0.3133 -0.0245
18181TIP3    H175958   1.690   0.586  15.899  0.2506  0.9667 -2.0415
18181TIP3    H275959   1.805   0.680  15.874  1.8524  0.0229  1.3445
18182TIP3   OH275960   1.101   1.002   2.618  0.1859 -0.2490  0.1405
18182TIP3    H175961   1.185   0.988   2.575  0.0552 -1.9509  0.3826
18182TIP3    H275962   1.108   1.089   2.656  0.0079  1.6385 -3.9137
18183TIP3   OH275963   1.358   1.501  12.989 -0.2405 -0.1307 -0.1520
18183TIP3    H175964   1.330   1.412  13.013  0.9569 -0.6385 -0.6089
18183TIP3    H275965   1.354   1.551  13.070  0.9445 -1.0930  0.5046
18184TIP3   OH275966   0.283   5.664   3.588 -0.1476  0.0685 -0.0454
18184TIP3    H175967   0.340   5.618   3.650  1.4715  1.9636 -0.0641
18184TIP3    H275968   0.328   5.656   3.504 -1.0117 -0.2420 -0.4846
18185TIP3   OH275969   2.853   1.343  15.229 -0.1182  0.5763 -0.2927
18185TIP3    H175970   2.881   1.312  15.315 -1.5637  0.3987  0.1219
18185TIP3    H275971   2.921   1.405  15.203  1.2201 -0.6415  0.2126
18186TIP3   OH275972   2.372   6.376  11.157 -0.2042 -0.0934 -0.5399
18186TIP3    H175973   2.425   6.378  11.077  0.8360 -1.5768  0.1100
18186TIP3    H275974   2.283   6.364  11.126  0.4128 -2.6182 -1.3921
18187TIP3   OH275975   6.192   0.919  11.580 -0.3384 -0.4978  0.3627
18187TIP3    H175976   6.109   0.906  11.625  0.2049 -1.2683  1.1477
18187TIP3    H275977   6.250   0.851  11.615  0.5726 -0.0827 -0.3089
18188TIP3   OH275978   2.815   1.257  14.951  0.1065 -0.5085  0.3816
18188TIP3    H175979   2.797   1.201  15.027  0.8332 -1.2862 -0.0188
18188TIP3    H275980   2.857   1.199  14.888  1.1667  0.5629  0.0932
18189TIP3   OH275981   2.067   6.204  15.197 -0.2240 -0.0716 -0.0902
18189TIP3    H175982   2.153   6.214  15.237  0.5702 -0.9780 -1.5161
18189TIP3    H275983   2.009   6.257  15.251  1.7556  2.9293 -0.7680
18190TIP3   OH275984   4.341   4.226   3.506 -0.3211 -0.0705  0.5662
18190TIP3    H175985   4.434   4.207   3.519 -0.3262 -1.7574 -1.6630
18190TIP3    H275986   4.303   4.218   3.594  1.4896 -0.1177  1.3822
18191TIP3   OH275987   1.130   4.730  16.942  0.1686 -0.2853  0.2478
18191TIP3    H175988   1.119   4.760  16.852  1.5961  1.3351  0.5915
18191TIP3    H275989   1.192   4.657  16.936 -0.3205 -0.6740 -0.1523
18192TIP3   OH275990   1.308   6.061   3.718  0.2857 -0.1575  0.1844
18192TIP3    H175991   1.243   6.128   3.742  2.8011  2.3481  0.2264
18192TIP3    H275992   1.327   6.077   3.626 -0.8429 -2.3954 -0.4690
18193TIP3   OH275993   5.151   6.732  14.261  0.0238 -0.3126  0.0112
18193TIP3    H175994   5.173   6.645  14.229 -1.4512 -0.2565 -1.2245
18193TIP3    H275995   5.229   6.785  14.243 -0.0155 -0.7781 -1.6385
18194TIP3   OH275996   1.538   5.847   5.228 -0.3435  0.3674  0.2369
18194TIP3    H175997   1.525   5.813   5.316 -0.1717 -1.9530 -0.6075
18194TIP3    H275998   1.452   5.841   5.187 -0.3905  1.3088  0.1699
18195TIP3   OH275999   6.516   3.503   4.333  0.1873 -0.4024  0.0172
18195TIP3    H176000   6.545   3.538   4.418 -1.5716  2.1096 -0.3530
18195TIP3    H276001   6.579   3.539   4.270  0.4044 -0.7471  0.0367
18196TIP3   OH276002   1.764   4.387   0.556 -0.0498  0.4851  0.1005
18196TIP3    H176003   1.781   4.318   0.620 -0.5689  0.6147  0.3772
18196TIP3    H276004   1.795   4.350   0.473 -2.4161 -0.9886 -0.1769
18197TIP3   OH276005   2.843   0.991  13.953  0.0783 -0.2479 -0.3614
18197TIP3    H176006   2.937   0.971  13.963  0.4732  0.9357 -1.6046
18197TIP3    H276007   2.839   1.046  13.875 -1.7477 -0.8680 -0.7101
18198TIP3   OH276008   3.824   6.309  15.466  0.0592 -0.2887  0.1237
18198TIP3    H176009   3.729   6.321  15.454 -0.3694 -0.8720  2.5427
18198TIP3    H276010   3.857   6.288  15.379 -1.4900  3.2086 -1.4294
18199TIP3   OH276011   6.405   6.440  15.340  0.4367 -0.6595  0.2520
18199TIP3    H176012   6.359   6.367  15.298  1.3275 -1.3412  0.4502
18199TIP3    H276013   6.378   6.517  15.290 -1.4651 -0.9458  0.7742
18200TIP3   OH276014   5.308   4.675   3.010 -0.6216  0.4040 -0.0898
18200TIP3    H176015   5.302   4.720   3.094 -0.1661 -0.7122  0.5421
18200TIP3    H276016   5.218   4.670   2.979 -0.6643  1.9632 -0.2930
18201TIP3   OH276017   1.957   2.895  16.266  0.0250  0.0145 -0.5628
18201TIP3    H176018   2.032   2.837  16.276  0.9988  1.3170 -0.1805
18201TIP3    H276019   1.993   2.983  16.273 -1.4653  0.6737 -0.8731
18202TIP3   OH276020   6.779   5.726   1.984  0.3221  0.2856  0.2151
18202TIP3    H176021   6.760   5.817   1.959 -0.5423  0.0937  0.1543
18202TIP3    H276022   6.712   5.675   1.940  0.7545 -0.3796  0.3242
18203TIP3   OH276023   0.897   3.666  16.711 -0.1729 -0.2738 -0.3962
18203TIP3    H176024   0.885   3.712  16.795  1.1290 -0.8772  0.1388
18203TIP3    H276025   0.891   3.735  16.645  0.9865  0.5713  0.3513
18204TIP3   OH276026   0.305   2.689  13.650 -0.1579 -0.0905  0.1821
18204TIP3    H176027   0.286   2.596  13.665  1.5034 -0.1551  2.0532
18204TIP3    H276028   0.230   2.721  13.601 -1.0290 -2.2893  0.0123
18205TIP3   OH276029   6.703   2.432  15.227 -0.6367 -0.3769 -0.1942
18205TIP3    H176030   6.651   2.502  15.267  1.5816  1.7406 -0.8404
18205TIP3    H276031   6.692   2.446  15.133  1.0198  0.1046 -0.3421
18206TIP3   OH276032   0.376   0.075   4.295  0.0220  0.1621 -0.0273
18206TIP3    H176033   0.334   0.016   4.358  1.4987  2.1039  2.8754
18206TIP3    H276034   0.303   0.121   4.253 -0.9783 -0.7038  0.7251
18207TIP3   OH276035   1.953   0.960  12.920 -0.4340 -0.5620 -0.4261
18207TIP3    H176036   1.873   0.918  12.889 -0.4287 -1.9514  1.3708
18207TIP3    H276037   2.013   0.955  12.845 -2.1075  0.8069 -1.9049
18208TIP3   OH276038   3.432   3.359   0.921  0.4997  0.6606  0.3431
18208TIP3    H176039   3.511   3.318   0.886  0.8410  0.5832  1.1775
18208TIP3    H276040   3.364   3.341   0.856  1.1897  0.8024 -0.4221
18209TIP3   OH276041   5.936   3.227   6.634 -0.1046 -0.6514  0.3158
18209TIP3    H176042   5.853   3.273   6.617 -0.5470 -1.7788 -0.6359
18209TIP3    H276043   5.959   3.253   6.723 -0.0776  1.7974 -0.3597
18210TIP3   OH276044   3.620   3.965   3.013  0.4141  0.0890  0.1363
18210TIP3    H176045   3.562   3.976   3.088 -0.6348  4.0193 -1.1369
18210TIP3    H276046   3.612   3.873   2.990 -1.3476 -0.5685  3.1431
18211TIP3   OH276047   6.329   3.194  11.403  0.0209 -0.0762  0.7022
18211TIP3    H176048   6.320   3.220  11.312  2.0500 -0.7753  0.2690
18211TIP3    H276049   6.279   3.113  11.411 -1.6008  0.9026  0.6630
18212TIP3   OH276050   2.439   0.687   2.543 -0.3276  0.0298 -0.6592
18212TIP3    H176051   2.389   0.657   2.619 -1.5696 -0.9250 -1.8173
18212TIP3    H276052   2.434   0.782   2.547 -0.1681 -0.0059  0.5833
18213TIP3   OH276053   1.077   5.263   2.892 -0.2443  0.1209 -0.5446
18213TIP3    H176054   1.076   5.212   2.811 -2.1471  0.6133 -0.8605
18213TIP3    H276055   1.030   5.207   2.955 -0.7878  0.7200 -0.4149
18214TIP3   OH276056   0.053   3.207   1.775  0.6604  0.5622 -0.8521
18214TIP3    H176057   0.119   3.275   1.761  0.0833  1.2518 -0.3091
18214TIP3    H276058  -0.030   3.250   1.752  0.2828  0.0650 -0.4187
18215TIP3   OH276059   3.173   4.417  12.184  0.3648 -0.3644 -0.1529
18215TIP3    H176060   3.241   4.374  12.237  0.1824 -1.2324 -0.6166
18215TIP3    H276061   3.093   4.407  12.236  0.7262  1.3951  0.7889
18216TIP3   OH276062   2.264   3.485  14.365  0.2593 -0.6915  0.3449
18216TIP3    H176063   2.358   3.497  14.351 -0.1091  0.9379 -0.9774
18216TIP3    H276064   2.235   3.439  14.287  0.1742 -2.3911  1.3745
18217TIP3   OH276065   5.740   1.900   3.955 -0.1931  0.0461 -0.1438
18217TIP3    H176066   5.654   1.942   3.950 -0.7700 -1.1836 -0.7172
18217TIP3    H276067   5.753   1.862   3.868 -0.5914 -2.7179  0.9548
18218TIP3   OH276068   3.983   6.610   4.898  0.7106 -0.5704 -0.1762
18218TIP3    H176069   3.913   6.675   4.902 -0.0248 -1.4473  2.3173
18218TIP3    H276070   3.983   6.579   4.807 -1.2941  0.3528 -0.5158
18219TIP3   OH276071   5.840   3.349  13.684 -0.1501  0.1957 -0.7025
18219TIP3    H176072   5.901   3.419  13.708 -0.6556  0.2473  0.4573
18219TIP3    H276073   5.782   3.389  13.619  0.2007  0.5595 -0.7944
18220TIP3   OH276074   1.619   4.573   0.717 -0.9582  0.5215 -0.5496
18220TIP3    H176075   1.600   4.532   0.801 -0.5110 -0.1047 -0.7557
18220TIP3    H276076   1.685   4.517   0.676 -0.9717  0.9684 -1.2014
18221TIP3   OH276077   4.870   5.145   1.338 -0.5328 -0.2160  0.2522
18221TIP3    H176078   4.867   5.057   1.302  0.0056  1.1547 -3.4043
18221TIP3    H276079   4.778   5.172   1.344 -0.6631 -0.7623  0.7351
18222TIP3   OH276080   5.807   5.625   4.794  0.2879  0.3169 -0.1666
18222TIP3    H176081   5.740   5.684   4.760 -1.5450 -1.4427  0.3494
18222TIP3    H276082   5.764   5.575   4.863  1.6811 -1.8952 -0.8313
18223TIP3   OH276083   1.144   3.832   0.172 -0.2462 -0.6551 -0.1000
18223TIP3    H176084   1.088   3.766   0.133 -0.4766 -0.1212 -0.6652
18223TIP3    H276085   1.112   3.915   0.138 -1.0262 -0.0940  1.8981
18224TIP3   OH276086   6.675   3.337  14.432  0.0960  0.4385 -0.0339
18224TIP3    H176087   6.586   3.346  14.397 -0.1773  2.1933  1.0287
18224TIP3    H276088   6.732   3.343  14.355 -0.6308  1.2006 -0.5208
18225TIP3   OH276089   2.937   0.754   2.460 -0.2252  0.3660 -0.0315
18225TIP3    H176090   2.948   0.687   2.392  1.7050  1.3506 -0.7474
18225TIP3    H276091   3.023   0.759   2.502  0.2983  3.8578 -1.4087
18226TIP3   OH276092   2.747   3.588   5.349  0.5486  0.3016 -0.0330
18226TIP3    H176093   2.728   3.537   5.271  0.2390 -0.1508  0.3368
18226TIP3    H276094   2.791   3.666   5.316 -3.5505  2.3193 -1.1606
18227TIP3   OH276095   5.398   4.336   0.601 -1.0776 -0.4817  0.0083
18227TIP3    H176096   5.420   4.414   0.653 -0.6348 -0.8256  0.3355
18227TIP3    H276097   5.458   4.339   0.526 -0.6955 -0.8022  0.3034
18228TIP3   OH276098   5.517   1.646  15.658  0.2161 -0.0803  0.1459
18228TIP3    H176099   5.598   1.603  15.685  0.5904  1.0873  0.9305
18228TIP3    H276100   5.533   1.674  15.568  0.5936 -0.0715  0.2153
18229TIP3   OH276101   1.333   0.525   0.153  0.6447  0.4065  0.2832
18229TIP3    H176102   1.402   0.475   0.110 -0.2302 -2.1990  1.8553
18229TIP3    H276103   1.265   0.534   0.086 -0.3598 -2.9269  0.7783
18230TIP3   OH276104   4.476   4.198  15.525 -0.5449 -0.5608  0.2178
18230TIP3    H176105   4.513   4.267  15.469  1.1424 -2.0560 -0.5833
18230TIP3    H276106   4.501   4.224  15.614  1.2574 -0.7950 -0.1873
18231TIP3   OH276107   4.615   1.711  10.871 -0.2753 -0.4175  0.2686
18231TIP3    H176108   4.526   1.744  10.888  0.1399  1.5210 -1.1416
18231TIP3    H276109   4.630   1.728  10.778  1.7651 -0.2187  0.6099
18232TIP3   OH276110   0.655   4.944   4.510 -0.1798 -0.2890 -0.5059
18232TIP3    H176111   0.613   4.975   4.430 -0.9442 -1.4316 -0.5645
18232TIP3    H276112   0.698   5.021   4.547 -1.7773  0.7532 -0.7950
18233TIP3   OH276113   0.639   4.063  17.090  0.4361 -0.9257 -0.2976
18233TIP3    H176114   0.718   4.045  17.141  1.5013 -0.3243 -1.7147
18233TIP3    H276115   0.642   3.999  17.018  0.0335 -0.4028 -0.7811
18234TIP3   OH276116   6.220   1.287  17.132 -0.1309  0.0174  0.3731
18234TIP3    H176117   6.295   1.319  17.181  0.5208  1.2555 -1.3627
18234TIP3    H276118   6.161   1.363  17.125  0.5985  0.3971 -2.2119
18235TIP3   OH276119   2.794   6.428  10.472 -0.2514 -0.1339 -0.0311
18235TIP3    H176120   2.844   6.381  10.405  0.6754  2.1133 -1.0038
18235TIP3    H276121   2.857   6.443  10.542 -0.7773 -1.0695  0.6479
18236TIP3   OH276122   4.064   5.757  14.607  0.0923 -0.1774  0.4541
18236TIP3    H176123   4.129   5.690  14.583 -1.4406 -1.8087  0.7161
18236TIP3    H276124   4.074   5.825  14.540  1.2601 -0.9472 -0.1811
18237TIP3   OH276125   0.855   3.199  12.657  0.4131 -0.2879  0.1166
18237TIP3    H176126   0.792   3.246  12.712 -0.2859 -0.4307 -0.5483
18237TIP3    H276127   0.870   3.117  12.703  0.0801 -0.2673  0.2695
18238TIP3   OH276128   3.340   2.916   0.163 -0.5259 -0.9695 -0.2163
18238TIP3    H176129   3.368   3.001   0.196 -0.7526 -1.9930  2.8081
18238TIP3    H276130   3.268   2.937   0.103 -0.8460  0.9656  0.7798
18239TIP3   OH276131   1.385   3.594  13.480 -0.0177  0.2392 -0.5208
18239TIP3    H176132   1.366   3.509  13.518 -0.8222  1.7066  2.4476
18239TIP3    H276133   1.308   3.615  13.427 -2.3048  1.5144  3.1537
18240TIP3   OH276134   4.948   1.779  13.494 -0.4932  0.3437 -0.4441
18240TIP3    H176135   4.922   1.746  13.580  1.0061 -0.2097 -0.2012
18240TIP3    H276136   4.887   1.850  13.477 -1.5515 -0.2980  0.5562
18241TIP3   OH276137   0.959   4.702   0.824  0.3576 -0.1524  0.4941
18241TIP3    H176138   1.050   4.726   0.809  0.2895  0.4018  0.9350
18241TIP3    H276139   0.962   4.609   0.849  0.7676 -0.2202  0.1833
18242TIP3   OH276140   6.252   4.170   5.754  0.6108  0.3022 -0.1124
18242TIP3    H176141   6.259   4.172   5.849 -1.7783  0.2431  0.0943
18242TIP3    H276142   6.339   4.141   5.724  1.4540  0.5609  2.0158
18243TIP3   OH276143   4.858   3.688   0.333 -0.2677  0.2376 -0.2707
18243TIP3    H176144   4.840   3.603   0.293  0.0417  0.1840 -0.2980
18243TIP3    H276145   4.829   3.752   0.267 -2.3212  0.1740  0.5442
18244TIP3   OH276146   6.124   5.527   1.614  0.4194  0.1616  0.3409
18244TIP3    H176147   6.105   5.451   1.558  1.2062 -1.3298  2.0508
18244TIP3    H276148   6.051   5.587   1.599 -0.9339 -1.5396  0.0107
18245TIP3   OH276149   1.812   1.479  13.540  0.3989 -0.5334 -0.4524
18245TIP3    H176150   1.817   1.383  13.535  0.6067 -0.4899 -1.0570
18245TIP3    H276151   1.844   1.509  13.455 -3.2120 -0.0355 -1.7008
18246TIP3   OH276152   3.810   3.124  13.344 -0.0738 -0.9900 -0.2726
18246TIP3    H176153   3.797   3.219  13.340 -0.8039 -0.9705  1.7936
18246TIP3    H276154   3.725   3.087  13.319  0.0450 -1.0951 -0.5242
18247TIP3   OH276155   4.971   2.343   3.894 -0.2712  0.0865  0.0039
18247TIP3    H176156   5.056   2.386   3.898 -0.3736  0.2857  0.0522
18247TIP3    H276157   4.908   2.414   3.906 -0.5098  0.2609 -2.1474
18248TIP3   OH276158   1.808   2.114   0.629  0.1744 -0.5609  0.8314
18248TIP3    H176159   1.761   2.064   0.563 -0.7097 -2.2084  2.6567
18248TIP3    H276160   1.901   2.097   0.612 -0.0176 -0.3623 -0.4250
18249TIP3   OH276161   1.614   3.528  15.779 -0.2461 -0.4539  0.4262
18249TIP3    H176162   1.587   3.437  15.771 -1.2155 -0.2363  1.2056
18249TIP3    H276163   1.535   3.575  15.804  0.2772  0.5874  0.1658
18250TIP3   OH276164   1.362   6.747  12.860  0.5486  0.0945 -0.3310
18250TIP3    H176165   1.452   6.723  12.838  0.9087 -0.2765  1.4306
18250TIP3    H276166   1.320   6.664  12.884  0.0291  0.4012 -0.1679
18251TIP3   OH276167   1.213   5.330  13.196  0.0542  0.0361 -0.5935
18251TIP3    H176168   1.280   5.318  13.128  0.7516  0.0039  0.0952
18251TIP3    H276169   1.130   5.328  13.148  0.4211 -2.1691 -1.1951
18252TIP3   OH276170   1.003   1.533  14.597 -0.1810  0.1920 -0.5048
18252TIP3    H176171   1.065   1.604  14.584  1.1382 -0.7164  0.5639
18252TIP3    H276172   0.938   1.568  14.657  0.7738  0.3331  0.4617
18253TIP3   OH276173   5.951   6.351  16.483 -0.0895 -0.7413  0.1817
18253TIP3    H176174   5.999   6.416  16.535  1.7278 -1.3672 -0.6643
18253TIP3    H276175   5.876   6.328  16.537 -0.0545  1.1141  1.0509
18254TIP3   OH276176   1.451   1.404   5.024 -0.3801 -0.5493 -0.5443
18254TIP3    H176177   1.412   1.469   5.082 -0.5232 -2.6604  1.8397
18254TIP3    H276178   1.397   1.407   4.945 -0.8692  1.6297 -0.1760
18255TIP3   OH276179   3.892   1.871   1.526  0.2387 -0.5924  0.2850
18255TIP3    H176180   3.847   1.821   1.594  0.5255 -2.0882 -0.6027
18255TIP3    H276181   3.822   1.900   1.467 -0.0529  1.0407  1.4133
18256TIP3   OH276182   1.727   1.962  13.634 -0.1926 -0.0484  0.3186
18256TIP3    H176183   1.774   2.044  13.616  1.1605 -1.0744 -0.8939
18256TIP3    H276184   1.731   1.914  13.551  0.1505 -1.9228  1.4150
18257TIP3   OH276185   6.042   1.634  15.094  0.2630 -0.3880  0.4367
18257TIP3    H176186   5.956   1.674  15.085  0.5636  0.1895  0.1331
18257TIP3    H276187   6.045   1.568  15.024  0.1768 -0.2235  0.2799
18258TIP3   OH276188   2.077   2.098  14.793 -0.4650 -0.1566  0.3607
18258TIP3    H176189   2.044   2.021  14.746  1.8892 -0.3990 -0.9654
18258TIP3    H276190   2.105   2.158  14.725 -1.8025  1.7048  1.4010
18259TIP3   OH276191   5.113   6.477  14.478  0.7579 -0.4343  0.1052
18259TIP3    H176192   5.044   6.544  14.478  0.8408 -0.3445 -0.7529
18259TIP3    H276193   5.189   6.522  14.516 -0.0819 -0.9984  2.5293
18260TIP3   OH276194   1.819   3.921   4.364 -0.3779  0.8112 -0.2431
18260TIP3    H176195   1.893   3.887   4.414  0.3962  0.7739 -1.4126
18260TIP3    H276196   1.836   4.015   4.356 -0.7910  0.9126  0.0498
18261TIP3   OH276197   1.169   6.047   4.049 -0.6801  0.1230  0.2928
18261TIP3    H176198   1.119   6.040   4.131 -0.7177 -2.5708  0.0779
18261TIP3    H276199   1.130   5.982   3.992  0.6215  0.6512 -1.2299
18262TIP3   OH276200   5.846   6.708  11.049  0.5044  0.0718 -0.1576
18262TIP3    H176201   5.820   6.787  11.002  0.4816  1.6522  2.4462
18262TIP3    H276202   5.942   6.706  11.042  0.5059  0.3337 -0.1886
18263TIP3   OH276203   0.553   0.089  14.395 -0.4489 -0.1870  0.0399
18263TIP3    H176204   0.585   0.089  14.486 -1.0070 -1.0342  0.2502
18263TIP3    H276205   0.536   0.181  14.375 -0.4561 -0.0060  0.8514
18264TIP3   OH276206   5.145   3.459   2.041  0.6015  0.5280 -0.4226
18264TIP3    H176207   5.120   3.394   1.975 -1.0656  0.5042  0.1984
18264TIP3    H276208   5.086   3.533   2.025  1.3787  1.2299 -0.0752
18265TIP3   OH276209   2.872   6.668  12.726 -0.3105  0.3558  0.4535
18265TIP3    H176210   2.904   6.578  12.720  1.4507  1.0490 -1.1509
18265TIP3    H276211   2.777   6.660  12.730 -0.1439 -1.5954  0.7010
18266TIP3   OH276212   2.316   2.975   3.288  0.7482  0.2520  0.1972
18266TIP3    H176213   2.348   2.888   3.266  1.0737  0.1189  1.1607
18266TIP3    H276214   2.280   2.966   3.377  0.7648  1.0877  0.2967
18267TIP3   OH276215   4.792   4.489   5.800  0.5858 -0.3591  0.1049
18267TIP3    H176216   4.882   4.460   5.819  2.0157  2.2005 -2.3185
18267TIP3    H276217   4.786   4.574   5.843 -0.5600 -0.3656 -0.0436
18268TIP3   OH276218   5.464   5.189   1.360  0.0663  0.0987  0.1421
18268TIP3    H176219   5.518   5.251   1.407  1.1954 -2.5818  2.4994
18268TIP3    H276220   5.505   5.182   1.273  0.5699  1.7369  0.2338
18269TIP3   OH276221   5.997   3.605  12.226 -0.6094 -0.8350 -0.0945
18269TIP3    H176222   6.027   3.674  12.285 -0.4865  0.0365 -1.1728
18269TIP3    H276223   6.065   3.538  12.232 -0.9270 -1.0545  1.2624
18270TIP3   OH276224   6.094   2.832  16.946  0.3147  0.5882  0.3469
18270TIP3    H176225   6.100   2.774  17.022  0.3428 -0.6496 -0.5797
18270TIP3    H276226   6.061   2.776  16.875  0.8098  1.5781 -0.6979
18271TIP3   OH276227   4.555   0.148  14.913  0.2728  0.0016  0.4067
18271TIP3    H176228   4.641   0.115  14.885 -0.0263 -0.6282  0.2206
18271TIP3    H276229   4.495   0.076  14.896 -0.7183  1.2677 -1.7740
18272TIP3   OH276230   1.947   3.252  12.854  0.2137 -0.1840 -0.7776
18272TIP3    H176231   1.942   3.158  12.837  1.4740 -0.4148 -0.0234
18272TIP3    H276232   1.962   3.258  12.948  0.1799  0.7755 -0.8270
18273TIP3   OH276233   2.743   2.197  12.903 -0.1482  0.0789 -0.5312
18273TIP3    H176234   2.714   2.268  12.960 -2.1793 -1.1651  0.0632
18273TIP3    H276235   2.704   2.118  12.941 -0.3404 -0.9688 -2.8024
18274TIP3   OH276236   0.370   4.601   5.237 -0.3356  0.0356  0.0605
18274TIP3    H176237   0.413   4.516   5.228 -1.3298 -0.5618  0.8646
18274TIP3    H276238   0.310   4.605   5.162  1.4614  1.1005 -1.3661
18275TIP3   OH276239   1.004   1.713  16.663  0.4497  0.0078  0.0939
18275TIP3    H176240   1.099   1.719  16.658  0.4531 -0.7275 -0.6296
18275TIP3    H276241   0.983   1.623  16.641 -0.5548  0.6440 -1.6731
18276TIP3   OH276242   1.633   1.297  12.938 -0.4364 -0.3070  0.0979
18276TIP3    H176243   1.661   1.229  12.876  2.0920 -0.9812  1.8912
18276TIP3    H276244   1.569   1.252  12.995  0.1543 -0.7857  0.3879
18277TIP3   OH276245   5.579   0.365   0.368  0.8121 -0.1854 -0.6294
18277TIP3    H176246   5.633   0.375   0.290  1.3185 -1.7162 -0.4892
18277TIP3    H276247   5.611   0.285   0.410 -0.5654 -0.2993  0.2550
18278TIP3   OH276248   4.235   2.678  11.300 -0.5410 -0.1754  0.0871
18278TIP3    H176249   4.165   2.664  11.237 -1.0885 -1.3399  0.9374
18278TIP3    H276250   4.192   2.671  11.385  0.2272  1.1782  0.6099
18279TIP3   OH276251   6.181   4.911   5.569  0.1113 -0.0027 -0.0757
18279TIP3    H176252   6.200   4.838   5.510  0.3197 -0.2716  0.3231
18279TIP3    H276253   6.195   4.989   5.515 -0.5834 -0.2600 -0.6464
18280TIP3   OH276254   2.777   5.292   3.765 -0.3198 -0.4520  0.6651
18280TIP3    H176255   2.806   5.256   3.849  0.8703 -2.7896 -0.6934
18280TIP3    H276256   2.812   5.231   3.700 -0.5227  1.7727 -1.5855
18281TIP3   OH276257   0.105   1.118   2.186 -0.0860 -0.1327  1.0206
18281TIP3    H176258   0.184   1.121   2.241  0.7786 -1.1070 -0.1481
18281TIP3    H276259   0.076   1.027   2.193  2.8285 -1.6103 -3.9901
18282TIP3   OH276260   2.565   4.966  13.607  0.4551 -0.2042 -1.0375
18282TIP3    H176261   2.619   5.042  13.585  0.1170 -0.3702 -2.5245
18282TIP3    H276262   2.568   4.912  13.528  0.3421 -1.5370 -0.1426
18283TIP3   OH276263   0.368   0.494  13.492  0.3247  0.0255 -0.0186
18283TIP3    H176264   0.430   0.533  13.554  0.1143 -0.6545  0.6361
18283TIP3    H276265   0.403   0.516  13.406  0.9226  0.5187  0.3405
18284TIP3   OH276266   0.658   3.741  17.091  0.5916  0.6990  0.0262
18284TIP3    H176267   0.596   3.711  17.158  1.7248 -0.1136  0.7404
18284TIP3    H276268   0.664   3.669  17.029  2.5480 -0.2077  1.1996
18285TIP3   OH276269   6.061   1.901  17.102  0.0659 -0.0341  0.1746
18285TIP3    H176270   6.125   1.931  17.036  1.4710 -3.1487  0.0541
18285TIP3    H276271   6.115   1.871  17.175 -1.3296 -1.1659  0.7547
18286TIP3   OH276272   6.129   4.661  13.458 -0.4949 -0.4095  0.6519
18286TIP3    H176273   6.132   4.608  13.379 -0.0810 -0.4035  0.6622
18286TIP3    H276274   6.042   4.700  13.458  0.0106  0.7389 -0.5459
18287TIP3   OH276275   3.539   4.544  14.010  0.1714  0.6923 -0.0155
18287TIP3    H176276   3.595   4.523  13.936  0.0589  1.5498 -0.3524
18287TIP3    H276277   3.491   4.622  13.983 -2.2159 -0.8091 -0.2918
18288TIP3   OH276278   1.807   2.651  13.696  0.4376 -0.5297  0.2397
18288TIP3    H176279   1.771   2.727  13.742  0.9366  0.3312 -0.7652
18288TIP3    H276280   1.896   2.642  13.731  0.4038 -0.6121  0.3060
18289TIP3   OH276281   5.566   2.740  13.455  0.0932  0.2649  0.3360
18289TIP3    H176282   5.627   2.783  13.515  1.7311  0.4593 -1.4188
18289TIP3    H276283   5.528   2.811  13.404  0.9849 -0.1346 -0.9090
18290TIP3   OH276284   3.636   6.766  16.684 -0.7207  0.8508 -0.2955
18290TIP3    H176285   3.709   6.827  16.697 -0.9422  0.9206  0.6180
18290TIP3    H276286   3.560   6.822  16.670 -0.8664  0.7779  0.2202
18291TIP3   OH276287   6.397   0.616   5.668  0.1110 -0.7934  0.2973
18291TIP3    H176288   6.385   0.550   5.737 -1.6007  0.1038  0.8963
18291TIP3    H276289   6.323   0.602   5.609 -1.0928  1.5061  1.2026
18292TIP3   OH276290   6.734   1.426   5.071  0.0413  0.4372 -0.8909
18292TIP3    H176291   6.728   1.513   5.110 -2.5148 -0.2240  0.2839
18292TIP3    H276292   6.672   1.428   4.997  1.8528  0.4060 -2.4397
18293TIP3   OH276293   1.547   2.740   5.341 -0.3021 -0.2733 -0.5651
18293TIP3    H176294   1.604   2.665   5.328 -0.3249 -0.0912 -1.7808
18293TIP3    H276295   1.471   2.705   5.387  0.9444 -0.4449  1.4351
18294TIP3   OH276296   0.735   4.794  16.722  0.2819  0.0002  0.0504
18294TIP3    H176297   0.665   4.778  16.659 -1.0282 -1.6817  1.8685
18294TIP3    H276298   0.767   4.707  16.745  0.4870  0.5581  1.9703
18295TIP3   OH276299   3.638   2.043   5.237 -0.1704  0.1575 -0.1275
18295TIP3    H176300   3.634   1.948   5.250  0.4771  0.2271  0.6073
18295TIP3    H276301   3.689   2.076   5.311  0.7033  0.9337 -1.0506
18296TIP3   OH276302   4.585   3.193  11.726  0.1921  0.6786  0.2593
18296TIP3    H176303   4.647   3.187  11.653 -0.5422  1.5670 -0.4558
18296TIP3    H276304   4.554   3.283  11.724 -1.0724  0.2628  0.6417
18297TIP3   OH276305   4.937   5.619   2.608  0.0944  0.0832  0.5155
18297TIP3    H176306   4.848   5.629   2.641 -0.1952 -0.3326 -0.1213
18297TIP3    H276307   4.974   5.547   2.660 -0.1981 -0.2466  0.2718
18298TIP3   OH276308   2.203   2.699  14.784 -0.0486 -0.4742 -0.1480
18298TIP3    H176309   2.215   2.732  14.695  2.1486  0.3625  0.4330
18298TIP3    H276310   2.119   2.736  14.812 -0.4857 -0.2990 -1.6834
18299TIP3   OH276311   4.858   3.589   0.594 -0.5241  0.2401 -0.4833
18299TIP3    H176312   4.836   3.624   0.507 -2.0293 -1.4681 -0.8129
18299TIP3    H276313   4.865   3.666   0.650  0.5912  1.3741 -2.1380
18300TIP3   OH276314   3.905   4.751   2.629 -0.0224  0.1726 -0.6530
18300TIP3    H176315   3.938   4.838   2.651  0.8584 -0.0518 -1.0587
18300TIP3    H276316   3.982   4.694   2.631 -0.9173 -1.0216  1.6760
18301TIP3   OH276317   4.031   2.069   2.505 -1.1637  0.4133  0.1769
18301TIP3    H176318   4.059   2.147   2.553  3.0394 -1.6067  1.2134
18301TIP3    H276319   3.993   2.012   2.572 -2.0904  0.6166 -0.1738
18302TIP3   OH276320   3.900   4.606   5.879 -0.3582  0.7520  0.2789
18302TIP3    H176321   3.879   4.602   5.973  1.3233  1.0790  0.6788
18302TIP3    H276322   3.989   4.573   5.872  0.1966  2.4045 -0.9688
18303TIP3   OH276323   5.695   4.484   5.860 -0.2172 -0.0418 -0.0591
18303TIP3    H176324   5.651   4.428   5.923 -1.3928 -0.6641 -1.4140
18303TIP3    H276325   5.770   4.433   5.830 -0.6725 -0.4592 -0.4891
18304TIP3   OH276326   0.245   0.748  17.196 -0.1721 -0.1962  0.1109
18304TIP3    H176327   0.172   0.728  17.254  1.2933  1.8999  2.7708
18304TIP3    H276328   0.302   0.806  17.247  2.8996 -1.0362 -2.1911
18305TIP3   OH276329   4.908   3.942   3.550  0.7867 -0.5063  0.2689
18305TIP3    H176330   4.851   4.014   3.522  0.3194 -0.7433  0.6010
18305TIP3    H276331   4.988   3.985   3.580  0.1726 -0.0644  1.2901
18306TIP3   OH276332   1.867   4.024  15.381  0.4912  0.1170 -0.2297
18306TIP3    H176333   1.819   3.948  15.347  1.4556  0.2941 -2.0860
18306TIP3    H276334   1.959   4.002  15.366  0.7990  1.3867 -0.2310
18307TIP3   OH276335   1.958   2.703   5.630 -0.2949  0.6104  0.2326
18307TIP3    H176336   1.969   2.763   5.703  0.2505 -0.6250  1.1869
18307TIP3    H276337   2.002   2.623   5.658  1.9325  0.8608 -2.3890
18308TIP3   OH276338   2.314   5.042   0.108 -0.1334  0.0402  0.0645
18308TIP3    H176339   2.268   5.060   0.190  2.2689 -0.4672  1.5665
18308TIP3    H276340   2.324   4.947   0.106  0.9751  0.1594 -0.1927
18309TIP3   OH276341   4.661   2.259   2.060  0.6754  0.0981  0.0996
18309TIP3    H176342   4.617   2.334   2.021  1.5225  0.1929 -0.7055
18309TIP3    H276343   4.751   2.288   2.074  0.8264 -0.5256  0.4828
18310TIP3   OH276344   3.519   2.257  11.829 -0.0795 -0.3278  0.3274
18310TIP3    H176345   3.536   2.182  11.887 -0.1906 -1.7375 -1.4269
18310TIP3    H276346   3.491   2.326  11.888  3.0749 -0.6639  2.3579
18311TIP3   OH276347   2.585   4.140   5.038  0.3693  0.2806 -0.0323
18311TIP3    H176348   2.568   4.058   4.992 -0.8787  0.9405 -0.7673
18311TIP3    H276349   2.653   4.118   5.102  3.2350 -0.3355 -3.1021
18312TIP3   OH276350   0.058   5.678   0.696 -0.5460 -0.1157  0.3641
18312TIP3    H176351   0.025   5.740   0.631 -0.0748  0.3083  0.5278
18312TIP3    H276352   0.118   5.730   0.751  0.6311 -0.9408 -0.1140
18313TIP3   OH276353   5.971   1.888   2.677  0.4728 -0.1215 -0.4470
18313TIP3    H176354   6.067   1.887   2.673  0.6056  1.6571  1.3525
18313TIP3    H276355   5.948   1.981   2.675 -1.1914 -0.5151 -0.4177
18314TIP3   OH276356   1.500   3.497   1.196  0.1585  0.1333 -0.1021
18314TIP3    H176357   1.499   3.510   1.290 -1.3444  0.5171 -0.1575
18314TIP3    H276358   1.592   3.496   1.172  0.6222 -1.9381  1.6425
18315TIP3   OH276359   6.080   0.402  16.848  0.3614  0.2368  0.5199
18315TIP3    H176360   6.167   0.416  16.810  0.2692 -1.5805 -0.3944
18315TIP3    H276361   6.020   0.406  16.773 -0.4482  2.1684  1.2290
18316TIP3   OH276362   1.556   5.108  17.116 -0.0933  0.3517 -0.4687
18316TIP3    H176363   1.641   5.081  17.083  0.0897 -0.8260  0.8980
18316TIP3    H276364   1.530   5.181  17.060  1.7497  0.6444 -0.9716
18317TIP3   OH276365   0.651   2.798  15.980 -0.3937 -0.5104  0.0192
18317TIP3    H176366   0.594   2.875  15.982  0.7431  0.3141  1.1868
18317TIP3    H276367   0.737   2.830  16.005  0.7212 -1.6649 -2.1381
18318TIP3   OH276368   1.389   2.888  13.953 -0.7047 -0.0018  0.6217
18318TIP3    H176369   1.342   2.962  13.992 -0.9532  0.1804 -0.0107
18318TIP3    H276370   1.378   2.900  13.859  1.4596  0.6052  0.4114
18319TIP3   OH276371   6.750   2.990   4.453 -0.5377  0.3176 -0.0499
18319TIP3    H176372   6.780   2.900   4.465  1.0285  0.5439 -1.8356
18319TIP3    H276373   6.655   2.985   4.456 -0.4300 -0.9544  2.5645
18320TIP3   OH276374   3.561   2.126   6.406  0.1571 -0.4043  0.3206
18320TIP3    H176375   3.517   2.074   6.474 -2.4051  1.2094 -0.0310
18320TIP3    H276376   3.490   2.176   6.364  1.9674  0.1748 -2.1812
18321TIP3   OH276377   5.696   2.384  15.698 -0.2415  0.4844 -0.1298
18321TIP3    H176378   5.715   2.300  15.739 -0.2267  0.9219  0.7637
18321TIP3    H276379   5.762   2.392  15.629  1.1745  0.7887  1.2337
18322TIP3   OH276380   3.707   0.355  11.862  0.3918  0.6664  0.4494
18322TIP3    H176381   3.615   0.340  11.884  0.2189  1.6476  0.4000
18322TIP3    H276382   3.736   0.272  11.824 -0.8771  0.8182 -0.8902
18323TIP3   OH276383   1.449   4.769  17.034 -0.1904  0.4688  0.0915
18323TIP3    H176384   1.396   4.788  16.956 -2.2172 -0.9888  1.0587
18323TIP3    H276385   1.399   4.806  17.107  1.5574  1.5980  0.7581
18324TIP3   OH276386   2.068   0.658   1.145 -0.9374 -0.0139  0.4835
18324TIP3    H176387   2.137   0.721   1.124 -1.3451  0.9936  2.0750
18324TIP3    H276388   2.035   0.630   1.059  1.9098 -1.0684 -0.3237
18325TIP3   OH276389   4.397   1.996   2.166  0.0091  0.1048  0.5112
18325TIP3    H176390   4.350   1.950   2.097  1.8763 -0.1499 -0.6254
18325TIP3    H276391   4.387   1.939   2.243 -0.2598 -0.6864 -0.1030
18326TIP3   OH276392   3.298   5.029  16.427 -0.6627  0.4588 -0.0858
18326TIP3    H176393   3.346   4.977  16.362 -0.1752 -1.0685  1.4350
18326TIP3    H276394   3.341   5.114  16.428  0.7385 -0.2435 -0.1788
18327TIP3   OH276395   3.721   4.051  14.086 -0.6328  0.0220  0.1133
18327TIP3    H176396   3.802   4.077  14.042  0.2480 -1.0075  1.1106
18327TIP3    H276397   3.737   3.962  14.116 -1.9492  0.0006  0.7990
18328TIP3   OH276398   3.591   0.427   3.673 -0.4064  0.2973  0.5774
18328TIP3    H176399   3.515   0.424   3.732 -1.0773  1.1200 -0.2262
18328TIP3    H276400   3.561   0.381   3.594  0.3462 -0.4356  0.7148
18329TIP3   OH276401   2.972   3.357  13.129 -0.4189 -0.0774  0.3139
18329TIP3    H176402   2.992   3.403  13.048  0.7121  1.2412  1.3056
18329TIP3    H276403   2.985   3.423  13.198  1.9084 -2.0036  1.8198
18330TIP3   OH276404   4.909   4.165   5.013 -0.4680  0.5413  0.2387
18330TIP3    H176405   4.997   4.148   4.978  0.1658  0.8023  1.6765
18330TIP3    H276406   4.877   4.079   5.039 -1.1423  0.2770 -1.4157
18331TIP3   OH276407   0.541   4.252  15.381  0.3109 -0.0624 -0.0405
18331TIP3    H176408   0.523   4.346  15.369 -0.9641 -0.2456  0.4014
18331TIP3    H276409   0.536   4.216  15.292 -0.1979  0.1173 -0.0876
18332TIP3   OH276410   3.440   3.057  12.444 -0.2192 -0.5719  0.1965
18332TIP3    H176411   3.358   3.069  12.396 -0.2258  3.1323  0.9308
18332TIP3    H276412   3.414   3.021  12.528 -0.6586 -2.9110 -0.8931
18333TIP3   OH276413   5.569   4.321  14.556 -0.1929  0.1656  0.2296
18333TIP3    H176414   5.627   4.344  14.483  1.1686 -1.9462  0.6127
18333TIP3    H276415   5.629   4.300  14.628 -1.4335 -1.4581  0.8135
18334TIP3   OH276416   5.094   0.991  10.245  0.6079 -0.5802 -0.5827
18334TIP3    H176417   5.154   1.049  10.292  0.2419  0.2137 -1.0913
18334TIP3    H276418   5.142   0.908  10.237  0.2542 -1.0907  2.1593
18335TIP3   OH276419   4.196   2.923   1.318  0.0432 -0.2780 -0.3120
18335TIP3    H176420   4.196   2.861   1.391  0.1013 -0.1178 -0.1771
18335TIP3    H276421   4.285   2.921   1.285  0.3039  0.4976  0.3365
18336TIP3   OH276422   5.308   1.615   5.772 -0.2851 -0.8479 -0.0084
18336TIP3    H176423   5.280   1.682   5.835  0.1984 -0.1987 -0.4843
18336TIP3    H276424   5.352   1.663   5.703 -0.5065 -1.5992 -0.6861
18337TIP3   OH276425   2.241   1.843  11.162  0.1200  0.4670 -0.1056
18337TIP3    H176426   2.195   1.927  11.167 -1.1066 -0.0618 -1.7108
18337TIP3    H276427   2.256   1.830  11.068 -1.0019 -1.7469 -0.0280
18338TIP3   OH276428   0.431   6.697   1.074  0.5963 -0.3045  0.3353
18338TIP3    H176429   0.384   6.684   0.992 -1.2499 -2.5422  1.6594
18338TIP3    H276430   0.461   6.788   1.071 -1.8663  0.5089 -1.5875
18339TIP3   OH276431   5.808   6.454   6.490 -0.2893  0.1267  0.0060
18339TIP3    H176432   5.749   6.516   6.446 -0.4759 -0.6280 -0.8299
18339TIP3    H276433   5.895   6.493   6.480 -0.2849 -0.1814 -1.3358
18340TIP3   OH276434   1.619   0.022  13.156 -0.2093 -0.0817 -0.4772
18340TIP3    H176435   1.593  -0.004  13.244 -0.8601  1.1012 -0.3019
18340TIP3    H276436   1.540   0.011  13.103  0.1987 -0.8590 -0.9295
18341TIP3   OH276437   1.816   3.207   3.600 -0.1868 -0.0535  0.0215
18341TIP3    H176438   1.735   3.194   3.650  0.4732 -0.7822  0.9119
18341TIP3    H276439   1.858   3.121   3.598  1.8056  0.8365  1.7337
18342TIP3   OH276440   2.269   3.635  10.864 -0.1646 -0.1104  0.1645
18342TIP3    H176441   2.272   3.612  10.771  3.8065  0.9971 -0.0700
18342TIP3    H276442   2.279   3.552  10.910 -2.5995 -0.7215 -0.3099
18343TIP3   OH276443   5.930   1.715  12.248  0.7058 -0.3995 -0.4230
18343TIP3    H176444   5.886   1.718  12.163 -1.6759  1.4646  0.8127
18343TIP3    H276445   5.976   1.630  12.248 -0.4371 -1.0765 -2.9516
18344TIP3   OH276446   2.875   6.602   1.156 -0.3423  0.3797  0.5956
18344TIP3    H176447   2.822   6.525   1.136  0.3594 -0.4039  1.6649
18344TIP3    H276448   2.847   6.629   1.243 -0.8802  1.5983  0.0531
18345TIP3   OH276449   0.688   5.776  11.398  0.0626 -0.3013  0.1293
18345TIP3    H176450   0.682   5.681  11.385 -0.6831 -0.0530 -1.4173
18345TIP3    H276451   0.764   5.787  11.455 -0.3634 -1.8889  1.0470
18346TIP3   OH276452   0.088   3.092   4.229 -0.1351 -0.1061  0.4720
18346TIP3    H176453   0.048   3.063   4.311 -0.1934  0.4696  0.6490
18346TIP3    H276454   0.014   3.124   4.177 -0.3017 -1.8247 -0.3897
18347TIP3   OH276455   3.267   2.337  13.651  0.0361  0.0766 -0.5617
18347TIP3    H176456   3.237   2.251  13.624  0.2494  0.1077 -0.8944
18347TIP3    H276457   3.187   2.389  13.662 -0.1220 -0.3225  0.1728
18348TIP3   OH276458   2.578   1.121   5.415  0.5789  0.0034 -0.0210
18348TIP3    H176459   2.523   1.199   5.426  0.6945  0.0778  0.0380
18348TIP3    H276460   2.572   1.100   5.322 -1.0281 -1.0922  0.3171
18349TIP3   OH276461   0.979   0.716  11.169 -0.0877 -0.7102 -0.2005
18349TIP3    H176462   1.016   0.766  11.097  0.1123 -0.5026  0.0475
18349TIP3    H276463   0.884   0.720  11.156 -0.0576 -0.5264 -0.3510
18350TIP3   OH276464   3.832   2.043   3.560 -0.1741  0.0370  0.3750
18350TIP3    H176465   3.858   1.983   3.630 -0.5617  0.9823  1.3489
18350TIP3    H276466   3.914   2.070   3.520  0.1725  0.6798  1.4794
18351TIP3   OH276467   1.612   2.015  11.686 -0.1682 -0.2818 -0.3125
18351TIP3    H176468   1.647   2.019  11.775 -1.6450 -1.1360  0.3212
18351TIP3    H276469   1.575   1.926  11.678  0.2873 -0.3537 -1.9040
18352TIP3   OH276470   6.554   3.852  10.538  0.0529 -0.4351 -0.2400
18352TIP3    H176471   6.486   3.877  10.476 -1.6534 -1.2020  1.2667
18352TIP3    H276472   6.594   3.774  10.500 -0.1965 -0.2347 -0.9237
18353TIP3   OH276473   1.442   5.032  16.778 -0.3259  0.4992 -0.1955
18353TIP3    H176474   1.434   4.936  16.777  0.4642  0.4380 -2.5792
18353TIP3    H276475   1.536   5.048  16.769 -0.5133  1.5223 -0.3252
18354TIP3   OH276476   5.310   3.440   3.326 -0.3756  0.2673 -0.4351
18354TIP3    H176477   5.297   3.345   3.327  0.1098  0.0939 -3.7053
18354TIP3    H276478   5.277   3.467   3.240 -2.0078  3.3091  1.0869
18355TIP3   OH276479   4.904   6.611  14.152  0.0556  0.5238  0.5805
18355TIP3    H176480   4.934   6.677  14.214  1.6258  2.9902 -2.6930
18355TIP3    H276481   4.810   6.627  14.144  0.0204  0.8326  1.5044
18356TIP3   OH276482   2.941   6.183  16.092 -0.2309  0.5663 -0.0253
18356TIP3    H176483   2.968   6.274  16.097 -1.4169  0.8843  0.7191
18356TIP3    H276484   3.016   6.138  16.053  0.1328  1.9465 -0.9436
18357TIP3   OH276485   2.131   5.635   1.094 -0.1843 -0.4886 -0.0489
18357TIP3    H176486   2.108   5.573   1.163 -0.3350 -0.3113  0.0595
18357TIP3    H276487   2.130   5.583   1.014 -1.1201 -0.4434 -0.0659
18358TIP3   OH276488   2.745   6.177  14.670  0.0877  0.2707 -0.2176
18358TIP3    H176489   2.795   6.163  14.589 -0.2285  0.6684 -0.4797
18358TIP3    H276490   2.779   6.259  14.705  1.3945 -0.7392  0.9191
18359TIP3   OH276491   1.158   1.921   2.621 -0.1699 -0.2865 -0.2619
18359TIP3    H176492   1.134   1.871   2.543 -0.4018  0.5444 -0.7218
18359TIP3    H276493   1.084   1.909   2.681  0.1476 -1.1845 -0.0328
18360TIP3   OH276494   0.667   2.285  15.490  0.8730  0.2115  0.1854
18360TIP3    H176495   0.644   2.245  15.406  0.5675 -1.0122  0.8390
18360TIP3    H276496   0.583   2.310  15.529  1.0206  0.8825  0.0815
18361TIP3   OH276497   1.519   2.604   4.262  0.1981  0.1841  0.1055
18361TIP3    H176498   1.447   2.643   4.313 -0.3470 -1.3204  0.5216
18361TIP3    H276499   1.579   2.569   4.329  0.4481 -0.0767 -0.2555
18362TIP3   OH276500   6.542   5.089   0.396  0.5437 -0.0881 -0.0343
18362TIP3    H176501   6.551   5.183   0.378  2.7290 -0.4670 -1.1135
18362TIP3    H276502   6.555   5.048   0.310 -0.9906 -1.3629  0.3260
18363TIP3   OH276503   6.023   4.009   1.892  0.0035 -0.4682 -0.6770
18363TIP3    H176504   6.092   3.960   1.937 -1.2263 -1.6609 -0.0786
18363TIP3    H276505   5.970   4.046   1.962 -0.3129 -0.0279 -1.1444
18364TIP3   OH276506   6.682   5.010   4.891  0.4059 -0.1752 -0.1079
18364TIP3    H176507   6.751   4.944   4.899  0.0807 -0.3555  1.2331
18364TIP3    H276508   6.626   4.978   4.820  0.9992 -0.6481 -0.3673
18365TIP3   OH276509   0.943   1.007   1.397 -0.1015 -0.1836 -0.0833
18365TIP3    H176510   0.962   1.082   1.453  0.4806 -0.9226  0.7156
18365TIP3    H276511   0.861   1.029   1.354 -0.7581  0.2086  1.3683
18366TIP3   OH276512   5.619   1.172  11.507  1.0806  0.1165 -0.3724
18366TIP3    H176513   5.712   1.187  11.488  1.4534 -1.4272  0.1390
18366TIP3    H276514   5.616   1.081  11.537 -0.9788 -0.7320 -2.9894
18367TIP3   OH276515   4.277   5.569  15.147 -0.4325 -0.5076 -0.1250
18367TIP3    H176516   4.359   5.542  15.190  0.2645  1.7057  0.0075
18367TIP3    H276517   4.220   5.493  15.155  0.6365 -1.1211  2.3083
18368TIP3   OH276518   3.653   6.663  10.528  0.4339 -0.6315  0.2922
18368TIP3    H176519   3.712   6.596  10.562  0.4715  0.4148  2.3707
18368TIP3    H276520   3.711   6.727  10.487  0.4105 -1.7227 -1.5307
18369TIP3   OH276521   3.826   3.334   1.569  0.5253 -0.0917 -0.1190
18369TIP3    H176522   3.917   3.352   1.592  0.4950  0.3909 -0.3782
18369TIP3    H276523   3.830   3.260   1.508  0.8008  0.4304 -0.7419
18370TIP3   OH276524   0.542   5.609  14.667 -0.1726 -0.1427 -0.4881
18370TIP3    H176525   0.492   5.663  14.605  0.1700 -0.7499 -1.2908
18370TIP3    H276526   0.494   5.526  14.671  0.0743 -0.2759 -0.2958
18371TIP3   OH276527   2.934   3.937   0.797  0.5331  0.1658  0.1096
18371TIP3    H176528   2.905   3.879   0.867 -2.7536 -0.8676 -1.9736
18371TIP3    H276529   2.861   3.997   0.784  2.0094  1.7623 -0.9210
18372TIP3   OH276530   0.434   3.026   5.161 -0.0788  0.1625 -0.4807
18372TIP3    H176531   0.348   2.988   5.144 -0.0116  0.5332 -1.6788
18372TIP3    H276532   0.436   3.039   5.256 -1.5946  0.7764 -0.5147
18373TIP3   OH276533   1.554   3.161   1.119  0.0304  0.0155  0.0719
18373TIP3    H176534   1.609   3.233   1.150 -1.0163  0.3071  1.2772
18373TIP3    H276535   1.615   3.101   1.076  1.1469  0.7993  0.5439
18374TIP3   OH276536   5.320   5.778  12.463 -0.0296  0.4308 -0.1172
18374TIP3    H176537   5.395   5.773  12.523 -1.2245  0.6334  1.4065
18374TIP3    H276538   5.310   5.872  12.446  0.0519  0.4037 -0.3169
18375TIP3   OH276539   1.626   5.406  13.491 -0.7674  0.0122 -0.1971
18375TIP3    H176540   1.704   5.402  13.546 -0.9383  1.1227  0.1573
18375TIP3    H276541   1.610   5.500  13.480 -2.8976 -0.1789  0.9616
18376TIP3   OH276542   0.316   2.744   5.966 -0.2849  0.5975 -0.4490
18376TIP3    H176543   0.238   2.799   5.958  0.0774  1.6360  2.5114
18376TIP3    H276544   0.315   2.690   5.887 -1.5495  3.6867 -2.6708
18377TIP3   OH276545   6.319   1.592  16.797  0.9336  0.8219 -1.2576
18377TIP3    H176546   6.382   1.564  16.863  1.2533  1.7590 -1.1578
18377TIP3    H276547   6.330   1.530  16.725 -0.1962 -0.8797  0.0173
18378TIP3   OH276548   5.209   2.131   2.795  0.2079  0.0577 -0.1968
18378TIP3    H176549   5.213   2.106   2.887 -1.2986 -1.4931 -0.5394
18378TIP3    H276550   5.257   2.215   2.791  0.2299  0.1714  1.9837
18379TIP3   OH276551   2.422   3.478  11.034 -0.3236 -0.2488 -0.0235
18379TIP3    H176552   2.435   3.390  11.070 -1.5648 -0.3563  0.1601
18379TIP3    H276553   2.510   3.517  11.035  0.3873 -1.7913 -0.9249
18380TIP3   OH276554   5.656   4.939  12.620 -0.2022 -0.3046 -0.4210
18380TIP3    H176555   5.690   4.880  12.553  0.9610 -0.4016  0.2409
18380TIP3    H276556   5.729   4.997  12.641 -1.1031  0.8911 -0.5103
18381TIP3   OH276557   3.589   5.299  14.195  0.2032 -0.6035  0.4371
18381TIP3    H176558   3.683   5.294  14.179  0.1320  1.3817 -0.7500
18381TIP3    H276559   3.555   5.213  14.168  1.4827 -0.8278 -0.4945
18382TIP3   OH276560   2.316   2.990   2.168  0.2548  0.2425 -0.1170
18382TIP3    H176561   2.377   2.926   2.205 -0.6280  0.5522  1.9851
18382TIP3    H276562   2.234   2.941   2.158  0.6185  0.0189 -2.2538
18383TIP3   OH276563   6.129   3.674  15.580  0.1451 -0.2721  0.1845
18383TIP3    H176564   6.223   3.664  15.592  0.1176  0.7664  1.4086
18383TIP3    H276565   6.121   3.757  15.532 -0.0468 -1.5186 -2.0085
18384TIP3   OH276566   3.833   3.741  13.962 -0.1710  0.2343 -0.1671
18384TIP3    H176567   3.900   3.751  14.029 -0.2830 -2.3850  0.3889
18384TIP3    H276568   3.880   3.754  13.879  1.4701 -3.2948  0.1218
18385TIP3   OH276569   0.169   4.762   1.450 -0.0261  0.5757 -0.5845
18385TIP3    H176570   0.243   4.797   1.500  1.2345 -1.9919 -0.6210
18385TIP3    H276571   0.204   4.744   1.363 -1.5561  2.4365 -1.6387
18386TIP3   OH276572   1.861   3.388   2.132 -0.2501 -0.2310  0.1694
18386TIP3    H176573   1.832   3.475   2.162  1.1500  0.2248  0.2592
18386TIP3    H276574   1.790   3.329   2.158 -0.8892  0.7793  0.7749
18387TIP3   OH276575   4.620   1.949  12.349 -0.3520  0.0729  0.4522
18387TIP3    H176576   4.524   1.946  12.340 -0.3111 -0.0344  0.0399
18387TIP3    H276577   4.635   1.964  12.442 -0.8024  1.4295  0.3244
18388TIP3   OH276578   4.755   4.368   4.918 -0.2475  0.5597 -0.0012
18388TIP3    H176579   4.798   4.302   4.974 -3.0832 -0.6605  0.7987
18388TIP3    H276580   4.768   4.336   4.829 -0.2471 -0.2658  0.2918
18389TIP3   OH276581   0.542   1.941   3.604 -0.0958  0.5779 -0.5031
18389TIP3    H176582   0.589   2.010   3.557  0.8656 -0.2902 -0.8308
18389TIP3    H276583   0.608   1.902   3.661 -0.1628 -1.2419 -1.6153
18390TIP3   OH276584   0.997   1.826   2.842 -0.2908  0.1203  0.3227
18390TIP3    H176585   0.978   1.754   2.903 -0.6230 -0.0215  0.0552
18390TIP3    H276586   0.918   1.880   2.844 -0.1376  0.3431  0.3333
18391TIP3   OH276587   1.160   4.875  13.833  0.1341  0.4435 -0.0863
18391TIP3    H176588   1.095   4.807  13.813 -0.6872  0.8523  1.0973
18391TIP3    H276589   1.151   4.939  13.763 -1.1768  0.8028  0.4064
18392TIP3   OH276590   1.545   0.553  15.193 -0.2168 -0.0995 -0.4171
18392TIP3    H176591   1.454   0.581  15.195 -0.0851  0.2984  0.7873
18392TIP3    H276592   1.542   0.458  15.197 -0.5849 -0.0898 -0.4659
18393TIP3   OH276593   1.467   1.988   4.907 -0.0669  0.0038  1.0234
18393TIP3    H176594   1.529   2.004   4.978 -1.4117 -0.4605  2.3372
18393TIP3    H276595   1.387   1.958   4.951 -0.4210 -1.8623 -0.7908
18394TIP3   OH276596   4.123   0.224  14.761  0.0133 -0.5519  0.1690
18394TIP3    H176597   4.071   0.144  14.768  0.8226 -1.2136 -1.1372
18394TIP3    H276598   4.060   0.291  14.736 -0.3646 -1.1691 -0.5626
18395TIP3   OH276599   2.471   1.029   0.027 -0.8440  0.2606 -0.5210
18395TIP3    H176600   2.448   0.967  -0.042 -1.6478  2.4567 -2.2906
18395TIP3    H276601   2.397   1.025   0.088 -1.1734 -0.0448 -0.9401
18396TIP3   OH276602   5.295   6.237  15.406 -0.1959  0.0879  0.6431
18396TIP3    H176603   5.327   6.193  15.327 -0.1496 -0.9827  1.2544
18396TIP3    H276604   5.361   6.304  15.424 -0.5895  0.8456 -0.6521
18397TIP3   OH276605   4.084   2.929   0.047  0.4622 -0.0083 -0.0433
18397TIP3    H176606   4.059   2.881   0.126  1.5003  0.2932  0.4764
18397TIP3    H276607   4.135   2.867  -0.005 -1.3007 -0.6206 -1.1011
18398TIP3   OH276608   6.322   1.356  13.101  0.8614  0.3179  0.3358
18398TIP3    H176609   6.346   1.439  13.142  1.3433  0.5271 -0.3626
18398TIP3    H276610   6.226   1.356  13.099  0.8810  2.3883 -2.7414
18399TIP3   OH276611   0.078   0.511   5.374  0.1753 -0.4515  0.5910
18399TIP3    H176612   0.023   0.557   5.437 -0.4298  1.5450 -1.3359
18399TIP3    H276613   0.019   0.486   5.303  1.5321  0.7946 -1.0188
18400TIP3   OH276614   6.730   3.880   2.873 -0.6780 -0.0196 -0.2315
18400TIP3    H176615   6.793   3.949   2.898 -0.7285  0.1526 -0.5773
18400TIP3    H276616   6.785   3.807   2.846 -0.6208  0.4449 -1.4004
18401TIP3   OH276617   5.591   6.336   2.348 -0.0567  0.3392 -0.4400
18401TIP3    H176618   5.594   6.423   2.389 -1.6366  0.6563 -0.9417
18401TIP3    H276619   5.556   6.279   2.416 -0.0782  0.3230 -0.4648
18402TIP3   OH276620   1.813   4.341  11.046 -0.0782 -0.2719 -0.0899
18402TIP3    H176621   1.736   4.286  11.032 -0.2709  0.4376 -1.9773
18402TIP3    H276622   1.834   4.376  10.959  1.0372  1.3018  0.7801
18403TIP3   OH276623   1.338   0.892   3.664  0.1388 -0.9279 -0.8554
18403TIP3    H176624   1.253   0.936   3.663  0.0833 -0.9548  0.6478
18403TIP3    H276625   1.386   0.930   3.591 -1.4113 -1.4371 -2.1769
18404TIP3   OH276626   2.242   2.535  14.237  0.1036 -0.0722 -0.4324
18404TIP3    H176627   2.209   2.460  14.187 -0.4608 -0.8863  1.1246
18404TIP3    H276628   2.271   2.497  14.320  2.2833  1.0597 -0.6589
18405TIP3   OH276629   0.672   5.394   2.781 -0.6460 -0.6052  0.0889
18405TIP3    H176630   0.652   5.425   2.869 -2.1119 -0.8940 -0.1253
18405TIP3    H276631   0.626   5.455   2.723 -0.5169 -1.0081 -0.4460
18406TIP3   OH276632   0.843   0.764  11.797  0.0895 -0.0224  0.2939
18406TIP3    H176633   0.799   0.703  11.738 -1.1585  0.3418  0.8302
18406TIP3    H276634   0.826   0.730  11.884  1.7895 -0.4605  0.4711
18407TIP3   OH276635   2.260   2.891   1.535 -0.0565 -0.0589 -0.5850
18407TIP3    H176636   2.193   2.921   1.596  0.6290 -0.5449  0.4225
18407TIP3    H276637   2.230   2.922   1.450 -2.6910 -2.2000 -0.4944
18408TIP3   OH276638   5.380   5.463   1.775 -0.4162  0.2016  0.3032
18408TIP3    H176639   5.316   5.426   1.714 -0.0641 -0.8397  0.5623
18408TIP3    H276640   5.326   5.508   1.840 -0.8515  0.0181  0.0781
18409TIP3   OH276641   4.792   4.435  11.709  0.5494 -0.0539 -0.5419
18409TIP3    H176642   4.767   4.437  11.801 -0.5246  1.6212 -0.8423
18409TIP3    H276643   4.888   4.433  11.710  0.5174 -1.2694  0.6124
18410TIP3   OH276644   4.115   2.216   4.487  0.2358  0.0671  0.8191
18410TIP3    H176645   4.030   2.259   4.494  0.2242  0.4626 -1.2135
18410TIP3    H276646   4.177   2.289   4.481  0.6573 -0.2202  1.7010
18411TIP3   OH276647   2.375   4.561   6.310  0.0575  0.1144  0.1189
18411TIP3    H176648   2.428   4.611   6.249 -1.0738  0.6864 -0.4240
18411TIP3    H276649   2.285   4.579   6.283 -0.4724  0.6539  2.1757
18412TIP3   OH276650   0.014   2.512   4.081 -0.5336  0.0345  0.1543
18412TIP3    H176651  -0.054   2.462   4.127 -0.1534 -0.5538  0.0891
18412TIP3    H276652  -0.033   2.557   4.011 -0.9264 -0.0247  0.3811
18413TIP3   OH276653   2.470   1.813  14.761  0.5559  0.1125  0.4770
18413TIP3    H176654   2.423   1.738  14.725 -1.3413  0.2893  2.4528
18413TIP3    H276655   2.429   1.889  14.719  1.3290  0.1095 -0.2728
18414TIP3   OH276656   5.908   0.477   6.134  0.4442  0.2764  0.4453
18414TIP3    H176657   5.825   0.525   6.134 -0.3472 -1.0251 -1.1842
18414TIP3    H276658   5.890   0.398   6.186  0.4936 -0.2823 -0.3849
18415TIP3   OH276659   2.131   3.363  12.704  0.7060  0.1038  0.1573
18415TIP3    H176660   2.197   3.375  12.773  0.1021  1.5494  0.5011
18415TIP3    H276661   2.056   3.325  12.749  1.5761 -2.3015 -0.3886
18416TIP3   OH276662   6.147   3.980  12.060 -0.5470 -0.1304  0.3294
18416TIP3    H176663   6.208   3.909  12.082  0.4783  0.7339  0.3000
18416TIP3    H276664   6.060   3.944  12.080  0.0137 -1.1438  0.9789
18417TIP3   OH276665   1.023   5.018   0.662 -0.2336  0.1616 -0.4986
18417TIP3    H176666   0.930   4.996   0.652 -0.1367  0.7116 -2.6387
18417TIP3    H276667   1.064   4.989   0.581  1.0267  2.1960 -0.6334
18418TIP3   OH276668   2.897   1.488  14.787 -0.6823  0.5831  0.2094
18418TIP3    H176669   2.860   1.415  14.836 -1.2192  1.0372  0.4977
18418TIP3    H276670   2.857   1.566  14.828 -0.4499  1.0050 -0.3681
18419TIP3   OH276671   1.377   0.753  11.313 -0.9222  0.2612  0.1005
18419TIP3    H176672   1.299   0.699  11.303 -0.5242 -0.3746  0.3905
18419TIP3    H276673   1.440   0.697  11.359 -0.1718  0.6413 -0.4429
18420TIP3   OH276674   2.966   1.027   1.470  0.5833 -0.2078 -0.2166
18420TIP3    H176675   3.009   1.097   1.421  1.9638 -1.2419 -0.5184
18420TIP3    H276676   2.906   1.072   1.530 -0.2940  1.1245 -2.0388
18421TIP3   OH276677   1.263   1.284  13.171 -0.3012  0.1789 -0.0780
18421TIP3    H176678   1.243   1.298  13.264  0.8348  1.2303  0.0255
18421TIP3    H276679   1.184   1.309  13.125 -0.7448  0.0213  0.5832
18422TIP3   OH276680   4.735   3.976  15.012  0.2308  0.0718  0.3296
18422TIP3    H176681   4.706   4.047  14.954 -1.6434  0.4337  1.6869
18422TIP3    H276682   4.714   3.896  14.964 -0.0270  0.3917 -0.0949
18423TIP3   OH276683   6.167   4.424   1.799  0.6966 -0.0611  0.2594
18423TIP3    H176684   6.259   4.412   1.823  1.1382  1.1536 -0.7397
18423TIP3    H276685   6.164   4.512   1.761 -0.5911 -0.6706 -1.0890
18424TIP3   OH276686   0.030   6.384  15.270 -0.4846  0.6887 -0.2488
18424TIP3    H176687  -0.001   6.341  15.350 -1.9877  1.6935 -0.2793
18424TIP3    H276688   0.101   6.441  15.299  0.5391 -0.6812  0.0115
18425TIP3   OH276689   5.139   0.713   4.216 -0.2148 -0.4742  0.0048
18425TIP3    H176690   5.143   0.653   4.290 -1.3034 -0.3875  0.1454
18425TIP3    H276691   5.213   0.772   4.229  0.2189 -1.1122  0.4513
18426TIP3   OH276692   2.873   1.522   5.707  0.2622 -0.5396  0.3100
18426TIP3    H176693   2.867   1.532   5.612 -2.0060 -1.3917  0.3568
18426TIP3    H276694   2.846   1.607   5.742  0.1327 -0.5433  0.2182
18427TIP3   OH276695   6.220   5.953   4.396 -0.0977 -0.4634  0.3311
18427TIP3    H176696   6.179   5.871   4.372 -0.4948 -0.8161  2.1561
18427TIP3    H276697   6.308   5.929   4.424  0.6493  0.0396 -1.5376
18428TIP3   OH276698   0.455   0.124  16.200  0.3080  0.3036 -0.5053
18428TIP3    H176699   0.490   0.162  16.280  0.9538  0.0851 -0.6796
18428TIP3    H276700   0.515   0.053  16.178 -1.0332 -1.0060 -0.0377
18429TIP3   OH276701   5.349   1.741   0.897 -0.6280  0.4650  0.0100
18429TIP3    H176702   5.426   1.706   0.853  1.0499  2.9798  0.8432
18429TIP3    H276703   5.376   1.827   0.929 -3.3905  0.8702  1.4489
18430TIP3   OH276704   6.558   6.551  16.897 -0.2543  0.0781  0.1210
18430TIP3    H176705   6.526   6.571  16.809 -2.3200  0.8189  0.9944
18430TIP3    H276706   6.503   6.478  16.926  0.0619  0.1802  0.9860
18431TIP3   OH276707   3.065   2.377   1.603 -0.2133  0.2974 -0.4742
18431TIP3    H176708   3.070   2.287   1.572 -0.0073  0.4886 -0.9861
18431TIP3    H276709   2.999   2.418   1.547  1.0781  0.9880 -1.5110
18432TIP3   OH276710   0.939   1.759   3.170 -0.4140  0.3750  0.2110
18432TIP3    H176711   0.933   1.663   3.170 -0.8384  0.3831 -1.5383
18432TIP3    H276712   0.849   1.789   3.174 -0.2977  0.6995  0.4154
18433TIP3   OH276713   6.593   3.285  13.192 -0.4317  0.5862 -0.8065
18433TIP3    H176714   6.684   3.264  13.172  0.0165  1.3232  0.4382
18433TIP3    H276715   6.543   3.234  13.128  0.7759 -1.2121 -0.3618
18434TIP3   OH276716   0.329   5.751   3.862  0.3941  0.4287  0.0327
18434TIP3    H176717   0.419   5.719   3.875  0.8255  1.9414  1.0149
18434TIP3    H276718   0.274   5.690   3.911  1.1125  0.6521  1.1486
18435TIP3   OH276719   4.041   1.134   1.835 -0.5915  0.1018 -0.2467
18435TIP3    H176720   4.068   1.201   1.772 -2.5669  0.9883 -0.1932
18435TIP3    H276721   4.023   1.183   1.916 -0.8629 -0.6438  0.1518
18436TIP3   OH276722   1.718   2.489  14.892 -0.3685  0.0921 -0.3241
18436TIP3    H176723   1.773   2.428  14.845 -2.0142 -1.1064 -0.7396
18436TIP3    H276724   1.687   2.551  14.826  0.3570  0.6924 -0.1131
18437TIP3   OH276725   4.350   6.435   5.307 -0.7278 -0.0658 -0.6432
18437TIP3    H176726   4.421   6.452   5.368  0.1968  1.4337 -2.1050
18437TIP3    H276727   4.351   6.340   5.294  1.2427 -0.0194 -0.9318
18438TIP3   OH276728   2.253   5.819   5.503  0.2862  0.3705  0.5357
18438TIP3    H176729   2.246   5.912   5.485 -2.0770  0.6522  2.6840
18438TIP3    H276730   2.253   5.777   5.416 -1.3247  2.1956 -0.3717
18439TIP3   OH276731   0.224   6.594  13.118  0.4754  0.0333 -0.3814
18439TIP3    H176732   0.307   6.640  13.114  1.6426 -1.9544  0.5727
18439TIP3    H276733   0.195   6.603  13.208  0.4220 -0.6068 -0.3319
18440TIP3   OH276734   5.452   6.087   2.963 -0.3365 -0.0248  0.4271
18440TIP3    H176735   5.475   6.043   3.045 -0.5843  0.0563  0.5398
18440TIP3    H276736   5.413   6.017   2.909 -0.2687 -0.0539  0.4147
18441TIP3   OH276737   1.397   5.422  12.778  0.5171  0.2529 -0.6706
18441TIP3    H176738   1.459   5.383  12.716 -0.0256 -0.2482 -0.9067
18441TIP3    H276739   1.326   5.456  12.723 -0.6284 -1.4088 -0.2493
18442TIP3   OH276740   6.611   1.955   3.148  0.5547 -0.3053  0.2166
18442TIP3    H176741   6.551   1.886   3.178 -0.3016  0.3064 -0.0727
18442TIP3    H276742   6.573   2.036   3.183  1.3962  0.0533  0.3012
18443TIP3   OH276743   0.385   6.664  16.846  0.1106 -0.4036  0.0316
18443TIP3    H176744   0.394   6.599  16.916 -0.6378 -1.4474 -0.8264
18443TIP3    H276745   0.363   6.745  16.892 -0.5831 -1.1197  0.9908
18444TIP3   OH276746   5.987   6.278   2.053  0.1129 -0.3227 -0.3150
18444TIP3    H176747   6.029   6.355   2.015 -0.5313  0.4267  0.4777
18444TIP3    H276748   5.901   6.309   2.081 -1.4698 -2.1127 -3.0028
18445TIP3   OH276749   2.085   1.473   0.255  0.3646 -0.6012 -0.1180
18445TIP3    H176750   2.054   1.433   0.173  1.1793 -1.9317  0.2052
18445TIP3    H276751   2.109   1.398   0.310  0.8573  0.3202  0.9303
18446TIP3   OH276752   1.508   4.438   5.530 -0.0844  0.6914  0.4686
18446TIP3    H176753   1.518   4.344   5.517 -0.6438  0.4356  1.7901
18446TIP3    H276754   1.415   4.450   5.549 -0.1460  1.6001 -0.3609
18447TIP3   OH276755   4.925   3.088  13.245  0.6154  0.2079  0.1516
18447TIP3    H176756   4.898   3.167  13.199  2.9226  0.1440 -1.4129
18447TIP3    H276757   4.880   3.017  13.198  2.6632  0.1761 -1.8481
18448TIP3   OH276758   5.710   1.162  15.592  0.0752  0.3794  0.3651
18448TIP3    H176759   5.632   1.128  15.549  0.1779 -1.3439  1.4733
18448TIP3    H276760   5.677   1.223  15.658 -0.3177 -0.0851  0.5993
18449TIP3   OH276761   1.356   3.455  10.424  0.6509  0.5321  0.2809
18449TIP3    H176762   1.371   3.474  10.516 -1.4546  1.4679  0.4573
18449TIP3    H276763   1.344   3.360  10.421  1.6431  0.3876  0.8242
18450TIP3   OH276764   6.171   4.934  14.015 -0.3218  0.1745  0.0732
18450TIP3    H176765   6.222   4.853  14.009 -0.3626  0.0675  1.2488
18450TIP3    H276766   6.204   4.978  14.093 -2.0071  0.1309  0.8217
18451TIP3   OH276767   4.583   4.639   1.054 -0.1798 -0.1691  0.2357
18451TIP3    H176768   4.499   4.596   1.069 -0.5187  1.0165  1.8840
18451TIP3    H276769   4.625   4.642   1.140  0.5355  1.2819 -0.1386
18452TIP3   OH276770   2.170   4.756  14.322 -0.4630  1.0371  0.1562
18452TIP3    H176771   2.259   4.780  14.295 -0.1076 -0.5940 -0.1718
18452TIP3    H276772   2.167   4.777  14.415  0.5700  0.2698  0.3713
18453TIP3   OH276773   0.420   5.890  13.930 -0.2751  0.6443 -0.3944
18453TIP3    H176774   0.393   5.898  14.021 -0.2793 -1.5629 -0.1690
18453TIP3    H276775   0.513   5.913  13.930  0.0312 -0.5496  0.3998
18454TIP3   OH276776   0.263   0.522   5.049 -0.3814 -0.2772 -0.5592
18454TIP3    H176777   0.239   0.522   5.141 -2.4621 -1.6596 -1.0603
18454TIP3    H276778   0.296   0.433   5.032  0.0309 -0.0199 -1.1408
18455TIP3   OH276779   1.711   3.972   2.721 -0.2201  0.5300 -0.3924
18455TIP3    H176780   1.658   3.947   2.645  0.0607  0.4360 -0.5565
18455TIP3    H276781   1.764   3.894   2.740  0.3700  0.8650 -0.6615
18456TIP3   OH276782   1.820   2.769   4.985 -0.2633  0.8755 -0.0550
18456TIP3    H176783   1.888   2.788   5.050 -0.1892  0.6871 -0.0784
18456TIP3    H276784   1.791   2.681   5.006  1.3373 -0.0753 -1.6862
18457TIP3   OH276785   0.115   1.655   6.447  0.2055  0.0551 -0.3040
18457TIP3    H176786   0.176   1.582   6.433  2.2332  1.9891 -2.0321
18457TIP3    H276787   0.071   1.665   6.362 -1.2460 -0.1864  0.4120
18458TIP3   OH276788   5.373   3.018  15.377  0.5572  0.1550 -0.1553
18458TIP3    H176789   5.396   3.109  15.356  0.9651  0.2390  0.6506
18458TIP3    H276790   5.358   3.018  15.471  3.0275 -1.1464  0.2726
18459TIP3   OH276791   3.562   4.073   1.915 -0.1822  0.1446 -0.2012
18459TIP3    H176792   3.645   4.026   1.905 -0.5220 -0.8427  1.4405
18459TIP3    H276793   3.495   4.011   1.887 -0.5301  0.0685  0.7563
18460TIP3   OH276794   3.792   4.856  12.198  0.2188  0.7687  0.0458
18460TIP3    H176795   3.870   4.910  12.209  1.7878 -1.1433 -1.2303
18460TIP3    H276796   3.736   4.906  12.139  0.8718  1.7864  0.2887
18461TIP3   OH276797   2.081   6.025  14.633  0.1053 -0.0940  0.0984
18461TIP3    H176798   2.162   5.975  14.641  0.0979 -0.1342 -0.0726
18461TIP3    H276799   2.012   5.959  14.627  0.1338 -0.0690 -0.5384
18462TIP3   OH276800   4.942   3.917   5.133  0.1565  0.1203  0.1690
18462TIP3    H176801   5.031   3.901   5.103  0.7317  1.3399  1.1691
18462TIP3    H276802   4.951   3.986   5.199 -1.3978 -0.4895  1.0461
18463TIP3   OH276803   6.040   0.982   6.477 -0.0927 -0.3374 -0.1474
18463TIP3    H176804   5.988   0.917   6.429 -1.0504  0.0866  0.2932
18463TIP3    H276805   6.102   1.016   6.412 -0.1158 -1.1263 -0.5838
18464TIP3   OH276806   2.452   5.348   4.457 -0.0165  0.0560  0.2476
18464TIP3    H176807   2.400   5.281   4.502 -2.1778  1.4790 -0.0781
18464TIP3    H276808   2.465   5.313   4.369 -1.4681  0.2321 -0.0380
18465TIP3   OH276809   1.827   0.591  12.681  0.4791 -0.1534  0.3568
18465TIP3    H176810   1.822   0.683  12.704  1.7034 -0.0341  0.1569
18465TIP3    H276811   1.765   0.581  12.609 -0.1591  0.3587  0.8263
18466TIP3   OH276812   1.912   1.657   0.415  0.3210 -0.3118 -0.4384
18466TIP3    H176813   1.962   1.595   0.362  0.6188  0.6067 -1.2682
18466TIP3    H276814   1.833   1.674   0.364 -0.1388 -0.6300  0.1696
18467TIP3   OH276815   5.975   2.380  16.479 -0.4204  0.1434 -0.0778
18467TIP3    H176816   5.924   2.457  16.504  0.3013  0.3583  0.7949
18467TIP3    H276817   5.998   2.394  16.387 -0.7418  0.7190 -0.0677
18468TIP3   OH276818   4.879   4.300  14.824  0.1982 -0.3750 -0.2977
18468TIP3    H176819   4.899   4.252  14.744  0.4049  0.9501 -1.0506
18468TIP3    H276820   4.791   4.269  14.849  0.9783 -2.3281  0.1457
18469TIP3   OH276821   6.212   2.081   6.057  0.7690 -0.5777 -0.3171
18469TIP3    H176822   6.246   1.997   6.086 -1.5910 -0.9243  1.6425
18469TIP3    H276823   6.210   2.135   6.136 -0.7909  0.2283 -0.8661
18470TIP3   OH276824   1.860   5.217  15.529  0.2705  0.1390 -0.1582
18470TIP3    H176825   1.844   5.142  15.472 -0.8730  1.2121 -1.2764
18470TIP3    H276826   1.873   5.290  15.469  2.1197  0.7084  0.9059
18471TIP3   OH276827   4.295   2.393   4.453  0.4219  0.5282  0.2261
18471TIP3    H176828   4.383   2.359   4.434  0.8042  1.3246  0.5473
18471TIP3    H276829   4.306   2.488   4.450 -0.8087  0.6356 -1.4773
18472TIP3   OH276830   6.323   4.022   1.659 -0.5732 -0.6336 -0.3691
18472TIP3    H176831   6.391   4.086   1.677 -0.6836  0.0979 -2.4607
18472TIP3    H276832   6.371   3.942   1.637 -0.4097 -0.4822 -0.5599
18473TIP3   OH276833   0.234   2.736  12.511 -0.6554 -0.2962  0.0162
18473TIP3    H176834   0.220   2.672  12.442 -0.1066 -0.5470  0.1351
18473TIP3    H276835   0.180   2.704  12.584 -2.0882  0.5466 -0.6400
18474TIP3   OH276836   3.485   0.262   1.054 -1.2246 -0.3389 -0.8547
18474TIP3    H176837   3.397   0.299   1.056 -1.3359 -0.5637  3.0520
18474TIP3    H276838   3.539   0.332   1.016 -2.7403  0.6215 -1.3054
18475TIP3   OH276839   6.149   1.739   5.963  0.2004 -0.2134 -0.1536
18475TIP3    H176840   6.217   1.795   6.001  0.0083 -0.5582  0.7260
18475TIP3    H276841   6.089   1.799   5.919  1.6613  0.0052 -1.8854
18476TIP3   OH276842   0.136   0.234   5.813  0.2037 -0.7592 -0.5104
18476TIP3    H176843   0.079   0.303   5.848 -1.7578 -2.1885 -0.7788
18476TIP3    H276844   0.211   0.232   5.872 -1.0375 -0.2522  1.1182
18477TIP3   OH276845   6.098   6.237   0.821 -0.6338 -0.0666 -0.4481
18477TIP3    H176846   6.135   6.319   0.789 -0.2093 -0.1095 -0.0691
18477TIP3    H276847   6.103   6.178   0.746  0.0014 -0.0520 -0.4155
18478TIP3   OH276848   6.671   0.670   0.347  0.3096 -0.3257  0.3066
18478TIP3    H176849   6.579   0.696   0.334  0.1054 -0.8397  0.6868
18478TIP3    H276850   6.693   0.703   0.434  0.1373 -1.1734  0.6733
18479TIP3   OH276851   4.173   6.335   2.894 -0.4903 -0.6759 -0.2048
18479TIP3    H176852   4.077   6.339   2.893 -0.4435  0.7449 -1.6523
18479TIP3    H276853   4.193   6.243   2.878 -1.6188 -0.6198 -2.2140
18480TIP3   OH276854   1.103   3.545   6.644  0.1507  0.0123 -0.2156
18480TIP3    H176855   1.168   3.493   6.598  0.2352 -1.5021  1.5812
18480TIP3    H276856   1.041   3.571   6.576  0.6414 -1.5935 -1.3051
18481TIP3   OH276857   5.214   5.947  16.801  0.0081 -0.0405 -0.6069
18481TIP3    H176858   5.306   5.951  16.826  0.2251 -1.8902 -1.0460
18481TIP3    H276859   5.198   5.854  16.783 -2.4728 -0.0741  1.5169
18482TIP3   OH276860   0.632   4.661  14.295 -0.0701  0.2677  0.1899
18482TIP3    H176861   0.682   4.579  14.294 -0.6849 -0.1114 -0.1461
18482TIP3    H276862   0.665   4.709  14.371  0.2408 -0.3261  0.4338
18483TIP3   OH276863   2.778   0.093   0.348 -0.0435 -0.5499 -0.0120
18483TIP3    H176864   2.797   0.182   0.379 -0.7856  0.0349 -1.2202
18483TIP3    H276865   2.685   0.080   0.370 -0.0683 -0.8397 -0.2909
18484TIP3   OH276866   3.955   4.046   2.203 -0.1154  0.4008  0.3226
18484TIP3    H176867   3.878   3.993   2.182 -0.6380  1.8893 -1.5722
18484TIP3    H276868   4.029   3.986   2.191 -0.6352  0.2930 -2.6693
18485TIP3   OH276869   0.002   1.148   1.891 -0.5474  0.3484 -0.3946
18485TIP3    H176870   0.096   1.162   1.904 -0.7694  2.3170 -0.7641
18485TIP3    H276871  -0.006   1.054   1.874  1.5408  0.4087 -1.9135
18486TIP3   OH276872   2.323   5.061   6.571 -0.0671 -0.1751 -0.1962
18486TIP3    H176873   2.325   5.041   6.665  0.0940 -0.3469 -0.2365
18486TIP3    H276874   2.271   4.991   6.533  0.9809 -0.8401 -0.4145
18487TIP3   OH276875   4.762   5.595  16.872 -0.8976  0.0631 -0.2115
18487TIP3    H176876   4.763   5.614  16.965 -3.6082 -1.6649  0.2314
18487TIP3    H276877   4.789   5.503  16.866  0.5438  0.5277 -1.2732
18488TIP3   OH276878   2.398   5.975   1.822 -0.0856 -0.2186  0.0987
18488TIP3    H176879   2.415   6.035   1.894 -1.7693  0.1621  0.1959
18488TIP3    H276880   2.331   5.916   1.855 -0.0552 -0.7572 -0.7724
18489TIP3   OH276881   3.614   4.707  16.383 -0.1632 -0.1829 -0.5263
18489TIP3    H176882   3.669   4.658  16.323  0.9311 -0.6335  0.8172
18489TIP3    H276883   3.569   4.641  16.436 -0.7949  0.2108 -0.5585
18490TIP3   OH276884   2.003   5.346  11.086  1.0750  0.0706  0.0237
18490TIP3    H176885   1.961   5.386  11.010  1.8260  0.7049 -0.0636
18490TIP3    H276886   2.034   5.261  11.056 -0.2995 -0.4868  0.1351
18491TIP3   OH276887   1.237   4.543  16.007 -0.1967  0.6194 -0.3432
18491TIP3    H176888   1.330   4.545  15.986  0.6987  0.1604  3.2708
18491TIP3    H276889   1.215   4.634  16.028  0.1039  0.3090  1.3761
18492TIP3   OH276890   4.279   1.588  13.747 -0.0918  0.3528  0.2671
18492TIP3    H176891   4.321   1.531  13.812 -1.3215 -0.9447 -0.0411
18492TIP3    H276892   4.349   1.645  13.716  0.8730 -0.0878  1.5695
18493TIP3   OH276893   3.282   6.372  15.077 -0.2813  0.4623  0.7256
18493TIP3    H176894   3.368   6.336  15.054  0.4126  1.3851  1.8409
18493TIP3    H276895   3.295   6.466  15.076 -1.2708  0.6005  0.9719
18494TIP3   OH276896   1.401   2.448   3.667 -0.0807  0.5695  0.0062
18494TIP3    H176897   1.407   2.468   3.574  0.8958  0.1577 -0.0222
18494TIP3    H276898   1.370   2.357   3.670 -2.0740  1.2131  0.1163
18495TIP3   OH276899   5.150   0.634  15.762  0.4886  0.5463 -0.0171
18495TIP3    H176900   5.192   0.554  15.793  1.4275  1.6648  1.7015
18495TIP3    H276901   5.056   0.614  15.764  0.7183 -0.5404  0.3199
18496TIP3   OH276902   5.397   2.642  16.485 -0.1604 -0.5013  0.0471
18496TIP3    H176903   5.302   2.647  16.476 -0.1861  2.1304  1.2529
18496TIP3    H276904   5.416   2.686  16.567  2.2587  0.9873 -1.2382
18497TIP3   OH276905   6.526   1.210  16.379  0.1909 -0.0904  0.0536
18497TIP3    H176906   6.512   1.225  16.286  1.1855  0.7251  0.0249
18497TIP3    H276907   6.440   1.184  16.412  0.3632 -2.8702 -1.5439
18498TIP3   OH276908   3.192   4.228   4.317  0.3090  0.0119  0.7168
18498TIP3    H176909   3.240   4.292   4.264  0.6207 -0.5246  0.3426
18498TIP3    H276910   3.260   4.171   4.353 -0.0661 -0.9244 -0.0407
18499TIP3   OH276911   2.519   2.968  14.625 -0.5291 -0.1234 -0.4598
18499TIP3    H176912   2.522   3.064  14.620 -0.6460 -0.1758 -1.8142
18499TIP3    H276913   2.610   2.941  14.630 -0.5407  0.1085  1.4270
18500TIP3   OH276914   3.283   6.131  11.816 -0.2048  0.1279  0.5262
18500TIP3    H176915   3.310   6.221  11.795 -0.6028 -0.0498 -0.8085
18500TIP3    H276916   3.339   6.106  11.889  1.2372  0.7954 -0.3238
18501TIP3   OH276917   1.374   4.086   0.972 -0.0658 -0.1822  0.6849
18501TIP3    H176918   1.439   4.082   1.042 -0.9345 -2.1598  1.4382
18501TIP3    H276919   1.423   4.065   0.892  0.5036 -0.1850  1.0346
18502TIP3   OH276920   1.282   3.754  13.674 -0.5478  0.4078 -0.2791
18502TIP3    H176921   1.351   3.804  13.716 -0.7307  0.9214 -0.5871
18502TIP3    H276922   1.327   3.680  13.633 -0.2123  0.6305 -0.3107
18503TIP3   OH276923   6.324   4.723  13.955  0.1228  0.1478 -0.3990
18503TIP3    H176924   6.258   4.689  13.895  0.6469  0.3239 -1.0829
18503TIP3    H276925   6.371   4.645  13.986  0.9310  0.1738 -1.5035
18504TIP3   OH276926   5.431   2.903   4.766 -0.2313  0.3203  0.5466
18504TIP3    H176927   5.492   2.851   4.713  0.8809  0.0995  2.0134
18504TIP3    H276928   5.410   2.978   4.710  0.3155 -0.2953 -0.5132
18505TIP3   OH276929   2.353   5.768   2.655  0.6119 -0.3980  0.0621
18505TIP3    H176930   2.282   5.711   2.684  0.9698 -0.8857 -0.0056
18505TIP3    H276931   2.387   5.726   2.575 -0.5535  1.0760 -1.2412
18506TIP3   OH276932   1.051   2.202  16.042 -0.3475 -0.2538 -0.3745
18506TIP3    H176933   1.109   2.150  15.986 -2.6480 -1.3398 -1.8083
18506TIP3    H276934   1.096   2.286  16.051  1.0807 -0.7957 -2.0805
18507TIP3   OH276935   4.729   3.056   2.622  0.3211 -0.4265 -0.6197
18507TIP3    H176936   4.767   3.057   2.710 -0.4845  0.5069 -0.2806
18507TIP3    H276937   4.801   3.081   2.564  0.7633 -0.7146 -0.2031
18508TIP3   OH276938   2.211   2.044   2.727  0.4885  0.6290 -0.0594
18508TIP3    H176939   2.239   1.956   2.703  0.6907  0.3466  1.1697
18508TIP3    H276940   2.116   2.042   2.722  0.4682  0.1788  0.5075
18509TIP3   OH276941   5.083   2.252  13.472  0.8223  0.5865 -0.3065
18509TIP3    H176942   5.138   2.222  13.545  3.4053  2.0691 -1.5589
18509TIP3    H276943   5.054   2.171  13.430  1.2203 -0.2576  1.0051
18510TIP3   OH276944   4.992   6.698   6.247  0.3457  0.9285  0.1623
18510TIP3    H176945   4.979   6.777   6.300  0.9710 -1.0269  3.3923
18510TIP3    H276946   4.905   6.659   6.240  0.2752  1.1472 -0.1876
18511TIP3   OH276947   2.983   4.738  16.624 -0.3501 -0.7792 -0.3690
18511TIP3    H176948   2.987   4.811  16.563  1.8230 -0.3614  0.2065
18511TIP3    H276949   2.956   4.777  16.707 -0.7436 -0.9014 -0.4406
18512TIP3   OH276950   0.028   6.182   5.116  0.1813 -0.1863 -0.0541
18512TIP3    H176951  -0.062   6.176   5.147 -0.3734  2.8661 -0.8769
18512TIP3    H276952   0.023   6.158   5.024  0.1396  0.3101 -0.1828
18513TIP3   OH276953   4.998   2.665   3.249 -0.1791 -0.0513 -0.1860
18513TIP3    H176954   4.940   2.670   3.325 -3.0683 -1.2353 -2.2402
18513TIP3    H276955   5.041   2.580   3.256 -1.7854 -0.9302 -0.7802
18514TIP3   OH276956   5.120   0.271   4.917 -0.4054 -0.0592  0.0276
18514TIP3    H176957   5.150   0.193   4.963  3.0511  1.6712  0.9026
18514TIP3    H276958   5.196   0.300   4.866 -2.0027  2.0157 -1.2922
18515TIP3   OH276959   0.715   0.365  15.378 -0.0535 -0.4249 -0.6821
18515TIP3    H176960   0.725   0.330  15.466 -0.4949 -0.8099 -0.7847
18515TIP3    H276961   0.621   0.362  15.361 -0.3458  2.6916  0.0612
18516TIP3   OH276962   6.629   3.253   3.766 -0.7170  0.3410 -0.0089
18516TIP3    H176963   6.606   3.179   3.709  0.0953 -0.4381  0.6606
18516TIP3    H276964   6.714   3.282   3.734 -0.5415  0.2955  0.4160
18517TIP3   OH276965   4.184   5.541  14.503  0.1771  0.0190  0.4117
18517TIP3    H176966   4.124   5.477  14.465  1.5743 -1.4483  0.6491
18517TIP3    H276967   4.248   5.560  14.434  0.2587  0.5375  0.6196
18518TIP3   OH276968   1.215   6.064  12.416  0.3303  0.0260 -0.4503
18518TIP3    H176969   1.153   5.991  12.427  1.0210 -0.8290 -2.0566
18518TIP3    H276970   1.166   6.129  12.366  0.2032  0.0327 -0.3187
18519TIP3   OH276971   0.179   2.850   1.062 -0.6016  0.0473  0.3392
18519TIP3    H176972   0.250   2.888   1.011 -0.9776 -0.5688 -0.6699
18519TIP3    H276973   0.218   2.772   1.104 -0.4429  0.2310  0.5340
18520TIP3   OH276974   4.551   6.727   2.237  0.0269 -0.8663  0.0167
18520TIP3    H176975   4.524   6.682   2.158  1.4313 -0.6135 -0.6284
18520TIP3    H276976   4.641   6.698   2.252  0.9307  1.5581 -0.3507
18521TIP3   OH276977   1.047   1.666   5.198  0.5943  0.2490 -0.4781
18521TIP3    H176978   1.078   1.607   5.266  2.0447  2.2547  0.6679
18521TIP3    H276979   0.954   1.647   5.189  0.4768 -0.3633  1.7588
18522TIP3   OH276980   1.655   3.647  14.757  0.4486 -0.2793  0.1237
18522TIP3    H176981   1.603   3.709  14.808  0.0295 -0.5703  0.0537
18522TIP3    H276982   1.627   3.560  14.788 -0.1341 -0.4678 -0.9032
18523TIP3   OH276983   2.247   2.517  13.877 -0.2617 -0.0577  1.0734
18523TIP3    H176984   2.271   2.597  13.924  1.7623  0.5277 -0.8351
18523TIP3    H276985   2.290   2.446  13.926  0.1398  0.3175  1.2674
18524TIP3   OH276986   4.807   2.778  12.151  0.1956 -0.2511 -0.3830
18524TIP3    H176987   4.842   2.860  12.186 -0.5839  1.2710 -3.0318
18524TIP3    H276988   4.712   2.791  12.151  0.0637 -1.2283 -0.6525
18525TIP3   OH276989   2.340   4.192  15.119  0.8537  0.3383  0.3837
18525TIP3    H176990   2.282   4.117  15.101  0.3048  0.1235  2.8818
18525TIP3    H276991   2.296   4.266  15.077  0.2714 -0.3308 -0.2259
18526TIP3   OH276992   0.712   5.510   4.837  0.2185 -0.4366 -0.0031
18526TIP3    H176993   0.806   5.507   4.851 -0.1361 -1.1331  2.3932
18526TIP3    H276994   0.697   5.454   4.761  2.1284  2.8913 -2.9857
18527TIP3   OH276995   3.258   5.649  15.197 -0.1589 -0.6961  0.3267
18527TIP3    H176996   3.353   5.662  15.192 -0.3826  0.6857 -0.6971
18527TIP3    H276997   3.230   5.631  15.107 -1.3332  2.7182 -0.0913
18528TIP3   OH276998   4.516   5.340   5.523 -0.3065 -0.4000  0.4630
18528TIP3    H176999   4.429   5.376   5.543 -0.8027 -0.9204 -0.7288
18528TIP3    H277000   4.522   5.262   5.579 -0.9446 -0.8153 -0.0344
18529TIP3   OH277001   6.652   4.655  14.600  0.2323 -0.0690  0.2844
18529TIP3    H177002   6.697   4.673  14.683 -1.2278  0.1480  1.0475
18529TIP3    H277003   6.712   4.686  14.533  1.3503 -0.0570  1.2728
18530TIP3   OH277004   1.606   3.544   2.576  0.2351 -0.6156  0.0791
18530TIP3    H177005   1.694   3.579   2.567  0.6060 -1.4712  0.4081
18530TIP3    H277006   1.615   3.468   2.632 -0.9401  0.1682  1.3580
18531TIP3   OH277007   4.343   0.360  14.841  0.3885  0.1758 -0.0884
18531TIP3    H177008   4.399   0.284  14.827  0.8833  0.3159  1.0949
18531TIP3    H277009   4.254   0.327  14.827  0.4236 -1.1496  2.3912
18532TIP3   OH277010   3.114   4.934  15.963  0.3680  0.4130  0.5093
18532TIP3    H177011   3.138   4.856  15.912  2.3519  0.6443  1.0368
18532TIP3    H277012   3.079   4.995  15.899  0.5046 -0.2274 -0.1885
18533TIP3   OH277013   0.279   1.294   3.700  0.2947 -0.0920 -0.0790
18533TIP3    H177014   0.186   1.296   3.676 -0.1601  1.4674  1.6763
18533TIP3    H277015   0.290   1.212   3.748 -0.0616 -0.5333 -0.7515
18534TIP3   OH277016   4.703   0.954  14.685 -0.3641  0.6388 -0.2482
18534TIP3    H177017   4.663   0.953  14.772  2.2451  0.7069  0.9764
18534TIP3    H277018   4.715   0.861  14.663  0.0624  0.6379 -0.0177
18535TIP3   OH277019   4.021   2.802   1.706 -0.0267 -0.3058 -0.1962
18535TIP3    H177020   4.010   2.710   1.681  0.5578  0.1574 -2.3043
18535TIP3    H277021   3.948   2.847   1.664 -0.0066  0.2642  0.3769
18536TIP3   OH277022   3.632   0.540  15.601  0.2437  0.4671  0.1602
18536TIP3    H177023   3.563   0.604  15.617 -1.0334 -0.3237 -1.9981
18536TIP3    H277024   3.627   0.481  15.677 -0.7688  0.9909  0.5167
18537TIP3   OH277025   2.590   3.175   1.323 -0.1144  0.0087  0.0696
18537TIP3    H177026   2.560   3.085   1.312  0.6405 -0.5708  2.5638
18537TIP3    H277027   2.675   3.178   1.278  1.1621 -1.2894  2.3566
18538TIP3   OH277028   2.329   0.333   2.865  0.2348 -0.5430  0.0785
18538TIP3    H177029   2.415   0.302   2.835 -0.6803 -1.4447 -1.7106
18538TIP3    H277030   2.349   0.398   2.933  2.3489  0.1955 -1.2015
18539TIP3   OH277031   3.739   3.070  12.387 -0.8785  0.7055 -0.8122
18539TIP3    H177032   3.816   3.103  12.434 -1.4949  2.2420 -0.8453
18539TIP3    H277033   3.677   3.046  12.456 -0.5318 -0.1343 -0.7920
18540TIP3   OH277034   6.496   1.394  14.140 -0.4910  0.1339 -0.0464
18540TIP3    H177035   6.471   1.376  14.050 -1.9205  3.8802 -0.4641
18540TIP3    H277036   6.591   1.381  14.142 -0.7213 -2.0067 -1.5134
18541TIP3   OH277037   4.799   5.992  13.625 -0.5399  0.2203  0.7333
18541TIP3    H177038   4.854   6.069  13.609  0.3855 -0.6773 -0.4552
18541TIP3    H277039   4.710   6.027  13.630 -0.0648  1.4408  0.8357
18542TIP3   OH277040   1.368   5.668   2.597 -0.0370 -0.1064  0.4522
18542TIP3    H177041   1.307   5.719   2.544  0.8091 -1.1002 -1.5292
18542TIP3    H277042   1.449   5.717   2.595 -0.3079  0.4304  1.8134
18543TIP3   OH277043   3.545   6.351   3.100  0.6967  0.1396  0.4349
18543TIP3    H177044   3.585   6.422   3.150  0.8722  0.8806 -0.7430
18543TIP3    H277045   3.614   6.323   3.040  0.4176 -0.5988  0.4556
18544TIP3   OH277046   2.212   5.176  16.916 -0.0654 -0.3002  0.4996
18544TIP3    H177047   2.195   5.255  16.967  0.8235  0.4411 -0.3151
18544TIP3    H277048   2.211   5.206  16.825  0.5654 -1.1662  0.2052
18545TIP3   OH277049   3.935   5.518   1.202  0.0402 -0.0734 -0.1796
18545TIP3    H177050   3.892   5.544   1.121 -1.0492 -1.4655 -0.0606
18545TIP3    H277051   4.028   5.535   1.187 -0.4132  1.9975 -0.8082
18546TIP3   OH277052   6.662   3.728   0.881 -0.4893  0.2233  0.1192
18546TIP3    H177053   6.675   3.641   0.842 -1.3759 -0.8255  2.1469
18546TIP3    H277054   6.672   3.788   0.807  0.5865 -1.5534 -1.2344
18547TIP3   OH277055   0.206   6.479  11.204 -0.2797  0.1282 -0.3485
18547TIP3    H177056   0.236   6.547  11.144 -1.0658  0.3869 -0.4529
18547TIP3    H277057   0.244   6.503  11.289 -0.5023  0.6586 -0.4004
18548TIP3   OH277058   2.723   2.080   0.745 -0.1020  0.1793 -0.1430
18548TIP3    H177059   2.672   2.122   0.675  0.3354  0.1708 -0.4680
18548TIP3    H277060   2.672   2.002   0.767 -1.4926  1.4344  1.2227
18549TIP3   OH277061   6.589   5.628  14.935  0.3774  0.3529 -0.2624
18549TIP3    H177062   6.667   5.579  14.910  0.9644  1.2650 -0.2004
18549TIP3    H277063   6.620   5.697  14.993 -0.4724  0.7364 -0.2461
18550TIP3   OH277064   3.072   2.183   5.133  0.3311  0.2425  0.7712
18550TIP3    H177065   3.031   2.148   5.055 -1.1689 -0.6751  1.9492
18550TIP3    H277066   3.107   2.106   5.179  1.9960  0.8514  0.5755
18551TIP3   OH277067   3.523   6.339   4.272  0.1864 -0.3942  0.2366
18551TIP3    H177068   3.538   6.431   4.292 -0.1532 -0.6208  1.6376
18551TIP3    H277069   3.610   6.305   4.251  0.4962 -0.0171  0.8826
18552TIP3   OH277070   4.625   3.090  15.106  0.5725  0.0602 -0.4070
18552TIP3    H177071   4.633   2.999  15.136  0.8183 -0.1897 -1.2410
18552TIP3    H277072   4.562   3.086  15.034 -1.3224  0.9068  1.1273
18553TIP3   OH277073   2.261   1.172   5.230 -0.6185  0.7448  0.2978
18553TIP3    H177074   2.305   1.233   5.289  0.1211  0.0425  0.4703
18553TIP3    H277075   2.269   1.087   5.272  2.5465 -0.2825 -2.2208
18554TIP3   OH277076   5.158   1.044  16.781 -0.2508  0.1737  0.0776
18554TIP3    H177077   5.180   1.093  16.860  1.3397  1.7188 -1.2873
18554TIP3    H277078   5.129   1.110  16.718 -2.0787 -1.1012 -0.4479
18555TIP3   OH277079   3.427   5.260  16.438  0.3891 -0.4029  0.4566
18555TIP3    H177080   3.376   5.300  16.509 -0.3478  0.8326 -0.7433
18555TIP3    H277081   3.503   5.318  16.428  1.2758 -1.4222  1.2537
18556TIP3   OH277082   0.699   4.439   5.788  0.3792  0.0725  0.4118
18556TIP3    H177083   0.784   4.482   5.782  1.2513 -1.2043  2.8999
18556TIP3    H277084   0.666   4.464   5.875 -1.2142 -0.4683 -0.0190
18557TIP3   OH277085   2.625   3.870   1.017  0.0160 -0.4081  0.1200
18557TIP3    H177086   2.617   3.859   1.112  0.9363 -2.5412 -0.0090
18557TIP3    H277087   2.719   3.873   1.001 -0.0750 -2.2747 -0.9165
18558TIP3   OH277088   3.710   2.028   2.495  0.1238 -0.4123  0.2566
18558TIP3    H177089   3.616   2.017   2.483  0.6088 -2.6632 -1.9775
18558TIP3    H277090   3.728   2.117   2.464 -0.8370 -1.1032 -2.5043
18559TIP3   OH277091   0.673   0.595  11.664  0.1245 -0.3190 -0.3830
18559TIP3    H177092   0.623   0.607  11.745 -0.6638  1.1710 -1.0798
18559TIP3    H277093   0.617   0.541  11.608 -1.1319  2.1129 -1.5171
18560TIP3   OH277094   4.451   2.689  17.230 -0.0745  0.5843 -0.1793
18560TIP3    H177095   4.538   2.669  17.195  0.1623  0.3373  0.5482
18560TIP3    H277096   4.430   2.775  17.194  0.3939  0.5641 -0.5038
18561TIP3   OH277097   6.541   2.176  12.500 -0.3260 -0.0217 -0.1704
18561TIP3    H177098   6.581   2.092  12.524 -1.6153 -0.3173  1.0151
18561TIP3    H277099   6.499   2.206  12.580  0.3552  1.9153 -0.5310
18562TIP3   OH277100   5.229   2.498   6.829 -0.2503  0.0593  0.2283
18562TIP3    H177101   5.302   2.448   6.794 -0.6124 -1.5056  1.6479
18562TIP3    H277102   5.157   2.483   6.768  0.2809  0.6558 -0.5414
18563TIP3   OH277103   3.966   4.486   1.754  0.5015 -0.0069 -0.3122
18563TIP3    H177104   3.970   4.394   1.781  1.0551  0.4199  1.0696
18563TIP3    H277105   4.054   4.505   1.720  1.0781  0.6343  1.4869
18564TIP3   OH277106   6.449   2.483   3.261 -0.6757 -0.3451  0.2016
18564TIP3    H177107   6.470   2.572   3.291  0.2279 -0.9277  1.3668
18564TIP3    H277108   6.511   2.467   3.190 -0.7272 -0.1112  0.1018
18565TIP3   OH277109   5.871   6.295  12.365  0.0414  0.4367 -0.1686
18565TIP3    H177110   5.855   6.282  12.271  0.1947 -0.8417 -0.0257
18565TIP3    H277111   5.964   6.277  12.376 -0.1402 -0.1776  0.3548
18566TIP3   OH277112   0.484   0.383   4.812  0.2781  0.4346  0.8611
18566TIP3    H177113   0.496   0.474   4.840 -0.3516  0.3228  1.4905
18566TIP3    H277114   0.398   0.382   4.770  1.5111  0.7674 -1.7898
18567TIP3   OH277115   6.526   5.022   4.617  0.4816  0.0988 -0.0667
18567TIP3    H177116   6.483   4.989   4.538  0.0935  0.8055 -0.1650
18567TIP3    H277117   6.457   5.072   4.662  0.9442  0.4530  0.2567
18568TIP3   OH277118   0.273   3.130  13.573 -0.9421  0.3452 -0.4524
18568TIP3    H177119   0.328   3.052  13.572 -1.4547 -0.0230 -0.2197
18568TIP3    H277120   0.330   3.200  13.540 -0.8881 -0.4020 -2.0124
18569TIP3   OH277121   1.697   0.290  14.122 -0.3047 -0.2593 -0.4188
18569TIP3    H177122   1.782   0.252  14.145 -0.5777 -0.0823  0.9163
18569TIP3    H277123   1.706   0.313  14.029  1.1552 -0.1183 -0.2613
18570TIP3   OH277124   5.729   2.309   0.200 -0.4527 -0.6107 -0.6277
18570TIP3    H177125   5.707   2.263   0.119  1.2878  1.8520 -2.5786
18570TIP3    H277126   5.692   2.396   0.189 -1.1849 -0.6053  1.7558
18571TIP3   OH277127   1.078   4.095   6.332  0.1450  0.0308  0.3460
18571TIP3    H177128   1.154   4.072   6.385  0.2222  0.1232  0.2740
18571TIP3    H277129   1.111   4.097   6.242 -0.5255 -2.6219 -0.0026
18572TIP3   OH277130   5.065   2.905  15.275  0.3347 -0.2042  0.1727
18572TIP3    H177131   5.030   2.821  15.304  1.4206 -0.9198 -0.5543
18572TIP3    H277132   5.140   2.882  15.219  1.0022  1.2519  0.4405
18573TIP3   OH277133   1.272   1.773   1.174 -0.2483 -0.2045  0.7113
18573TIP3    H177134   1.275   1.679   1.190 -0.1070 -0.6367 -1.7999
18573TIP3    H277135   1.210   1.784   1.102  2.2931  1.2785 -1.3501
18574TIP3   OH277136   3.513   1.705  10.983 -0.1465  0.1922  0.1092
18574TIP3    H177137   3.557   1.782  10.946  0.4553  0.0406  0.5013
18574TIP3    H277138   3.435   1.693  10.928 -1.1965  2.1438  1.1361
18575TIP3   OH277139   6.414   2.118  16.334 -0.1772 -0.6296  0.6787
18575TIP3    H177140   6.330   2.122  16.289 -0.1515  1.0501  0.7494
18575TIP3    H277141   6.448   2.207  16.330  1.3345 -1.1583  1.1731
18576TIP3   OH277142   1.701   1.410   5.654 -0.8511 -0.4000 -0.1220
18576TIP3    H177143   1.778   1.467   5.647 -0.9447 -0.3940 -1.3506
18576TIP3    H277144   1.661   1.434   5.737  0.0246  0.1785  0.1481
18577TIP3   OH277145   4.487   0.678   2.561 -0.0108 -0.5133 -0.2247
18577TIP3    H177146   4.392   0.693   2.568 -0.1704 -0.1408 -2.8480
18577TIP3    H277147   4.495   0.585   2.538  0.2204 -0.3230 -0.9153
18578TIP3   OH277148   3.780   2.067  16.547  0.3036  0.0027  0.1718
18578TIP3    H177149   3.827   2.120  16.612 -0.3064  0.2729  0.3915
18578TIP3    H277150   3.792   1.977  16.577  3.1707 -0.1996 -1.3700
18579TIP3   OH277151   0.445   2.863   2.154  0.5625  0.2652  0.3754
18579TIP3    H177152   0.380   2.839   2.088  1.2955  0.8733 -0.5752
18579TIP3    H277153   0.513   2.797   2.144  0.7312  0.4295  0.4485
18580TIP3   OH277154   5.578   1.759  12.750  0.0344  0.3058 -0.0214
18580TIP3    H177155   5.612   1.812  12.822 -0.0005  0.4161 -0.0854
18580TIP3    H277156   5.497   1.721  12.783 -1.1525  2.1568 -0.7753
18581TIP3   OH277157   2.345   1.831   2.627 -0.2665 -0.3877  0.1887
18581TIP3    H177158   2.285   1.768   2.587 -1.1772  0.2964  0.4616
18581TIP3    H277159   2.408   1.853   2.558 -0.2566 -1.1897 -0.0633
18582TIP3   OH277160   3.677   0.014   5.159  0.1756 -0.2143 -0.1294
18582TIP3    H177161   3.586   0.006   5.188 -0.3021  0.8627 -1.3087
18582TIP3    H277162   3.691   0.108   5.151  0.4404 -0.4521 -2.8964
18583TIP3   OH277163   1.533   2.937  14.651 -0.1596 -0.6243 -0.3742
18583TIP3    H177164   1.542   3.025  14.614 -0.9961 -0.7124 -0.7851
18583TIP3    H277165   1.505   2.883  14.577 -0.0601 -1.1551 -0.0248
18584TIP3   OH277166   2.502   1.813  17.023  0.4781  0.6631 -0.0596
18584TIP3    H177167   2.469   1.723  17.016  0.2355  0.7679 -0.2849
18584TIP3    H277168   2.515   1.826  17.117  1.7270 -0.0341 -0.1225
18585TIP3   OH277169   4.908   0.453   1.576 -0.1519 -0.1001  0.1852
18585TIP3    H177170   4.885   0.361   1.572 -0.7969  0.0415  0.6154
18585TIP3    H277171   4.912   0.474   1.669  1.6574 -0.1035  0.1142
18586TIP3   OH277172   0.308   4.284   0.022  0.2098  0.1798  0.0320
18586TIP3    H177173   0.283   4.192   0.021 -0.2665  0.2809  1.2958
18586TIP3    H277174   0.404   4.283   0.013  0.1087 -0.3846 -1.0030
18587TIP3   OH277175   2.206   5.230   3.212  0.1084 -0.1086  0.1279
18587TIP3    H177176   2.259   5.289   3.266  0.5492 -2.6600  2.5844
18587TIP3    H277177   2.264   5.207   3.139  1.6819 -1.2216  1.6826
18588TIP3   OH277178   5.554   4.701   4.671  0.2941 -0.6804 -0.1671
18588TIP3    H177179   5.526   4.780   4.718  1.9913  0.9778 -1.8352
18588TIP3    H277180   5.634   4.675   4.716  1.5277  0.4929 -1.6176
18589TIP3   OH277181   3.540   2.881  11.824  0.3695 -0.3545 -0.7266
18589TIP3    H177182   3.501   2.903  11.739 -0.9727 -1.0211 -0.2952
18589TIP3    H277183   3.545   2.965  11.870 -0.1640 -0.2049 -0.9414
18590TIP3   OH277184   1.186   0.172   2.692  0.0507 -0.3359  0.0732
18590TIP3    H177185   1.197   0.085   2.654  0.2449 -0.1337 -0.3458
18590TIP3    H277186   1.129   0.159   2.767  2.0286 -1.1788  1.4604
18591TIP3   OH277187   4.821   3.459  16.118  0.2511  0.1760 -0.1074
18591TIP3    H177188   4.767   3.384  16.096  3.0765 -2.1725  0.5161
18591TIP3    H277189   4.807   3.472  16.212 -0.9067  1.0241 -0.3872
18592TIP3   OH277190   0.749   3.781  13.005  0.3417  0.0362  0.2972
18592TIP3    H177191   0.786   3.854  13.055 -2.9942  1.1273  1.2625
18592TIP3    H277192   0.691   3.822  12.942 -0.7398 -1.7290  0.1204
18593TIP3   OH277193   5.812   0.242  15.544 -0.2658 -0.3194  0.3281
18593TIP3    H177194   5.760   0.248  15.624  1.6400  0.6074  1.5441
18593TIP3    H277195   5.899   0.214  15.574  0.0302 -1.6433 -1.6238
18594TIP3   OH277196   0.158   4.255  11.405  0.2365 -0.3522 -0.0911
18594TIP3    H177197   0.139   4.341  11.442  0.7074 -0.2021 -0.1921
18594TIP3    H277198   0.250   4.260  11.378  0.1915 -0.7984 -0.3384
18595TIP3   OH277199   2.626   5.309  14.799 -0.5197 -0.1510 -0.1062
18595TIP3    H177200   2.592   5.258  14.873 -0.0802  0.3892  0.4707
18595TIP3    H277201   2.657   5.243  14.737 -2.0494 -0.6369 -0.3747
18596TIP3   OH277202   0.044   3.675   2.519  0.4437 -0.2521  0.9363
18596TIP3    H177203   0.005   3.762   2.518 -0.5614 -0.6936  1.5677
18596TIP3    H277204   0.046   3.650   2.611  2.4582 -0.1365  0.9440
18597TIP3   OH277205   3.130   4.681   0.680  0.2463  0.4406 -0.0155
18597TIP3    H177206   3.215   4.638   0.692  0.0670  0.3799  1.1212
18597TIP3    H277207   3.099   4.696   0.769 -1.5060 -0.6437 -0.4310
18598TIP3   OH277208   5.319   0.468  13.204  0.4495  0.4011  0.0476
18598TIP3    H177209   5.291   0.485  13.114  1.2292 -0.3141 -0.3343
18598TIP3    H277210   5.269   0.531  13.256 -0.3908  0.4787 -0.8233
18599TIP3   OH277211   4.034   0.216   4.538  0.0739 -0.1251  0.4503
18599TIP3    H177212   4.050   0.257   4.623  0.5375  0.4352  0.0972
18599TIP3    H277213   3.953   0.167   4.550 -2.6948  4.0193 -0.1746
18600TIP3   OH277214   5.935   3.070   3.473 -0.0900 -0.2388  0.2825
18600TIP3    H177215   5.884   3.144   3.441 -0.4033  0.2816  1.9623
18600TIP3    H277216   5.938   3.009   3.399  1.2444  1.9839 -1.5512
18601TIP3   OH277217   3.138   4.307   0.594  0.5615  0.5632 -0.4419
18601TIP3    H177218   3.081   4.337   0.665  1.3162 -1.6577  1.1730
18601TIP3    H277219   3.124   4.212   0.591  1.6261  0.4383 -2.3106
18602TIP3   OH277220   2.820   1.179  12.289 -0.0041  0.5209 -0.9873
18602TIP3    H177221   2.845   1.102  12.238 -0.0083  1.9591 -3.2084
18602TIP3    H277222   2.901   1.230  12.297  0.3772 -0.4187  1.8430
18603TIP3   OH277223   0.442   1.314  15.410  0.0269  0.2496 -0.1149
18603TIP3    H177224   0.446   1.282  15.320  1.6458  1.3846 -0.4769
18603TIP3    H277225   0.507   1.262  15.457 -1.9751 -1.4998  0.8179
18604TIP3   OH277226   1.488   4.393  14.936  0.6715  0.3494 -0.0740
18604TIP3    H177227   1.420   4.436  14.885 -0.6573 -0.5164  0.9429
18604TIP3    H277228   1.449   4.310  14.964  0.8268  1.3682  3.4682
18605TIP3   OH277229   6.408   1.456   1.447  0.3479  0.4932  0.2412
18605TIP3    H177230   6.452   1.511   1.382  0.0026 -0.4839 -0.8350
18605TIP3    H277231   6.428   1.366   1.420  0.0982  0.0746  1.4170
18606TIP3   OH277232   0.474   4.184  11.105  0.0093 -0.0801 -0.0800
18606TIP3    H177233   0.451   4.138  11.186 -1.2820  1.2793  0.3418
18606TIP3    H277234   0.548   4.240  11.129 -1.0492  1.1209  0.4529
18607TIP3   OH277235   0.721   0.499   0.654  0.4807 -0.4183  0.0352
18607TIP3    H177236   0.719   0.412   0.693 -1.2849 -0.9028 -1.0909
18607TIP3    H277237   0.674   0.555   0.716  0.1924 -0.6015 -0.0194
18608TIP3   OH277238   5.692   6.290   6.713 -0.0521  0.0990 -0.5594
18608TIP3    H177239   5.652   6.348   6.779  0.1574  0.7310 -0.9813
18608TIP3    H277240   5.733   6.350   6.651 -1.7009 -0.4152 -2.2045
18609TIP3   OH277241   5.014   3.817  15.941  0.2003  0.3070 -0.7287
18609TIP3    H177242   5.104   3.837  15.913  1.1286 -0.7966  1.3606
18609TIP3    H277243   5.013   3.722  15.951 -0.5849  0.5172  1.3508
18610TIP3   OH277244   0.022   5.871  15.561  0.0046  0.2201  0.9605
18610TIP3    H177245   0.076   5.831  15.629 -0.5128 -3.4380 -0.6391
18610TIP3    H277246  -0.068   5.862  15.594 -0.0591  1.0017  1.0165
18611TIP3   OH277247   4.370   4.376   1.906 -0.7955 -0.4854  0.3015
18611TIP3    H177248   4.450   4.365   1.854 -0.7510 -2.1260  0.7092
18611TIP3    H277249   4.334   4.459   1.876 -0.1067 -0.8107 -1.4816
18612TIP3   OH277250   0.277   4.461   5.473 -0.3999 -0.3190 -0.0874
18612TIP3    H177251   0.292   4.554   5.456  0.3729 -0.0613  1.8975
18612TIP3    H277252   0.182   4.451   5.470 -0.4270  0.2590 -1.6256
18613TIP3   OH277253   5.076   3.040   0.610 -0.5888  0.4680 -0.3576
18613TIP3    H177254   5.073   2.953   0.569 -2.6261 -0.1901  1.0866
18613TIP3    H277255   5.000   3.086   0.573 -1.8338  0.2251  1.8319
18614TIP3   OH277256   4.113   5.057  12.525 -0.3113 -0.6639 -0.3606
18614TIP3    H177257   4.113   5.032  12.433  1.7395 -0.2796 -0.4913
18614TIP3    H277258   4.158   4.986  12.570 -0.0731 -0.2032  0.1433
18615TIP3   OH277259   5.761   1.465   2.498  0.4187 -0.7335 -0.4025
18615TIP3    H177260   5.754   1.527   2.571 -0.0992  1.3498 -2.1795
18615TIP3    H277261   5.853   1.467   2.473 -0.2265  2.1165 -2.7822
18616TIP3   OH277262   0.761   5.406  14.944 -0.9042 -0.1998  0.6715
18616TIP3    H177263   0.764   5.472  14.876 -1.1652 -0.6756  0.1978
18616TIP3    H277264   0.774   5.455  15.026  2.4301  0.0391  0.0866
18617TIP3   OH277265   3.393   1.376  10.367 -0.2710  0.6014 -0.0545
18617TIP3    H177266   3.318   1.406  10.418 -0.2185 -1.5417  1.3410
18617TIP3    H277267   3.371   1.286  10.343  1.9548 -0.1481  0.5768
18618TIP3   OH277268   3.162   6.232   1.850  0.2642 -0.3189  0.1481
18618TIP3    H177269   3.209   6.160   1.893  0.0528  0.1032  1.1103
18618TIP3    H277270   3.229   6.278   1.800  0.8562  0.1376  1.3174
18619TIP3   OH277271   4.344   1.277   3.705  0.3838 -0.3711  0.0128
18619TIP3    H177272   4.313   1.328   3.631 -1.8091 -0.6243  0.7144
18619TIP3    H277273   4.384   1.200   3.666 -0.6479 -0.4441 -0.9329
18620TIP3   OH277274   5.821   2.967  16.952 -0.0155 -0.0271 -0.3322
18620TIP3    H177275   5.755   3.013  16.900  0.4081  1.2736  0.2748
18620TIP3    H277276   5.776   2.944  17.033  0.1905  0.6303 -0.0253
18621TIP3   OH277277   4.023   2.339  14.092  0.1225 -0.8699  0.3998
18621TIP3    H177278   3.945   2.284  14.101  0.2189 -0.7093  2.3188
18621TIP3    H277279   3.990   2.421  14.055 -0.2395 -1.6741 -1.0915
18622TIP3   OH277280   5.090   5.937   5.095 -0.3831  0.5389  0.1667
18622TIP3    H177281   5.126   5.856   5.058  1.9155  1.2188  0.8733
18622TIP3    H277282   5.037   5.908   5.169  0.1676 -0.3448  0.2203
18623TIP3   OH277283   3.539   4.369   5.613 -0.1047 -0.8992 -0.6701
18623TIP3    H177284   3.549   4.292   5.557 -0.1058 -1.7969  0.5482
18623TIP3    H277285   3.496   4.336   5.692 -1.3853  0.6162 -0.7087
18624TIP3   OH277286   1.103   4.468  17.232 -0.1618 -0.3283  0.2190
18624TIP3    H177287   1.117   4.563  17.229 -2.3261  0.1194  2.4543
18624TIP3    H277288   1.171   4.437  17.293 -1.7750  0.3498  2.4484
18625TIP3   OH277289   1.943   0.631   4.473 -0.0232 -0.1623 -1.0121
18625TIP3    H177290   2.014   0.601   4.417  0.4891  0.0723 -0.4952
18625TIP3    H277291   1.933   0.724   4.449  0.7248  0.1441 -0.1720
18626TIP3   OH277292   0.024   5.434  15.918 -0.3969  0.2196  0.0839
18626TIP3    H177293  -0.026   5.398  15.846  0.8822 -0.0548 -0.6890
18626TIP3    H277294   0.073   5.360  15.954  0.6046  0.7495 -0.1517
18627TIP3   OH277295   2.726   0.150   1.629  0.1766 -0.4426  0.1280
18627TIP3    H177296   2.678   0.077   1.590  2.0178 -1.6588  0.0391
18627TIP3    H277297   2.702   0.148   1.721 -1.3516  0.1302 -0.2463
18628TIP3   OH277298   1.904   3.712  13.919 -0.6039 -0.1319 -0.0790
18628TIP3    H177299   1.971   3.728  13.852 -1.2180 -0.1998 -0.7228
18628TIP3    H277300   1.902   3.792  13.971 -0.8592  0.3398 -0.8042
18629TIP3   OH277301   5.919   0.668  15.339 -0.2762 -0.0663  0.2395
18629TIP3    H177302   5.995   0.687  15.284 -0.2003 -1.5615 -0.1860
18629TIP3    H277303   5.871   0.751  15.342  0.1286  0.2561 -1.4333
18630TIP3   OH277304   0.842   6.107  11.536  0.3212 -0.2360 -0.3503
18630TIP3    H177305   0.838   6.117  11.631  1.9508 -0.0872 -0.2844
18630TIP3    H277306   0.759   6.141  11.505  0.2485  0.7924  0.9334
18631TIP3   OH277307   1.460   3.301  15.813 -0.0708 -0.4379  0.2535
18631TIP3    H177308   1.440   3.216  15.852 -1.1319 -0.2680  0.0961
18631TIP3    H277309   1.375   3.346  15.808  0.1745 -0.1422 -1.4993
18632TIP3   OH277310   3.846   2.613   1.417  0.1966 -0.5518  0.2086
18632TIP3    H177311   3.842   2.521   1.391  0.6976 -0.5245  0.0168
18632TIP3    H277312   3.757   2.635   1.442  0.3783 -1.5251  1.7946
18633TIP3   OH277313   0.619   2.299   6.145  0.6545 -0.5169 -0.9057
18633TIP3    H177314   0.714   2.303   6.152  0.3497  0.8421  4.5537
18633TIP3    H277315   0.597   2.209   6.168  0.5519 -0.4441 -0.7170
18634TIP3   OH277316   5.948   0.728  12.926  0.4118  0.9758  0.6740
18634TIP3    H177317   5.944   0.822  12.908 -1.4840  0.5429 -1.3111
18634TIP3    H277318   5.857   0.702  12.938  0.6133 -1.1675 -1.9009
18635TIP3   OH277319   1.584   0.672   2.588 -0.4761  0.6622 -0.3358
18635TIP3    H177320   1.527   0.634   2.655 -1.0054  1.9397 -0.0466
18635TIP3    H277321   1.610   0.597   2.533 -2.5212  0.0723 -0.5372
18636TIP3   OH277322   2.709   1.886   4.009  0.2579 -0.2870  0.1826
18636TIP3    H177323   2.703   1.798   3.970 -0.9384  0.2131 -0.8188
18636TIP3    H277324   2.645   1.884   4.080 -3.7719  1.4087 -3.2063
18637TIP3   OH277325   6.082   0.973   0.337  0.3089  0.1980 -0.4913
18637TIP3    H177326   6.159   0.945   0.387 -1.2246 -1.4186  1.0097
18637TIP3    H277327   6.118   1.031   0.270  2.8928 -0.8243 -0.0702
18638TIP3   OH277328   1.013   3.808   3.878 -0.5087  0.1487  0.6461
18638TIP3    H177329   0.951   3.787   3.949 -1.7914  1.8615  0.0847
18638TIP3    H277330   0.973   3.883   3.834 -0.0350 -1.2622 -2.2993
18639TIP3   OH277331   5.615   4.012   6.166  0.8304 -0.1806 -0.0985
18639TIP3    H177332   5.596   3.957   6.242 -1.0878  0.1001 -0.3454
18639TIP3    H277333   5.577   3.965   6.092  3.5293 -0.9224 -1.0534
18640TIP3   OH277334   3.148   1.810  11.441 -1.2129 -0.1145 -0.2895
18640TIP3    H177335   3.203   1.751  11.389  0.1327 -0.3366  1.3702
18640TIP3    H277336   3.066   1.761  11.453 -0.5382 -1.1698  0.0730
18641TIP3   OH277337   0.497   0.932   3.528  0.0164 -0.5942 -0.2105
18641TIP3    H177338   0.466   1.020   3.550  0.5556 -0.3947 -0.2280
18641TIP3    H277339   0.420   0.876   3.539 -0.0640 -0.2872  0.8863
18642TIP3   OH277340   2.527   0.164   0.730  0.4866 -0.3609  0.2464
18642TIP3    H177341   2.462   0.138   0.665  0.4792  2.1071 -0.8258
18642TIP3    H277342   2.572   0.083   0.754 -0.8306 -1.6061 -1.3788
18643TIP3   OH277343   1.642   4.464   4.122  0.4109 -0.4402 -0.2117
18643TIP3    H177344   1.697   4.469   4.044 -2.0700 -1.3299 -2.0833
18643TIP3    H277345   1.599   4.379   4.115 -0.2638 -0.3049  1.8789
18644TIP3   OH277346   2.242   5.124   3.625 -0.1915  0.1311 -0.5072
18644TIP3    H177347   2.330   5.104   3.592 -0.8382  0.0366 -2.2368
18644TIP3    H277348   2.248   5.213   3.658  0.7944 -0.2179  0.2728
18645TIP3   OH277349   6.250   5.303  12.016  0.1366  0.6370 -0.0277
18645TIP3    H177350   6.310   5.251  12.070 -0.2233  1.2156  0.9384
18645TIP3    H277351   6.275   5.281  11.926 -0.0084 -1.2054  0.3517
18646TIP3   OH277352   5.868   4.258   5.006  0.2963 -0.6537 -0.5850
18646TIP3    H177353   5.875   4.353   5.019 -0.1275 -0.6590 -0.3293
18646TIP3    H277354   5.918   4.241   4.926 -2.0997  0.1927 -2.3163
18647TIP3   OH277355   3.939   3.222  13.572  0.3371  0.5233 -0.0817
18647TIP3    H177356   4.004   3.282  13.536  2.6119 -1.4283  0.6149
18647TIP3    H277357   3.927   3.156  13.504 -0.3191  0.4390  0.1189
18648TIP3   OH277358   0.913   3.759   0.968  0.3377 -0.0695  0.2163
18648TIP3    H177359   0.889   3.717   1.050  2.1615 -0.3750  0.6245
18648TIP3    H277360   0.915   3.688   0.904  0.1832 -0.0498  0.1899
18649TIP3   OH277361   3.214   0.529  12.327  0.3800  0.6904  0.1935
18649TIP3    H177362   3.293   0.509  12.377  0.7237 -0.0092 -0.6206
18649TIP3    H277363   3.212   0.464  12.257 -1.7245 -0.2366  1.0770
18650TIP3   OH277364   0.359   0.800  14.073  0.2728  0.5200 -0.7211
18650TIP3    H177365   0.430   0.863  14.085  0.1698  0.7608 -1.3491
18650TIP3    H277366   0.301   0.814  14.148  0.7597  0.4880 -0.3370
18651TIP3   OH277367   0.783   2.154  11.162 -0.3342  0.5607  0.1747
18651TIP3    H177368   0.766   2.248  11.164  0.6986  0.7569 -0.2555
18651TIP3    H277369   0.772   2.129  11.071  0.4772  0.4616  0.1056
18652TIP3   OH277370   1.616   0.341   3.004 -0.0623  0.7827  0.1741
18652TIP3    H177371   1.548   0.282   2.974  1.9417 -1.2086 -0.5976
18652TIP3    H277372   1.623   0.325   3.098 -0.7661  1.1281  0.2889
18653TIP3   OH277373   1.289   4.215  11.856  0.6672 -0.8705  0.0511
18653TIP3    H177374   1.235   4.279  11.901  1.7339  0.3545 -0.3901
18653TIP3    H277375   1.256   4.130  11.887 -0.5542 -0.1211  0.8591
18654TIP3   OH277376   4.610   3.710   2.070  0.4581 -0.0130  0.5358
18654TIP3    H177377   4.581   3.626   2.105  1.9261  0.1115  2.1525
18654TIP3    H277378   4.532   3.747   2.029 -0.0549 -2.4123 -0.7413
18655TIP3   OH277379   2.257   2.158   0.672  0.0623 -0.1532  0.3371
18655TIP3    H177380   2.329   2.207   0.711 -0.3275  1.2583 -0.7047
18655TIP3    H277381   2.218   2.111   0.746  0.9982  0.3858  1.1872
18656TIP3   OH277382   4.084   5.053   5.132 -0.1892  0.5996 -0.5686
18656TIP3    H177383   4.005   5.001   5.150  1.5941 -2.5223 -1.4259
18656TIP3    H277384   4.111   5.087   5.217 -1.5113  0.3105 -0.0195
18657TIP3   OH277385   3.772   3.380  12.588  0.3673 -0.2340 -0.3270
18657TIP3    H177386   3.688   3.364  12.544  0.4291  0.5212 -0.7325
18657TIP3    H277387   3.750   3.386  12.681 -0.1890  0.9456 -0.5180
18658TIP3   OH277388   5.882   1.213   1.928 -0.1454  0.1505 -0.5929
18658TIP3    H177389   5.873   1.118   1.935  1.9368 -0.2237 -2.4183
18658TIP3    H277390   5.801   1.242   1.886 -0.1185 -1.0102 -1.4673
18659TIP3   OH277391   3.290   0.958   0.460 -0.1908  0.3057  0.2609
18659TIP3    H177392   3.289   0.961   0.556  0.7606  1.3974  0.2517
18659TIP3    H277393   3.366   0.905   0.439  0.8343  1.8306  0.0954
18660TIP3   OH277394   6.333   3.638   3.267 -0.1998  0.0400 -0.0644
18660TIP3    H177395   6.279   3.715   3.249  0.3319  1.1107  2.7353
18660TIP3    H277396   6.423   3.672   3.268 -0.0665 -0.2852  2.6516
18661TIP3   OH277397   2.632   3.007   5.264  0.0609  0.6721 -0.3179
18661TIP3    H177398   2.571   3.060   5.316  2.2629  2.5274  0.4236
18661TIP3    H277399   2.632   3.048   5.178  1.1898  1.4665  0.0431
18662TIP3   OH277400   1.175   6.232  11.149  0.3362  0.5905  0.3872
18662TIP3    H177401   1.157   6.316  11.108  0.4588  1.4476  2.0309
18662TIP3    H277402   1.187   6.171  11.076 -1.8180  1.5563 -0.8113
18663TIP3   OH277403   5.902   2.081  16.685 -0.0395  0.0794 -0.2888
18663TIP3    H177404   5.981   2.122  16.648 -0.0204 -0.1487 -0.4978
18663TIP3    H277405   5.868   2.147  16.746  1.2775 -0.4919  1.1193
18664TIP3   OH277406   5.301   6.725  15.340  1.0038 -0.1777 -0.3736
18664TIP3    H177407   5.306   6.660  15.270 -0.1854 -2.4472  1.5779
18664TIP3    H277408   5.208   6.726  15.365  1.3986  0.6110  1.1335
18665TIP3   OH277409   4.635   2.615  14.025 -0.2155 -0.3141  0.0082
18665TIP3    H177410   4.717   2.600  13.979  0.0147  1.9423 -0.3679
18665TIP3    H277411   4.567   2.600  13.959  0.0042  0.4224 -0.3810
18666TIP3   OH277412   1.995   5.604  13.974 -0.6404 -0.3368  0.1302
18666TIP3    H177413   1.944   5.642  14.045 -0.0362  1.2596 -0.2752
18666TIP3    H277414   1.929   5.563  13.917 -1.2428 -0.4031  0.8740
18667TIP3   OH277415   2.958   1.595  16.388  0.4156  0.4809 -0.0953
18667TIP3    H177416   2.873   1.614  16.349 -0.6849 -2.2454  0.9085
18667TIP3    H277417   2.959   1.644  16.470 -1.1218 -1.1533  0.9485
18668TIP3   OH277418   3.663   1.544   4.201  0.2692  0.8087 -0.0828
18668TIP3    H177419   3.571   1.549   4.224 -0.0482  0.3711 -1.2094
18668TIP3    H277420   3.676   1.617   4.140  0.4637  0.3738 -0.5688
18669TIP3   OH277421   4.409   3.284  16.847  0.3843  1.2452 -0.1196
18669TIP3    H177422   4.406   3.199  16.803 -1.4291  0.2498  1.8808
18669TIP3    H277423   4.488   3.281  16.901 -0.5558  0.1707  1.2179
18670TIP3   OH277424   3.215   6.181   5.269 -0.2615 -0.4524 -0.4912
18670TIP3    H177425   3.206   6.251   5.204  0.5185 -0.1361 -0.2729
18670TIP3    H277426   3.278   6.120   5.231 -0.8472 -0.9781 -0.6261
18671TIP3   OH277427   3.150   2.014  10.758  0.2494 -0.1712 -0.4625
18671TIP3    H177428   3.234   1.996  10.715  0.3330 -2.7569  0.6663
18671TIP3    H277429   3.090   1.950  10.720 -0.9791  0.9673 -0.4901
18672TIP3   OH277430   5.475   2.820   1.157 -0.1969 -0.2839 -0.4425
18672TIP3    H177431   5.401   2.774   1.117 -0.7277  0.6256 -0.5248
18672TIP3    H277432   5.454   2.913   1.146 -0.5086 -0.0027  2.2110
18673TIP3   OH277433   2.180   2.508  12.680  0.5011  0.0366  0.1944
18673TIP3    H177434   2.156   2.594  12.646  2.0729  1.3283  2.2255
18673TIP3    H277435   2.153   2.511  12.772  1.8653 -1.1148  0.6438
18674TIP3   OH277436   0.921   6.743   4.237  0.2319  1.0958 -0.7024
18674TIP3    H177437   0.838   6.744   4.285  0.6816  0.8006  0.0876
18674TIP3    H277438   0.988   6.731   4.305  0.8766  0.7083 -1.4012
18675TIP3   OH277439   0.430   2.070  14.569  0.0346 -0.2177  0.1688
18675TIP3    H177440   0.447   2.117  14.651  2.8382  0.3540 -0.6922
18675TIP3    H277441   0.365   2.123  14.524  0.4892  0.9143  0.8194
18676TIP3   OH277442   5.591   3.338   5.391  0.8145 -0.0941  0.6114
18676TIP3    H177443   5.666   3.358   5.336  0.9828 -0.1971  0.7999
18676TIP3    H277444   5.554   3.423   5.414  0.0943 -0.0911 -0.5436
18677TIP3   OH277445   3.004   6.100   2.795  0.0789  0.1416  0.3155
18677TIP3    H177446   3.049   6.104   2.710  1.1384 -3.2580  0.6128
18677TIP3    H277447   2.935   6.165   2.789  0.4031  0.2645 -3.0242
18678TIP3   OH277448   6.588   5.842  12.138  0.1235  0.7834  0.2102
18678TIP3    H177449   6.538   5.785  12.081  2.0225 -1.3922  0.6782
18678TIP3    H277450   6.523   5.904  12.172 -1.8540 -0.7045 -0.7556
18679TIP3   OH277451   1.233   4.740   5.833  0.0418 -0.7147 -0.4274
18679TIP3    H177452   1.210   4.715   5.744 -0.3719 -1.5983 -0.0739
18679TIP3    H277453   1.320   4.701   5.847 -0.4724 -1.7065  0.0181
18680TIP3   OH277454   4.326   6.056  14.747 -0.0772 -0.2224 -0.2236
18680TIP3    H177455   4.271   6.015  14.680 -0.0592 -0.6520  0.0221
18680TIP3    H277456   4.317   6.150  14.731  0.5819 -0.3454 -1.3515
18681TIP3   OH277457   6.148   0.364  16.156 -0.1086  0.9480 -1.0124
18681TIP3    H177458   6.091   0.437  16.134 -0.2382  0.2919 -2.8938
18681TIP3    H277459   6.106   0.287  16.118  0.2581 -0.0659  0.5449
18682TIP3   OH277460   0.544   0.580   0.885 -0.1188 -0.5402  0.0766
18682TIP3    H177461   0.588   0.568   0.969 -1.3610  1.4590  1.0413
18682TIP3    H277462   0.472   0.518   0.886  0.2387 -0.9562  0.2201
18683TIP3   OH277463   0.450   6.129  12.075  0.1065 -0.1794  0.0518
18683TIP3    H177464   0.536   6.172  12.071 -1.2862  2.8842  1.0839
18683TIP3    H277465   0.391   6.189  12.029 -1.8783 -1.0767  1.3511
18684TIP3   OH277466   0.997   6.629   5.120  0.1020  0.6963 -0.0704
18684TIP3    H177467   1.070   6.592   5.168 -0.9748 -0.4627  0.6854
18684TIP3    H277468   0.967   6.702   5.174  0.4763  0.9637 -0.2197
18685TIP3   OH277469   1.875   1.846  12.260  0.6845  0.7173  0.0490
18685TIP3    H177470   1.890   1.833  12.354 -0.5042  0.2490  0.1801
18685TIP3    H277471   1.947   1.799  12.218  0.6735  0.0961  0.7126
18686TIP3   OH277472   1.634   1.165  14.728 -0.2377 -0.7480  0.3716
18686TIP3    H177473   1.696   1.238  14.736 -0.7260 -0.4818  1.8310
18686TIP3    H277474   1.607   1.147  14.818 -0.9558 -2.0121 -0.0945
18687TIP3   OH277475   1.233   0.598  13.851  0.3300  0.2240 -0.5020
18687TIP3    H177476   1.193   0.684  13.863 -0.9527 -0.3284 -0.8127
18687TIP3    H277477   1.325   0.617  13.833  0.6552  1.4174  2.2382
18688TIP3   OH277478   2.180   5.456   1.757  0.2264  0.0173  0.3585
18688TIP3    H177479   2.234   5.470   1.835  0.3028  0.7353  0.1815
18688TIP3    H277480   2.200   5.366   1.730  1.7302  0.4349 -0.0047
18689TIP3   OH277481   5.642   1.317  11.762  0.0732 -0.1557  1.0559
18689TIP3    H177482   5.573   1.256  11.789  0.6355 -0.3356  2.1116
18689TIP3    H277483   5.630   1.327  11.667 -0.5627 -1.2370  1.0170
18690TIP3   OH277484   3.409   1.870   4.657  0.1270  0.3926  0.0465
18690TIP3    H177485   3.424   1.775   4.663  2.0234  0.6301 -0.6589
18690TIP3    H277486   3.365   1.881   4.572 -0.9690  0.0579  0.5611
18691TIP3   OH277487   0.063   0.631   4.861  0.0615 -0.1344  0.1419
18691TIP3    H177488   0.015   0.701   4.817  0.8556  0.4208  0.1526
18691TIP3    H277489   0.092   0.671   4.944  0.3051 -0.5488  0.2570
18692TIP3   OH277490   3.584   4.912   1.010 -0.3334  0.1662  0.3486
18692TIP3    H177491   3.511   4.900   0.950 -0.8915 -0.4478  1.1220
18692TIP3    H277492   3.543   4.935   1.094  0.4925  2.2499  0.2117
18693TIP3   OH277493   3.089   0.067   1.240  0.4708  0.3809 -0.3076
18693TIP3    H177494   3.006   0.108   1.215  0.5917  0.0053 -1.3735
18693TIP3    H277495   3.106   0.004   1.170  0.0039 -1.8893  1.5500
18694TIP3   OH277496   6.291   3.872   0.806  0.1202 -0.1305  0.2288
18694TIP3    H177497   6.294   3.784   0.768  0.1952  0.6586 -1.6378
18694TIP3    H277498   6.236   3.863   0.884 -0.2620 -1.7300 -0.2077
18695TIP3   OH277499   3.107   3.210  13.330 -0.3726  0.2318 -0.1073
18695TIP3    H177500   3.148   3.158  13.261  0.4173  2.0949 -1.0827
18695TIP3    H277501   3.043   3.264  13.285 -0.1739  1.1368  0.6605
18696TIP3   OH277502   1.726   1.321  11.855  0.1802 -0.3629  0.7210
18696TIP3    H177503   1.752   1.397  11.803 -0.1635 -0.8621 -0.1765
18696TIP3    H277504   1.634   1.336  11.876  0.6520  0.4735  2.3013
18697TIP3   OH277505   3.659   5.937  10.609 -0.5679 -0.1334 -0.6296
18697TIP3    H177506   3.628   5.862  10.660 -1.1125 -0.4560 -1.4318
18697TIP3    H277507   3.754   5.928  10.609 -0.4040  1.0028  2.0645
18698TIP3   OH277508   5.061   2.879   6.022 -0.1847  0.1139  0.2401
18698TIP3    H177509   5.049   2.951   6.084  0.7750 -0.9228  1.6824
18698TIP3    H277510   5.099   2.920   5.944 -0.4874  1.2987  0.7143
18699TIP3   OH277511   1.784   5.375  10.646 -0.3466 -0.6759  0.9209
18699TIP3    H177512   1.695   5.409  10.648 -0.5711 -1.1917 -0.5418
18699TIP3    H277513   1.800   5.353  10.555  0.9293 -1.5237  1.3379
18700TIP3   OH277514   4.228   1.352   6.025 -0.0411  0.1391  0.3655
18700TIP3    H177515   4.265   1.426   5.976 -0.4110 -0.1303 -0.3192
18700TIP3    H277516   4.267   1.360   6.112  3.9772 -1.7875 -1.1095
18701TIP3   OH277517   3.967   1.690  16.567  0.4213  0.0891 -0.5534
18701TIP3    H177518   3.923   1.643  16.496 -0.0018  1.8717 -1.4782
18701TIP3    H277519   3.924   1.657  16.647  1.6849 -2.7788 -0.9679
18702TIP3   OH277520   2.246   1.191  11.563 -0.0336  0.2786 -0.1227
18702TIP3    H177521   2.183   1.262  11.573  1.6485  1.8873 -0.5667
18702TIP3    H277522   2.200   1.124  11.513 -2.2279  0.2776  1.7947
18703TIP3   OH277523   0.972   5.118   3.109  0.2512 -0.3152  0.1066
18703TIP3    H177524   0.972   5.038   3.161 -0.4337 -0.8563 -0.7122
18703TIP3    H277525   1.001   5.186   3.170 -1.4204 -0.7827  1.4552
18704TIP3   OH277526   5.442   2.000  11.477  0.4555 -0.0734 -0.4053
18704TIP3    H177527   5.525   2.034  11.510 -0.0953  0.4236  0.4846
18704TIP3    H277528   5.444   2.019  11.383  0.4537  1.8434 -0.0462
18705TIP3   OH277529   2.948   2.330   4.838 -0.1837  0.0723 -0.1556
18705TIP3    H177530   2.987   2.384   4.906  0.4813 -0.4496 -0.1261
18705TIP3    H277531   2.987   2.362   4.756  0.5038 -0.6202 -0.1013
18706TIP3   OH277532   2.024   4.282   5.950  0.7445 -0.6216 -0.1657
18706TIP3    H177533   2.025   4.224   6.026  1.3855  0.3756  0.6004
18706TIP3    H277534   1.935   4.318   5.948  1.5167  1.5078  1.8012
18707TIP3   OH277535   5.127   4.610   1.797 -0.4983 -0.7141  0.2538
18707TIP3    H177536   5.127   4.528   1.847  0.2671  0.2753  1.9397
18707TIP3    H277537   5.218   4.622   1.770 -1.0029 -1.5073 -1.8715
18708TIP3   OH277538   4.879   1.887   0.673  0.2438 -0.3855  0.4810
18708TIP3    H177539   4.940   1.816   0.696 -1.4828 -2.4009 -0.9796
18708TIP3    H277540   4.825   1.850   0.603 -1.1087  2.1846  0.1239
18709TIP3   OH277541   4.940   2.390  10.912 -0.7518  0.4751  0.4107
18709TIP3    H177542   4.988   2.473  10.904  0.6236 -0.4335 -1.1790
18709TIP3    H277543   4.852   2.411  10.881 -0.3556  1.2856 -0.1993
18710TIP3   OH277544   5.406   5.595  16.420  0.0305 -0.4933 -0.2090
18710TIP3    H177545   5.318   5.601  16.385  0.2155 -0.9060 -0.7501
18710TIP3    H277546   5.420   5.678  16.464 -1.6361 -1.4763  2.2728
18711TIP3   OH277547   1.053   0.055  12.171 -0.2286 -0.0170 -0.3439
18711TIP3    H177548   1.007   0.109  12.236 -1.9466  1.2354 -2.5376
18711TIP3    H277549   1.093  -0.015  12.223 -0.9180  1.3711  2.1502
18712TIP3   OH277550   2.238   1.998   1.358 -0.1715 -0.2884  0.3579
18712TIP3    H177551   2.295   2.071   1.334  0.1030 -0.1067  1.5692
18712TIP3    H277552   2.156   2.038   1.385 -0.3786 -0.4802  0.0190
18713TIP3   OH277553   4.655   5.391  11.894 -0.0316  0.1155 -0.1127
18713TIP3    H177554   4.639   5.446  11.817 -1.2418 -0.5117 -0.3246
18713TIP3    H277555   4.709   5.445  11.952 -1.9128  1.8658  0.0633
18714TIP3   OH277556   0.968   0.477  15.393 -0.0691 -0.0067 -0.2731
18714TIP3    H177557   0.874   0.461  15.394  0.3842 -2.9582 -1.9016
18714TIP3    H277558   0.985   0.523  15.476 -2.9875  1.0668 -0.2196
18715TIP3   OH277559   4.590   0.118  17.107 -0.0444  0.4871 -0.2631
18715TIP3    H177560   4.620   0.041  17.156 -0.7327 -0.6251 -1.5432
18715TIP3    H277561   4.633   0.110  17.022 -1.3381  0.6937 -0.9396
18716TIP3   OH277562   0.280   0.622  12.676 -0.1183 -0.0281  0.5387
18716TIP3    H177563   0.300   0.538  12.635  0.1064  0.0690  0.4508
18716TIP3    H277564   0.353   0.679  12.651 -0.7587  0.4707 -0.2078
18717TIP3   OH277565   5.418   0.015  17.186  0.4993  0.1421  0.0833
18717TIP3    H177566   5.450  -0.011  17.272  1.0004 -2.3537 -0.8017
18717TIP3    H277567   5.415   0.111  17.189  1.5932  0.1392  2.4713
18718TIP3   OH277568   3.587   1.336  16.344 -0.1850  0.5726 -0.6310
18718TIP3    H177569   3.519   1.311  16.282 -2.9676  0.9407  2.1953
18718TIP3    H277570   3.612   1.254  16.387 -0.2281  0.7176 -0.3232
18719TIP3   OH277571   1.420   2.804  13.036  0.1831  0.2125 -0.2494
18719TIP3    H177572   1.367   2.881  13.013 -1.3662 -0.4525  0.9687
18719TIP3    H277573   1.468   2.831  13.114  0.9347  0.5155 -0.8218
18720TIP3   OH277574   0.347   5.495  15.558  0.1193 -0.0304  0.4452
18720TIP3    H177575   0.339   5.584  15.595 -2.6984 -0.1517  0.2284
18720TIP3    H277576   0.259   5.457  15.568  1.1235 -2.5726 -0.0709
18721TIP3   OH277577   4.534   4.081   3.315  0.2508 -0.4036 -0.6035
18721TIP3    H177578   4.490   4.080   3.230  0.1733  0.0451 -0.5671
18721TIP3    H277579   4.622   4.114   3.296  0.8407 -2.0003 -0.8000
18722TIP3   OH277580   6.423   6.118  16.190  0.6594 -0.3278 -0.5083
18722TIP3    H177581   6.451   6.183  16.254  0.9468  1.2034 -2.1482
18722TIP3    H277582   6.329   6.107  16.207  1.2500 -2.0576  1.9855
18723TIP3   OH277583   2.800   4.716   1.474 -0.1732 -0.1432 -0.1405
18723TIP3    H177584   2.836   4.765   1.547 -0.6465 -0.7381  0.4953
18723TIP3    H277585   2.705   4.722   1.485 -0.2889  1.1037 -1.6001
18724TIP3   OH277586   4.579   1.221   3.171 -0.3642 -0.5758 -0.6248
18724TIP3    H177587   4.489   1.235   3.143  0.3751  0.9031 -2.3343
18724TIP3    H277588   4.632   1.247   3.096  1.5652  0.4949  1.0685
18725TIP3   OH277589   1.674   1.923  12.584  0.0651 -0.1975 -0.0318
18725TIP3    H177590   1.638   1.983  12.519 -0.1323  1.9496  1.9859
18725TIP3    H277591   1.753   1.888  12.543  0.4274  1.7858 -1.1155
18726TIP3   OH277592   4.830   4.428  11.102  0.3425  0.3608  0.4537
18726TIP3    H177593   4.883   4.502  11.071  1.3336 -0.2982  0.5297
18726TIP3    H277594   4.879   4.394  11.176 -1.0907  0.8016  1.6158
18727TIP3   OH277595   3.712   4.438   1.602  0.1441 -0.0546 -0.3115
18727TIP3    H177596   3.805   4.458   1.615 -0.1662  1.9316 -0.8865
18727TIP3    H277597   3.674   4.444   1.690  0.2432  0.9623 -0.3313
18728TIP3   OH277598   4.408   3.844   4.415  0.0854 -0.2429  0.6029
18728TIP3    H177599   4.323   3.887   4.404  0.5074  0.0661 -1.6629
18728TIP3    H277600   4.416   3.787   4.338  1.1566 -1.5934  1.7034
18729TIP3   OH277601   0.382   3.085   3.598 -0.7460  0.2092  0.7005
18729TIP3    H177602   0.372   3.087   3.503 -2.3784 -0.2613  0.8472
18729TIP3    H277603   0.393   2.993   3.619  0.1561  0.3688  0.9123
18730TIP3   OH277604   6.055   5.251   0.333  0.1424 -1.0367  0.1328
18730TIP3    H177605   6.115   5.250   0.258  0.1179  0.7379  0.0565
18730TIP3    H277606   6.085   5.181   0.390  1.3244 -1.1765 -0.6557
18731TIP3   OH277607   4.239   5.444   6.305 -0.0710  0.2263 -0.0145
18731TIP3    H177608   4.290   5.367   6.283  0.5702  0.5057  0.4965
18731TIP3    H277609   4.154   5.429   6.263  0.6724  0.1145 -1.5109
18732TIP3   OH277610   2.879   1.984   6.011  0.0377  0.0016  0.4478
18732TIP3    H177611   2.929   2.058   6.047 -1.6875  1.1052  0.6306
18732TIP3    H277612   2.840   1.943   6.088 -1.0222  0.4008  0.1243
18733TIP3   OH277613   2.545   4.707   6.152 -0.0028  0.3160 -0.3901
18733TIP3    H177614   2.628   4.713   6.200 -0.0685 -1.1608 -0.0985
18733TIP3    H277615   2.538   4.792   6.108  0.8625  1.0578  0.8836
18734TIP3   OH277616   6.049   5.327  13.247  0.2869  0.1194  0.2582
18734TIP3    H177617   6.071   5.239  13.276  0.1414  0.6300  2.0078
18734TIP3    H277618   6.123   5.355  13.193  1.6271 -0.0394  1.9863
18735TIP3   OH277619   1.367   4.904   5.389 -0.1143  1.1196  0.0763
18735TIP3    H177620   1.377   4.996   5.412 -0.6321  1.4567 -1.0109
18735TIP3    H277621   1.403   4.898   5.301  1.4955 -0.0680  0.7977
18736TIP3   OH277622   6.685   4.503  13.110 -0.3399  0.0575 -0.2260
18736TIP3    H177623   6.654   4.498  13.201  1.1816 -0.5130  0.2834
18736TIP3    H277624   6.618   4.458  13.060 -0.4823 -0.9464  0.8296
18737TIP3   OH277625   2.300   5.275  14.606  0.5889  0.2400 -0.3668
18737TIP3    H177626   2.337   5.236  14.527  1.9734  0.3509  0.2134
18737TIP3    H277627   2.352   5.354  14.621 -0.3071  0.7600  0.1161
18738TIP3   OH277628   2.041   3.662   4.395  0.0111 -0.0113 -0.1074
18738TIP3    H177629   1.979   3.601   4.355 -0.6565  0.3834  0.3086
18738TIP3    H277630   2.072   3.618   4.473 -1.2639  0.5874  0.7608
18739TIP3   OH277631   3.092   3.351  11.369  0.2065 -0.3322  0.0113
18739TIP3    H177632   3.017   3.363  11.428  0.3021  0.7778 -0.0703
18739TIP3    H277633   3.059   3.295  11.299 -0.1585 -0.9638  0.6852
18740TIP3   OH277634   5.747   1.264  14.870 -0.2678 -0.0800  0.2578
18740TIP3    H177635   5.745   1.175  14.904  1.2863 -1.0097 -1.9863
18740TIP3    H277636   5.704   1.259  14.785  0.5794  1.1268 -0.2524
18741TIP3   OH277637   5.927   5.720  14.102  0.2491 -0.1827 -0.1712
18741TIP3    H177638   5.861   5.744  14.167  0.5202  2.0612 -0.6870
18741TIP3    H277639   6.011   5.735  14.146  0.4378  1.7752 -1.1480
18742TIP3   OH277640   2.248   1.767   1.224 -0.2283 -0.1760  0.2404
18742TIP3    H177641   2.254   1.853   1.267  0.6042  0.3387 -0.8794
18742TIP3    H277642   2.157   1.760   1.196 -0.4205  0.1165  0.7730
18743TIP3   OH277643   3.790   3.171   5.161 -0.3157 -0.2484 -0.5939
18743TIP3    H177644   3.777   3.119   5.241  0.0753 -1.1699 -1.1310
18743TIP3    H277645   3.777   3.109   5.089 -0.1194  0.4580 -1.2422
18744TIP3   OH277646   0.402   3.580   4.716 -0.1752  0.2242 -0.0541
18744TIP3    H177647   0.402   3.612   4.626  1.1110  0.5444  0.0518
18744TIP3    H277648   0.479   3.524   4.722 -1.1565 -1.0919  0.3963
18745TIP3   OH277649   4.714   1.577  15.582  0.1207 -0.6487 -0.0311
18745TIP3    H177650   4.657   1.593  15.507  0.4215  0.2318 -0.0737
18745TIP3    H277651   4.748   1.663  15.605  2.1966 -1.2688 -0.6189
18746TIP3   OH277652   2.527   6.454   2.949  0.2190  0.4686  0.5727
18746TIP3    H177653   2.541   6.396   2.874 -0.4254  0.5155  0.4132
18746TIP3    H277654   2.614   6.487   2.970  0.5008 -0.0603  0.2617
18747TIP3   OH277655   6.555   0.488  12.536  0.2372 -0.0162  0.0869
18747TIP3    H177656   6.533   0.572  12.575  1.7553  0.6312 -0.4342
18747TIP3    H277657   6.647   0.496  12.510 -0.5865 -0.5475 -3.2488
18748TIP3   OH277658   0.086   5.049   0.925 -0.1706 -0.2611  0.3859
18748TIP3    H177659   0.143   5.125   0.913 -0.1617 -0.5857 -1.8587
18748TIP3    H277660  -0.003   5.084   0.916 -0.1509 -0.5819 -1.2984
18749TIP3   OH277661   3.716   2.617  14.571  0.2099 -0.0695 -0.4725
18749TIP3    H177662   3.686   2.693  14.521  0.5679 -0.2673 -0.9973
18749TIP3    H277663   3.687   2.542  14.519 -2.0041 -0.3607  1.0874
18750TIP3   OH277664   4.401   0.916  16.419  0.0290 -0.1900 -0.1993
18750TIP3    H177665   4.417   0.841  16.362  1.5762 -0.5916  0.7531
18750TIP3    H277666   4.472   0.977  16.399  0.6422 -0.3693  1.3416
18751TIP3   OH277667   1.990   1.882   3.238 -0.7185  0.3024  0.3611
18751TIP3    H177668   1.984   1.863   3.332  1.0152  1.1375  0.6555
18751TIP3    H277669   1.909   1.927   3.217 -1.1690  0.0026  1.4304
18752TIP3   OH277670   0.305   6.220  15.863  0.1147  0.0372 -0.1583
18752TIP3    H177671   0.371   6.276  15.905  0.7616  0.1678 -1.3432
18752TIP3    H277672   0.238   6.281  15.832  0.0448  0.0123 -0.0578
18753TIP3   OH277673   4.472   3.472   1.864  0.0199 -0.3101 -0.1628
18753TIP3    H177674   4.421   3.431   1.794 -0.2720 -0.5894  0.2098
18753TIP3    H277675   4.531   3.532   1.819  0.2133 -0.8912 -0.6903
18754TIP3   OH277676   4.872   2.714  16.093  0.3245 -0.4263  0.4826
18754TIP3    H177677   4.892   2.676  16.007  1.5318 -0.3116  0.7164
18754TIP3    H277678   4.943   2.684  16.150  0.3828  0.8069  1.0627
18755TIP3   OH277679   5.229   2.081  15.835  0.2469  0.4079 -0.2833
18755TIP3    H177680   5.233   2.045  15.746 -0.2235  0.0959 -0.1827
18755TIP3    H277681   5.318   2.112  15.852  0.4067  0.2303 -0.7651
18756TIP3   OH277682   0.550   0.120   3.565 -0.5027  0.1667 -0.3616
18756TIP3    H177683   0.498   0.138   3.486 -0.2954 -0.0098 -0.5416
18756TIP3    H277684   0.566   0.025   3.561 -1.7743 -0.1099  0.6916
18757TIP3   OH277685   3.053   3.340  12.297 -0.0394 -0.4002 -0.0152
18757TIP3    H177686   3.050   3.281  12.222 -2.0340  0.6721 -0.8458
18757TIP3    H277687   3.112   3.410  12.270 -0.6802 -0.0649 -0.5782
18758TIP3   OH277688   5.033   6.752   1.178 -0.8878 -0.1403 -0.4916
18758TIP3    H177689   4.969   6.753   1.250 -0.4992  1.9635 -0.1465
18758TIP3    H277690   5.055   6.660   1.167 -2.0384 -0.6342  1.1315
18759TIP3   OH277691   5.546   5.463   5.099  0.2099 -0.2355  0.1815
18759TIP3    H177692   5.558   5.401   5.171  2.0943  0.6176  0.6496
18759TIP3    H277693   5.626   5.455   5.047  0.9779  2.5256  0.8375
18760TIP3   OH277694   1.240   6.477   2.846 -0.3346  0.0399  0.0207
18760TIP3    H177695   1.225   6.530   2.924 -0.1434  2.5286 -1.5758
18760TIP3    H277696   1.325   6.507   2.813 -0.4290 -0.9461 -1.1529
18761TIP3   OH277697   5.104   1.440  12.846 -0.1026 -0.5855  0.1119
18761TIP3    H177698   5.086   1.393  12.765  0.2014  0.2613 -0.4563
18761TIP3    H277699   5.032   1.503  12.854 -0.2077 -0.7615  0.5727
18762TIP3   OH277700   4.339   2.637  16.835  0.0752  0.5642  0.7127
18762TIP3    H177701   4.336   2.722  16.790  0.3695  0.3380  0.2577
18762TIP3    H277702   4.433   2.621  16.848  0.0673 -0.2162 -0.2042
18763TIP3   OH277703   4.792   4.632  15.228  0.0703  0.7235 -0.3878
18763TIP3    H177704   4.885   4.611  15.219 -0.3362 -1.4033  0.0160
18763TIP3    H277705   4.778   4.636  15.323 -0.4528 -0.0289 -0.4260
18764TIP3   OH277706   1.815   2.848  11.481 -0.0030 -0.2247 -0.0261
18764TIP3    H177707   1.776   2.766  11.449  0.3650 -0.4938  0.2053
18764TIP3    H277708   1.805   2.843  11.577  3.3417 -1.7391  0.3092
18765TIP3   OH277709   2.228   1.651  15.839  0.0746 -0.2237 -0.5296
18765TIP3    H177710   2.166   1.660  15.911  1.3500 -0.8491  0.6732
18765TIP3    H277711   2.298   1.596  15.874  0.1058 -1.6253 -2.6579
18766TIP3   OH277712   3.606   0.751   4.313 -0.3188  0.1448 -0.2469
18766TIP3    H177713   3.599   0.678   4.374 -2.1013 -1.1784 -1.9414
18766TIP3    H277714   3.686   0.734   4.263 -1.1517 -1.1170 -1.1775
18767TIP3   OH277715   0.868   1.292  11.558  0.3268 -0.5405  0.7655
18767TIP3    H177716   0.821   1.297  11.475 -1.4287  0.3763  1.7831
18767TIP3    H277717   0.860   1.200  11.584 -0.3578 -0.5281  0.6130
18768TIP3   OH277718   4.592   5.444   3.373  0.1345 -0.2798 -0.0396
18768TIP3    H177719   4.508   5.466   3.413  0.9558  1.5371  0.7543
18768TIP3    H277720   4.610   5.516   3.313  0.7603 -1.0510 -0.7960
18769TIP3   OH277721   5.213   2.050   5.304 -0.0361  0.1723 -0.0535
18769TIP3    H177722   5.139   1.997   5.274 -0.4505  1.2107 -0.9295
18769TIP3    H277723   5.273   1.988   5.344 -0.8003 -0.8669 -0.4954
18770TIP3   OH277724   0.086   3.144  12.961 -0.2776 -1.4244  0.4239
18770TIP3    H177725   0.104   3.214  13.024  0.0685 -1.9925  0.9696
18770TIP3    H277726   0.169   3.095  12.955 -0.1563 -1.0751 -0.8574
18771TIP3   OH277727   5.241   2.660  15.641 -0.1509  0.6356 -0.5042
18771TIP3    H177728   5.212   2.682  15.730 -0.0732  0.5422 -0.4548
18771TIP3    H277729   5.258   2.565  15.644 -0.5264  0.5616 -0.7253
18772TIP3   OH277730   6.551   2.590   4.261 -0.6330  0.4828 -0.1168
18772TIP3    H177731   6.603   2.565   4.337 -0.2958 -2.2527 -1.1822
18772TIP3    H277732   6.461   2.566   4.284  0.0180 -4.3892 -2.0960
18773TIP3   OH277733   2.466   5.755   4.012  0.2708 -0.0432  0.1100
18773TIP3    H177734   2.441   5.737   4.102  0.2401 -0.0220  0.1062
18773TIP3    H277735   2.408   5.700   3.959 -0.6533  0.9455  0.0489
18774TIP3   OH277736   6.191   2.097  15.266 -0.7582  0.2404  0.8816
18774TIP3    H177737   6.204   2.044  15.345  2.7053 -0.9638 -0.4413
18774TIP3    H277738   6.219   2.185  15.291 -0.9234  0.1593  1.3627
18775TIP3   OH277739   6.249   0.605  14.211 -0.3343  0.0771 -0.4116
18775TIP3    H177740   6.183   0.647  14.156  0.2483 -0.9995 -1.9651
18775TIP3    H277741   6.244   0.512  14.187  1.5479 -0.0541 -0.3476
18776TIP3   OH277742   3.431   3.717  15.212 -0.8266 -0.5432 -0.7514
18776TIP3    H177743   3.375   3.725  15.135 -1.3548  1.6684 -0.1821
18776TIP3    H277744   3.481   3.799  15.213 -0.2164 -0.9140  0.7857
18777TIP3   OH277745   2.353   4.543   3.554 -0.1467 -0.4047 -0.1753
18777TIP3    H177746   2.335   4.530   3.647  1.3324  0.7973  0.3027
18777TIP3    H277747   2.333   4.635   3.539 -1.1598 -0.7909 -1.2453
18778TIP3   OH277748   0.913   2.583  16.607 -0.3913  0.0679 -0.2859
18778TIP3    H177749   0.818   2.588  16.618 -0.6556 -2.9582 -0.6396
18778TIP3    H277750   0.948   2.640  16.675 -2.4545  1.4842 -0.3562
18779TIP3   OH277751   2.519   5.768   3.049 -0.0555  0.6291  0.3771
18779TIP3    H177752   2.544   5.857   3.024 -1.1902  0.5324 -1.1541
18779TIP3    H277753   2.424   5.765   3.037 -0.0978 -0.6277  0.9467
18780TIP3   OH277754   0.967   0.620   2.487  0.2497 -0.5573  0.1793
18780TIP3    H177755   1.016   0.543   2.516 -0.9025 -0.7818  1.6312
18780TIP3    H277756   0.949   0.669   2.567 -0.0620  0.6148 -0.5884
18781TIP3   OH277757   6.435   4.758  16.295  0.3800 -0.4076 -0.2438
18781TIP3    H177758   6.407   4.849  16.304 -0.3815 -0.5717 -0.8511
18781TIP3    H277759   6.473   4.735  16.379 -0.2834  0.1858  0.2217
18782TIP3   OH277760   0.083   4.909  14.467 -0.1542 -0.0859 -0.0602
18782TIP3    H177761   0.012   4.921  14.530  0.9589  0.3509  1.1237
18782TIP3    H277762   0.156   4.960  14.502  1.1899 -1.6023 -0.5659
18783TIP3   OH277763   3.895   5.886   6.421  0.3361 -0.2498  0.2282
18783TIP3    H177764   3.960   5.871   6.489  1.3926  0.5823 -0.5782
18783TIP3    H277765   3.899   5.809   6.364  0.9741  0.0260 -0.1004
18784TIP3   OH277766   4.405   3.250  14.050 -0.3118 -0.1675  0.1779
18784TIP3    H177767   4.377   3.186  14.116  0.1701 -0.3954  0.1629
18784TIP3    H277768   4.348   3.233  13.975  0.5098 -1.3055 -0.2184
18785TIP3   OH277769   2.751   0.546  13.234 -0.1602  0.0550  0.3700
18785TIP3    H177770   2.705   0.463  13.246  0.9560 -0.8038 -1.0699
18785TIP3    H277771   2.683   0.607  13.208 -0.8255 -0.6708  0.3769
18786TIP3   OH277772   3.705   3.874   4.596  0.3017 -0.0430 -0.4279
18786TIP3    H177773   3.675   3.783   4.587  0.8135 -0.3227  0.6325
18786TIP3    H277774   3.681   3.899   4.685  1.5256  0.3523 -0.1971
18787TIP3   OH277775   0.582   2.523   3.072 -0.3235 -0.5368  0.3628
18787TIP3    H177776   0.625   2.456   3.126 -1.5366  0.1983  2.3000
18787TIP3    H277777   0.621   2.605   3.102 -1.5317 -0.0590  0.6322
18788TIP3   OH277778   5.084   5.510  14.667 -0.3513 -0.8239  0.2264
18788TIP3    H177779   5.078   5.423  14.627  1.0737  0.1383 -2.1517
18788TIP3    H277780   5.044   5.569  14.603  1.3665  0.6532  0.4813
18789TIP3   OH277781   2.910   3.852  15.715 -0.3656  0.0792  0.3590
18789TIP3    H177782   2.923   3.878  15.806 -0.5028 -0.4078  0.5180
18789TIP3    H277783   2.926   3.758  15.715  0.0187  0.1454 -0.1979
18790TIP3   OH277784   4.107   5.003   6.402  0.2286 -0.6421 -0.2729
18790TIP3    H177785   4.175   4.956   6.451  0.7513  1.3030  0.9380
18790TIP3    H277786   4.156   5.064   6.346 -0.4753  0.9252  0.7673
18791TIP3   OH277787   1.347   0.737  11.769 -0.2540 -0.3974 -0.2280
18791TIP3    H177788   1.393   0.787  11.836 -1.7456  0.3828  0.2520
18791TIP3    H277789   1.290   0.678  11.818 -1.0332 -0.1340 -0.7966
18792TIP3   OH277790   3.708   5.709   1.651  0.2395  0.2163  0.3102
18792TIP3    H177791   3.791   5.661   1.655 -0.2700 -0.7437 -0.6346
18792TIP3    H277792   3.734   5.801   1.662  1.4584 -0.0510 -0.1785
18793TIP3   OH277793   6.602   1.524   4.128  0.2292  0.2970 -0.0858
18793TIP3    H177794   6.573   1.603   4.082  0.4153  0.6039  0.3104
18793TIP3    H277795   6.641   1.469   4.061  1.0522  1.0013 -0.1948
18794TIP3   OH277796   0.431   5.522  14.332 -0.4516  0.0527 -0.3122
18794TIP3    H177797   0.418   5.608  14.373  0.5303 -0.6681  1.5689
18794TIP3    H277798   0.457   5.542  14.242 -0.8927  1.7075 -0.0918
18795TIP3   OH277799   3.552   0.956  14.370 -0.0933 -0.0328  0.1565
18795TIP3    H177800   3.602   0.976  14.291  1.1366 -1.4803  0.5646
18795TIP3    H277801   3.475   0.909  14.338  1.3240 -2.2664 -0.0374
18796TIP3   OH277802   0.101   4.494  16.636 -0.4242 -0.3143  0.7651
18796TIP3    H177803   0.010   4.473  16.659 -0.7628 -0.3345 -0.5344
18796TIP3    H277804   0.111   4.586  16.659 -0.6433 -0.4300  1.3226
18797TIP3   OH277805   5.304   0.772   2.282 -0.4499  0.0793 -0.0751
18797TIP3    H177806   5.359   0.753   2.358  0.1102 -1.3165 -0.8146
18797TIP3    H277807   5.277   0.686   2.249 -0.9954  0.6742 -1.2278
18798TIP3   OH277808   1.679   1.144   3.655 -0.1147 -0.5970  0.5495
18798TIP3    H177809   1.716   1.133   3.567  2.3649  0.5495  1.4179
18798TIP3    H277810   1.708   1.065   3.702  0.5086 -0.1211  0.9738
18799TIP3   OH277811   4.010   5.025  10.758  0.3314 -0.0459  0.3980
18799TIP3    H177812   4.003   4.932  10.739 -1.8599  0.0287  0.8101
18799TIP3    H277813   3.920   5.055  10.771  1.0848  1.8669  1.4979
18800TIP3   OH277814   1.253   4.687   0.908 -0.6312  0.2412  0.3702
18800TIP3    H177815   1.306   4.755   0.949 -0.5219 -0.5365  1.5364
18800TIP3    H277816   1.276   4.692   0.815  0.3174  0.9603  0.6335
18801TIP3   OH277817   4.205   4.785   5.779 -0.1413  0.6518 -0.1127
18801TIP3    H177818   4.121   4.823   5.803  1.4431  3.3276  1.3916
18801TIP3    H277819   4.232   4.832   5.700  0.4346  0.5095 -0.0031
18802TIP3   OH277820   0.051   4.958   0.389 -0.0282  0.3244 -0.3080
18802TIP3    H177821   0.092   4.982   0.306  1.0550  0.4185  0.2536
18802TIP3    H277822   0.083   5.023   0.452 -0.6783  0.1344  0.2279
18803TIP3   OH277823   6.247   2.642   1.953 -0.3507  0.1518  0.1426
18803TIP3    H177824   6.159   2.603   1.946 -0.1264 -0.2799 -0.2803
18803TIP3    H277825   6.256   2.696   1.875 -0.6079  0.9533  0.6609
18804TIP3   OH277826   2.980   5.406   0.931  0.4732 -0.8742 -0.3098
18804TIP3    H177827   2.948   5.324   0.968  0.4407 -0.9176 -0.4341
18804TIP3    H277828   2.940   5.475   0.985 -0.5609 -0.8935 -1.0366
18805TIP3   OH277829   5.032   1.441  14.558 -0.2460 -0.1803 -0.1197
18805TIP3    H177830   4.974   1.486  14.619 -1.1007  1.4349 -2.0760
18805TIP3    H277831   5.100   1.505  14.537  0.8019 -1.1809  0.1667
18806TIP3   OH277832   1.597   0.263  16.740 -0.4513  0.0387  0.8723
18806TIP3    H177833   1.688   0.246  16.763 -0.7389  0.8092  2.6374
18806TIP3    H277834   1.555   0.176  16.743 -0.6495  0.1843  4.1316
18807TIP3   OH277835   5.502   4.290   4.368  0.0857  0.7375  0.5406
18807TIP3    H177836   5.493   4.385   4.365  2.6660  1.0256  0.3519
18807TIP3    H277837   5.576   4.272   4.310 -1.3851 -1.5464 -0.6828
18808TIP3   OH277838   6.290   1.198   4.689 -0.0584 -0.1999  0.3636
18808TIP3    H177839   6.204   1.195   4.647  0.3439  3.0853 -0.7846
18808TIP3    H277840   6.350   1.170   4.620 -0.1345 -2.1175  1.0512
18809TIP3   OH277841   5.157   4.276   3.834  0.7108  0.2523 -0.1781
18809TIP3    H177842   5.096   4.331   3.883 -0.3733  0.5181 -1.7877
18809TIP3    H277843   5.244   4.301   3.867  0.3592  4.0015 -1.8287
18810TIP3   OH277844   3.954   0.364   2.966  0.2648 -0.5039  0.2964
18810TIP3    H177845   3.929   0.294   3.026  1.5241 -3.0671 -2.0317
18810TIP3    H277846   3.966   0.320   2.882 -1.3317  2.9429 -1.8346
18811TIP3   OH277847   0.816   5.184   2.680  0.3380 -0.2744  0.1225
18811TIP3    H177848   0.772   5.266   2.702  0.1586 -0.5322  0.7308
18811TIP3    H277849   0.793   5.168   2.588  0.4514  0.4004 -0.0266
18812TIP3   OH277850   1.849   2.637  16.608  0.0109  0.1284 -1.0072
18812TIP3    H177851   1.889   2.686  16.679 -0.1503 -1.1591 -0.0062
18812TIP3    H277852   1.756   2.634  16.630 -0.3576  1.4253 -2.3083
18813TIP3   OH277853   5.668   5.066   1.624  0.1504 -0.1504  0.0475
18813TIP3    H177854   5.696   5.015   1.548 -1.6452 -0.3926 -0.4823
18813TIP3    H277855   5.673   5.157   1.595 -1.0132 -0.2680 -0.5418
18814TIP3   OH277856   3.280   0.775   5.165  0.1451 -0.1621  0.7198
18814TIP3    H177857   3.250   0.866   5.166 -1.2914 -0.5864 -0.8140
18814TIP3    H277858   3.375   0.780   5.156  0.2488  1.1919  2.3559
18815TIP3   OH277859   2.808   1.716   1.789 -0.0324  0.0384 -0.2513
18815TIP3    H177860   2.876   1.658   1.755 -1.0120 -1.2174 -0.1157
18815TIP3    H277861   2.773   1.760   1.712  0.5697  0.2888 -0.3836
18816TIP3   OH277862   3.629   3.166  13.584 -0.5432 -0.3401 -0.2277
18816TIP3    H177863   3.679   3.184  13.504  0.4441 -1.9667 -0.0002
18816TIP3    H277864   3.673   3.217  13.652  0.4735 -1.3195 -0.1421
18817TIP3   OH277865   1.140   1.067   0.410  0.1583 -0.3064  0.1524
18817TIP3    H177866   1.120   0.975   0.394 -1.0961 -0.1614  0.8281
18817TIP3    H277867   1.215   1.066   0.470  1.3956 -0.8594 -1.3691
18818TIP3   OH277868   3.814   2.974   2.656  0.0390 -0.7843 -0.2451
18818TIP3    H177869   3.897   2.979   2.703  0.1251 -1.4410 -0.3200
18818TIP3    H277870   3.794   3.064   2.632  0.2738 -0.5081  0.5750
18819TIP3   OH277871   3.447   5.349  12.022 -0.1400 -0.4399 -0.1053
18819TIP3    H177872   3.400   5.266  12.013  1.4897 -1.4865  0.7967
18819TIP3    H277873   3.504   5.336  12.097  0.2393  1.4707 -0.0459
18820TIP3   OH277874   2.413   5.275  12.366 -0.6701  0.7422 -0.2105
18820TIP3    H177875   2.465   5.340  12.413  0.4400 -0.1576 -0.1850
18820TIP3    H277876   2.325   5.313  12.362 -0.3156  1.6864  0.8820
18821TIP3   OH277877   0.370   4.924   2.166 -0.2345 -0.0018  0.0681
18821TIP3    H177878   0.313   4.998   2.146  0.4549  0.3705 -0.4926
18821TIP3    H277879   0.400   4.893   2.081 -1.2308 -1.4932  0.2284
18822TIP3   OH277880   3.453   3.938  16.990 -0.2312  0.4515 -0.2340
18822TIP3    H177881   3.455   3.860  17.045 -1.3879  0.8653  0.4199
18822TIP3    H277882   3.397   3.914  16.916  0.8179  0.0985 -0.9148
18823TIP3   OH277883   6.675   4.589   3.334  0.0556  0.0990  0.6705
18823TIP3    H177884   6.635   4.651   3.396  0.9064  0.6564  0.6750
18823TIP3    H277885   6.605   4.526   3.314 -1.1267  1.5889 -0.0475
18824TIP3   OH277886   3.378   1.522  14.511 -0.3103  0.0097  0.2427
18824TIP3    H177887   3.425   1.520  14.428  0.3938  1.8453  0.5888
18824TIP3    H277888   3.298   1.571  14.493  0.1810  1.0287  0.8248
18825TIP3   OH277889   0.619   2.730  17.218 -0.6181 -0.2097  0.1806
18825TIP3    H177890   0.668   2.703  17.296 -1.1736  1.8118  1.2468
18825TIP3    H277891   0.530   2.745  17.249 -1.3221 -1.3298 -1.2443
18826TIP3   OH277892   3.618   5.628   5.567  0.3510  0.2143  0.3293
18826TIP3    H177893   3.608   5.535   5.549 -0.0926  0.2586  0.3393
18826TIP3    H277894   3.532   5.656   5.597  0.0853  0.9412 -1.0579
18827TIP3   OH277895   6.478   5.374   0.406 -0.0267  0.0289 -1.1493
18827TIP3    H177896   6.478   5.433   0.331  0.3677 -0.0216 -1.1891
18827TIP3    H277897   6.563   5.387   0.447 -1.6531  2.9144  1.5386
18828TIP3   OH277898   3.055   4.878  12.847 -0.0337 -0.1851 -0.3059
18828TIP3    H177899   3.019   4.967  12.854 -0.2448 -0.3406  0.5978
18828TIP3    H277900   2.992   4.823  12.895  1.0243 -0.5669  0.6543
18829TIP3   OH277901   6.536   3.879   3.359 -0.1146  0.2857 -0.2487
18829TIP3    H177902   6.606   3.921   3.310  1.3127  0.0101  1.4725
18829TIP3    H277903   6.457   3.924   3.332  1.0186  2.1567 -0.5376
18830TIP3   OH277904   5.171   2.211  12.005 -0.4773  0.6618 -0.0891
18830TIP3    H177905   5.134   2.123  12.006 -0.6930  0.7102 -1.8338
18830TIP3    H277906   5.186   2.232  12.097 -0.9974 -0.9509  0.3805
18831TIP3   OH277907   4.204   2.998  13.269 -0.5532 -0.4135  0.3172
18831TIP3    H177908   4.252   2.944  13.206  0.8740 -0.4198  1.3902
18831TIP3    H277909   4.134   3.038  13.218  0.5433 -0.4768 -1.2596
18832TIP3   OH277910   6.119   2.024   3.998  0.5167 -0.1739  0.0580
18832TIP3    H177911   6.097   1.991   3.911 -0.0923 -1.4083  0.6755
18832TIP3    H277912   6.192   2.085   3.983 -0.5336  0.7127 -1.4741
18833TIP3   OH277913   5.044   0.575   3.816  0.5601  0.0084  0.3125
18833TIP3    H177914   4.975   0.509   3.819  0.1572  0.4363  0.5090
18833TIP3    H277915   5.080   0.568   3.727  0.2724 -0.2237  0.2134
18834TIP3   OH277916   5.772   5.696  11.871  0.1752 -0.2582 -0.1241
18834TIP3    H177917   5.791   5.781  11.909 -2.7914  0.1291  0.6691
18834TIP3    H277918   5.708   5.714  11.802 -0.6940 -1.8501  0.2418
18835TIP3   OH277919   5.449   6.589  13.196 -0.7406 -0.2376  0.2540
18835TIP3    H177920   5.445   6.523  13.126 -3.1796 -1.8840  1.8401
18835TIP3    H277921   5.392   6.660  13.165  0.2485  0.2244 -0.5441
18836TIP3   OH277922   5.122   5.238  11.067 -0.0268 -0.5169 -0.7846
18836TIP3    H177923   5.188   5.245  11.136  1.1275 -0.1117 -1.9085
18836TIP3    H277924   5.067   5.316  11.078  0.9345  0.2181 -1.1015
18837TIP3   OH277925   0.456   4.578  15.843  0.2815 -0.1958  0.4670
18837TIP3    H177926   0.473   4.669  15.821  0.8173 -0.6248 -0.9311
18837TIP3    H277927   0.362   4.567  15.831  0.0987  0.3456  1.3411
18838TIP3   OH277928   5.800   5.682   3.998 -0.6556 -0.0081 -0.4504
18838TIP3    H177929   5.882   5.719   3.965  0.4079 -0.3496  1.7311
18838TIP3    H277930   5.734   5.747   3.977  0.5440  1.2903 -0.2714
18839TIP3   OH277931   4.455   0.845  12.895 -0.0463 -0.5032 -0.3077
18839TIP3    H177932   4.399   0.912  12.856  0.0951 -0.4653 -0.4424
18839TIP3    H277933   4.410   0.822  12.977 -0.1980 -0.3876 -0.3568
18840TIP3   OH277934   0.254   1.189   5.936 -0.1623 -0.8667  0.0110
18840TIP3    H177935   0.291   1.184   5.849  0.0767 -0.7768  0.1068
18840TIP3    H277936   0.248   1.098   5.966 -1.2932 -0.9787 -0.5391
18841TIP3   OH277937   3.509   0.785  16.863 -0.5481 -0.3829 -0.2076
18841TIP3    H177938   3.456   0.831  16.799  0.0862  1.2104  0.3787
18841TIP3    H277939   3.523   0.849  16.933 -0.8729 -1.9462  1.3222
18842TIP3   OH277940   0.220   6.701  11.923  0.2935 -0.2185  0.2822
18842TIP3    H177941   0.158   6.637  11.958 -1.6243  1.7486  0.6247
18842TIP3    H277942   0.168   6.753  11.862  1.0315  2.8439  2.1861
18843TIP3   OH277943   4.869   6.472  16.072 -0.7860  0.2528  0.5348
18843TIP3    H177944   4.951   6.432  16.042 -0.5633  0.3164  1.0415
18843TIP3    H277945   4.808   6.460  16.000 -0.1752  0.6653 -0.0499
18844TIP3   OH277946   3.058   2.314  14.304  0.4279 -0.3799  0.2655
18844TIP3    H177947   3.105   2.295  14.385 -1.2183  1.1335  1.6017
18844TIP3    H277948   3.062   2.409  14.296 -0.7566 -0.3975 -0.6244
18845TIP3   OH277949   4.694   2.942   2.355  0.9203 -0.0826  0.2406
18845TIP3    H177950   4.724   2.852   2.342  1.4264 -0.1651  1.8503
18845TIP3    H277951   4.773   2.989   2.383  0.4866  0.6796  0.1715
18846TIP3   OH277952   4.066   2.572   5.732 -0.0272  0.7278 -0.2002
18846TIP3    H177953   4.128   2.524   5.787 -1.3904 -1.2135 -0.3229
18846TIP3    H277954   3.984   2.572   5.781 -0.1683  2.6208 -0.3781
18847TIP3   OH277955   0.725   6.189   1.462 -0.0900 -0.0545 -0.0517
18847TIP3    H177956   0.725   6.241   1.543  0.8322 -2.4284  1.5221
18847TIP3    H277957   0.641   6.143   1.463  0.8005 -1.7071  0.6679
18848TIP3   OH277958   0.638   3.013  12.990 -0.4444  0.2331  0.5625
18848TIP3    H177959   0.626   2.938  12.932 -0.3031  0.1972  0.5795
18848TIP3    H277960   0.719   3.055  12.960  0.6304 -0.8396  1.8874
18849TIP3   OH277961   0.582   5.433  13.170 -0.1293  0.6856 -0.2616
18849TIP3    H177962   0.526   5.502  13.207 -1.0991 -0.0143 -0.3993
18849TIP3    H277963   0.540   5.351  13.198  0.4431  0.1538 -0.9591
18850TIP3   OH277964   2.306   3.858   1.770 -0.5624  0.8009  0.6505
18850TIP3    H177965   2.212   3.852   1.755 -0.6581 -0.1393  1.5819
18850TIP3    H277966   2.327   3.781   1.822  0.7309  0.9961  0.4374
18851TIP3   OH277967   2.770   3.708  14.119 -0.2501 -0.1093 -0.2904
18851TIP3    H177968   2.824   3.773  14.165 -0.0295 -0.6429  0.2070
18851TIP3    H277969   2.783   3.728  14.027  0.9099 -0.3073 -0.1802
18852TIP3   OH277970   2.564   6.014   4.202  0.4272 -0.3771 -0.1013
18852TIP3    H177971   2.592   5.999   4.112 -0.5306  0.3728 -0.5289
18852TIP3    H277972   2.476   6.052   4.194  0.9960  1.2463  1.0842
18853TIP3   OH277973   5.395   0.728  14.501  0.2551 -0.5659 -0.3058
18853TIP3    H177974   5.376   0.687  14.416  0.8372 -2.4570  0.4483
18853TIP3    H277975   5.398   0.655  14.563 -0.3853  0.8216  1.3903
18854TIP3   OH277976   5.456   3.369   7.311  0.1926 -0.2740  0.2711
18854TIP3    H177977   5.385   3.407   7.364  0.9237  1.2757  0.1836
18854TIP3    H277978   5.412   3.305   7.255 -0.8525 -0.6896  1.5292
18855TIP3   OH277979   3.945   0.591  13.935 -0.3420  0.0386  0.2267
18855TIP3    H177980   3.922   0.499  13.950  1.6433 -0.2578  1.7738
18855TIP3    H277981   3.864   0.639  13.951 -1.1836 -1.3586  0.2727
18856TIP3   OH277982   5.587   2.539   4.888  0.5853  0.0253  0.1061
18856TIP3    H177983   5.529   2.480   4.841  1.3578 -0.6025 -0.0688
18856TIP3    H277984   5.660   2.555   4.828  0.9207  0.2662  0.5705
18857TIP3   OH277985   3.050   2.483   5.065  0.1708  0.0126  0.2893
18857TIP3    H177986   3.077   2.533   5.142  1.0736 -0.5587  0.3517
18857TIP3    H277987   3.027   2.397   5.098  0.9164 -0.3519 -0.1156
18858TIP3   OH277988   1.327   1.929  10.807  0.0253 -0.0727 -0.4255
18858TIP3    H177989   1.362   1.969  10.886 -2.2390  0.3568  0.3983
18858TIP3    H277990   1.353   1.837  10.812  0.7516  0.1788  0.3110
18859TIP3   OH277991   4.766   6.668  15.146 -0.3345 -0.1608  0.7172
18859TIP3    H177992   4.805   6.636  15.065 -0.2766 -0.2463  0.7784
18859TIP3    H277993   4.673   6.647  15.138 -0.2370 -0.6667  0.9162
18860TIP3   OH277994   3.897   4.878   0.180 -0.8091  0.4673  0.4432
18860TIP3    H177995   3.862   4.942   0.242 -1.2794 -0.4935  1.1704
18860TIP3    H277996   3.966   4.833   0.227 -1.0509 -0.1494  0.2176
18861TIP3   OH277997   5.293   3.225  14.626  0.1750 -0.4239  0.3537
18861TIP3    H177998   5.215   3.234  14.572 -0.2807 -1.0334  0.8999
18861TIP3    H277999   5.313   3.132  14.626 -0.1705 -0.5187  1.6799
18862TIP3   OH278000   4.867   5.264  12.851  0.1798  0.4182  0.3561
18862TIP3    H178001   4.813   5.278  12.929  0.4561 -1.0658  0.8182
18862TIP3    H278002   4.840   5.179  12.818  3.5833 -1.2654  1.7067
18863TIP3   OH278003   5.192   4.251  13.392  0.7406  0.0645 -0.4925
18863TIP3    H178004   5.224   4.161  13.399  1.1312  0.1431 -1.1941
18863TIP3    H278005   5.219   4.292  13.474 -1.1209 -0.9648  0.6756
18864TIP3   OH278006   1.387   6.530   4.918  0.0051  0.1707 -0.1213
18864TIP3    H178007   1.307   6.578   4.941  0.5907  0.7436  0.7373
18864TIP3    H278008   1.357   6.442   4.896 -0.7634  0.1441  1.0165
18865TIP3   OH278009   4.688   4.890  14.694  0.2679  0.3737 -0.3173
18865TIP3    H178010   4.653   4.836  14.623  2.0137 -1.7889  0.4125
18865TIP3    H278011   4.742   4.956  14.650 -1.0488  0.9242 -1.1487
18866TIP3   OH278012   4.894   0.512  13.198 -0.0958  0.0253  0.1363
18866TIP3    H178013   4.937   0.502  13.114 -0.6673 -0.2103 -0.1357
18866TIP3    H278014   4.833   0.438  13.203 -0.3023  0.2198  0.6105
18867TIP3   OH278015   3.138   4.079   5.885  0.1642 -0.0112  0.6312
18867TIP3    H178016   3.112   3.993   5.919  0.6743 -0.2716  0.3651
18867TIP3    H278017   3.058   4.132   5.889 -0.4254 -0.8367 -0.2772
18868TIP3   OH278018   6.220   1.146   1.627  0.0260 -0.0898  0.1098
18868TIP3    H178019   6.228   1.054   1.654  0.0789  0.3106  1.4861
18868TIP3    H278020   6.147   1.180   1.679 -0.1920  0.5759 -0.6222
18869TIP3   OH278021   2.027   4.015  16.530  0.1763  0.1246 -0.1871
18869TIP3    H178022   1.978   4.003  16.449  0.1077 -0.9439  0.0072
18869TIP3    H278023   2.029   3.928  16.571  1.7760  0.2624  0.0634
18870TIP3   OH278024   1.665   3.444  12.994  0.1280  0.5817  0.7438
18870TIP3    H178025   1.751   3.439  12.953 -0.2947 -0.9460  0.0042
18870TIP3    H278026   1.605   3.409  12.928 -0.9907  1.1242  1.4540
18871TIP3   OH278027   0.074   1.991  14.937 -0.1515 -0.1494 -0.4323
18871TIP3    H178028   0.115   2.063  14.889 -0.8116  0.5038 -0.0360
18871TIP3    H278029  -0.017   2.018  14.947  0.2555  0.3532  2.3602
18872TIP3   OH278030   6.459   5.069   2.841  0.4216  0.1763  0.1118
18872TIP3    H178031   6.409   5.012   2.782  0.5199  0.3329 -0.1230
18872TIP3    H278032   6.476   5.148   2.790 -2.4483  1.7532  1.4835
18873TIP3   OH278033   5.383   3.009   2.156 -0.1517  0.7783 -0.1940
18873TIP3    H178034   5.462   3.061   2.138  1.1436 -1.0054  0.1872
18873TIP3    H278035   5.403   2.965   2.239 -0.9084 -0.9009 -0.8922
18874TIP3   OH278036   5.285   4.755  10.478  0.2457  0.4266  0.9131
18874TIP3    H178037   5.273   4.789  10.567 -1.3963 -1.3043  1.3789
18874TIP3    H278038   5.219   4.801  10.426  1.1916  1.4221  0.5717
18875TIP3   OH278039   3.751   0.191  16.375 -0.0521 -0.2452 -0.1132
18875TIP3    H178040   3.687   0.232  16.316 -0.1956  0.1890  0.3434
18875TIP3    H278041   3.720   0.102  16.386 -0.7434  0.0413  0.3241
18876TIP3   OH278042   5.973   4.027  11.372  0.4039  0.2997 -0.5778
18876TIP3    H178043   6.017   4.063  11.295 -0.6772 -1.5017 -2.0820
18876TIP3    H278044   5.888   3.998  11.340  0.0653 -0.7731  1.2273
18877TIP3   OH278045   0.581   3.858   4.798 -0.2068 -0.0951 -0.1146
18877TIP3    H178046   0.600   3.769   4.767  0.2443 -0.1967  0.4505
18877TIP3    H278047   0.625   3.916   4.736  0.2234 -0.2863  0.0093
18878TIP3   OH278048   0.202   6.477  12.649 -0.2872 -0.6075  0.8838
18878TIP3    H178049   0.264   6.547  12.627  0.6366 -0.5412  3.5034
18878TIP3    H278050   0.190   6.429  12.567  0.2377  1.7024 -0.5974
18879TIP3   OH278051   2.818   0.828  14.866 -0.2152  0.9966 -0.2326
18879TIP3    H178052   2.838   0.734  14.858 -1.2298  0.8546 -1.1301
18879TIP3    H278053   2.820   0.845  14.960 -1.7423 -0.3078  0.0534
18880TIP3   OH278054   3.333   5.403   1.183  0.8459 -0.3653  0.7514
18880TIP3    H178055   3.335   5.379   1.276 -1.3723 -0.8393  0.7098
18880TIP3    H278056   3.278   5.335   1.143 -1.7293  2.1921 -0.1722
18881TIP3   OH278057   5.289   5.261  11.265 -0.6938  0.0147  0.9974
18881TIP3    H178058   5.330   5.326  11.322 -0.9273  0.8386  0.2392
18881TIP3    H278059   5.361   5.209  11.230 -0.6035 -1.0324  2.6659
18882TIP3   OH278060   6.012   3.185  12.144  0.7314 -0.2682 -0.0400
18882TIP3    H178061   6.080   3.184  12.212 -0.4748  0.1664  1.2031
18882TIP3    H278062   5.938   3.229  12.186  0.0182  0.1411 -1.7080
18883TIP3   OH278063   0.800   3.491  12.084  0.2739 -0.8525  0.1383
18883TIP3    H178064   0.847   3.502  12.001 -0.1435  1.2528  0.1344
18883TIP3    H278065   0.863   3.452  12.144  1.7286  0.9920 -0.1488
18884TIP3   OH278066   6.308   3.766  12.074 -0.3404 -0.3375 -0.9859
18884TIP3    H178067   6.359   3.771  12.155 -0.7079  0.3584 -0.7947
18884TIP3    H278068   6.325   3.678  12.040 -0.0616 -0.5710 -0.2378
18885TIP3   OH278069   0.486   3.309   0.103 -0.5842 -0.4280 -0.0219
18885TIP3    H178070   0.436   3.278   0.028  1.4474  2.1907 -2.5759
18885TIP3    H278071   0.576   3.280   0.085 -0.0431  0.3865  1.3005
18886TIP3   OH278072   5.661   3.569   4.654  0.1789 -0.1535 -0.2485
18886TIP3    H178073   5.630   3.573   4.744  2.1635  0.8597  0.4387
18886TIP3    H278074   5.596   3.617   4.603 -0.0644  0.7570  0.9120
18887TIP3   OH278075   5.823   1.908  15.225 -0.3269  0.0083  0.4776
18887TIP3    H178076   5.738   1.951  15.230 -0.6712 -0.5771 -0.2217
18887TIP3    H278077   5.878   1.967  15.174 -0.1589  0.6180  1.3447
18888TIP3   OH278078   4.381   5.406   3.779  0.0503 -0.5140 -0.3031
18888TIP3    H178079   4.462   5.364   3.750 -0.6391 -1.2513 -1.2158
18888TIP3    H278080   4.338   5.432   3.697 -1.2938 -1.3990  0.1097
18889TIP3   OH278081   2.784   5.561  12.697  0.9175 -0.1804  0.0084
18889TIP3    H178082   2.718   5.609  12.747 -0.7646 -0.8759 -1.4637
18889TIP3    H278083   2.824   5.626  12.640  0.3120 -0.0566 -0.2825
18890TIP3   OH278084   2.958   6.266  16.607 -0.1317  0.1538 -0.4049
18890TIP3    H178085   2.995   6.349  16.638  4.0742 -1.0637 -1.7820
18890TIP3    H278086   2.954   6.276  16.512 -2.0117 -0.3343 -0.3935
18891TIP3   OH278087   2.422   2.209  14.251  0.0874 -0.4245 -0.0368
18891TIP3    H178088   2.458   2.297  14.263 -1.6385  0.0527  2.0701
18891TIP3    H278089   2.482   2.151  14.297  0.1041 -0.0725  0.3867
18892TIP3   OH278090   4.525   2.444  14.368  0.0176 -0.3172 -0.3883
18892TIP3    H178091   4.498   2.477  14.282 -0.8573  2.8299  1.0243
18892TIP3    H278092   4.539   2.523  14.421  1.3621 -2.1727  2.1179
18893TIP3   OH278093   5.141   2.511  14.004 -0.3771  0.2400  0.1603
18893TIP3    H178094   5.065   2.528  14.061 -2.0032  0.3515 -1.9978
18893TIP3    H278095   5.166   2.597  13.971 -0.2406  0.0117 -0.3288
18894TIP3   OH278096   3.991   1.461  11.370  0.4196  0.4351 -0.2374
18894TIP3    H178097   3.972   1.555  11.365 -1.5927  0.1771  1.7837
18894TIP3    H278098   4.084   1.456  11.392  0.3852  1.9753  0.2804
18895TIP3   OH278099   2.903   6.060   1.717 -0.5977  0.3435 -0.6169
18895TIP3    H178100   2.831   6.004   1.690 -1.1817  0.8838 -0.1769
18895TIP3    H278101   2.891   6.141   1.668 -1.1658  1.0047  0.5983
18896TIP3   OH278102   6.720   3.772  13.252 -0.2708  0.0073  0.0494
18896TIP3    H178103   6.663   3.795  13.325 -0.1070 -0.2228  0.2514
18896TIP3    H278104   6.664   3.778  13.174 -0.2396  1.0189  0.1086
18897TIP3   OH278105   3.332   4.322   0.941 -0.3088  0.2151 -0.5031
18897TIP3    H178106   3.248   4.291   0.906  0.5842 -0.3797 -2.1871
18897TIP3    H278107   3.326   4.307   1.035 -2.8126  1.8991 -0.3461
18898TIP3   OH278108   6.490   4.927  11.068 -0.0137 -0.0027  0.3767
18898TIP3    H178109   6.468   4.834  11.063 -2.8719  0.6952 -1.3112
18898TIP3    H278110   6.450   4.965  10.989  0.3110  2.8025  1.5046
18899TIP3   OH278111   4.197   4.678   2.687 -0.1328 -0.1731 -0.6243
18899TIP3    H178112   4.204   4.721   2.773 -2.2556 -1.6713  0.3267
18899TIP3    H278113   4.255   4.729   2.631  2.0244  0.2967  1.9042
18900TIP3   OH278114   5.143   1.628  12.536 -0.1151  0.1308 -0.2345
18900TIP3    H178115   5.139   1.551  12.479 -1.1847  0.5399 -0.7376
18900TIP3    H278116   5.118   1.701  12.478 -0.0172  0.7199  0.4632
18901TIP3   OH278117   4.703   1.052  12.250 -0.0301 -0.4677 -0.3629
18901TIP3    H178118   4.641   0.982  12.269 -0.9617  1.0060  2.2733
18901TIP3    H278119   4.670   1.128  12.299  2.2100  1.1904 -1.3059
18902TIP3   OH278120   4.208   2.856  14.828 -0.2479  0.3772  0.4772
18902TIP3    H178121   4.242   2.785  14.773 -1.2092  0.1654  0.1530
18902TIP3    H278122   4.203   2.931  14.769 -1.3715  0.1260  0.2377
18903TIP3   OH278123   6.283   5.135  16.614  0.0401  0.3423 -0.0344
18903TIP3    H178124   6.251   5.149  16.703 -0.2110  1.0941 -0.2295
18903TIP3    H278125   6.329   5.052  16.617 -0.2784  0.1894  0.7144
18904TIP3   OH278126   4.321   4.810   1.686 -0.1124  0.7356 -0.3395
18904TIP3    H178127   4.240   4.826   1.637 -1.2923  1.0519  1.6150
18904TIP3    H278128   4.334   4.891   1.736  0.2235 -0.0999  0.9527
18905TIP3   OH278129   0.553   4.469   0.314  0.2202 -0.0042  0.3719
18905TIP3    H178130   0.628   4.479   0.372  0.7354  1.0627 -0.4639
18905TIP3    H278131   0.574   4.523   0.238 -0.4146 -1.4269 -0.8431
18906TIP3   OH278132   0.770   6.517  13.963 -0.3072  0.6647  0.2124
18906TIP3    H178133   0.847   6.484  14.009 -0.6114 -0.7167 -0.2526
18906TIP3    H278134   0.798   6.601  13.927  0.1445  1.4745  2.3465
18907TIP3   OH278135   3.405   4.037  12.157  0.1715  0.0952 -0.0290
18907TIP3    H178136   3.423   3.968  12.220  0.2631 -0.3039 -0.4906
18907TIP3    H278137   3.480   4.036  12.097  2.0571  3.0739  2.1066
18908TIP3   OH278138   0.354   1.127   0.228 -0.5599  0.5203 -0.0686
18908TIP3    H178139   0.372   1.216   0.257 -1.0086  1.0788 -1.4731
18908TIP3    H278140   0.271   1.104   0.271 -1.7771  1.7333 -1.6888
18909TIP3   OH278141   5.521   0.649   1.071  0.4546  0.7779  0.2308
18909TIP3    H178142   5.524   0.723   1.010 -0.4326 -0.9230 -1.9544
18909TIP3    H278143   5.587   0.588   1.038  0.4761  0.1552  1.4096
18910TIP3   OH278144   4.565   1.632   5.272  0.5263  0.1090 -0.0970
18910TIP3    H178145   4.658   1.626   5.297  0.1656  0.5031  1.3737
18910TIP3    H278146   4.535   1.713   5.312 -0.7634 -0.6448  0.4974
18911TIP3   OH278147   1.521   0.629  10.462  0.4614 -0.4210  0.2714
18911TIP3    H178148   1.539   0.676  10.544 -0.5954  0.4177  0.0411
18911TIP3    H278149   1.453   0.681  10.419  0.8047 -1.0114 -1.0162
18912TIP3   OH278150   3.630   5.720  16.446  0.4171  0.4101 -0.1168
18912TIP3    H178151   3.597   5.810  16.439  0.0307  0.3353  0.7397
18912TIP3    H278152   3.553   5.665  16.435  0.8466  0.1353 -1.9616
18913TIP3   OH278153   3.325   2.096  14.862  0.1547 -0.0491  0.4933
18913TIP3    H178154   3.234   2.087  14.832 -0.1055  0.1250  1.2091
18913TIP3    H278155   3.354   2.006  14.876  0.2379 -0.1259 -0.1520
18914TIP3   OH278156   2.324   0.766  12.626  0.7725  0.3113 -0.0878
18914TIP3    H178157   2.314   0.835  12.691 -0.8654  0.9194 -0.9583
18914TIP3    H278158   2.250   0.707  12.641  1.3102 -0.4392 -0.3317
18915TIP3   OH278159   2.534   3.430  13.795 -0.0366 -0.3153 -0.7239
18915TIP3    H178160   2.490   3.423  13.880 -1.3785 -1.2563 -1.4746
18915TIP3    H278161   2.592   3.354  13.792 -1.8231 -1.6593 -1.6695
18916TIP3   OH278162   0.672   0.398  13.249 -0.4368 -0.0432 -0.4875
18916TIP3    H178163   0.640   0.338  13.316 -2.3546  1.0400 -0.4130
18916TIP3    H278164   0.594   0.441  13.215  0.7227  0.9913 -1.9179
18917TIP3   OH278165   5.975   0.539   5.869  0.2712 -0.0093 -0.0313
18917TIP3    H178166   6.031   0.465   5.848 -1.5869 -1.1506 -1.0271
18917TIP3    H278167   5.941   0.519   5.957  0.5044  0.1180  0.0882
18918TIP3   OH278168   4.078   2.080   0.760  0.3631 -0.0987  0.0234
18918TIP3    H178169   4.153   2.054   0.707  0.2515 -0.3690 -0.0053
18918TIP3    H278170   4.101   2.167   0.793  0.0544  0.4376 -1.1715
18919TIP3   OH278171   0.240   2.458  12.366 -0.5305  0.0854  0.3836
18919TIP3    H178172   0.176   2.397  12.330 -2.1602  0.9633  1.6953
18919TIP3    H278173   0.243   2.438  12.460  0.5861  0.5417  0.4594
18920TIP3   OH278174   0.583   2.267   5.868 -0.3742  0.3266 -0.4681
18920TIP3    H178175   0.602   2.292   5.958  1.2289 -2.4575  0.0512
18920TIP3    H278176   0.616   2.339   5.815  1.6037  0.5519  1.0245
18921TIP3   OH278177   5.784   0.911   1.951  0.3505  0.4989  0.0735
18921TIP3    H178178   5.796   0.852   1.877 -1.6660 -1.0453  0.9379
18921TIP3    H278179   5.689   0.919   1.960  0.5068 -0.7861  3.6030
18922TIP3   OH278180   1.910   5.642   4.585  0.2120 -0.0753 -0.2260
18922TIP3    H178181   1.976   5.575   4.571 -0.0486 -0.2671 -0.5177
18922TIP3    H278182   1.880   5.628   4.675 -2.2568 -2.4910 -1.3561
18923TIP3   OH278183   4.792   1.048  13.912 -0.3223  0.3372 -0.4076
18923TIP3    H178184   4.880   1.055  13.876 -1.1615  0.3699 -2.5106
18923TIP3    H278185   4.788   1.115  13.980  1.3610  0.1328 -0.0917
18924TIP3   OH278186   6.655   2.778   6.455 -0.0983 -0.3268  0.1197
18924TIP3    H178187   6.651   2.849   6.519 -1.7029  0.4913 -0.8694
18924TIP3    H278188   6.571   2.780   6.410  0.7531 -1.3055 -1.5879
18925TIP3   OH278189   3.890   2.831   3.132  0.4566 -0.1723 -0.0431
18925TIP3    H178190   3.798   2.807   3.148 -0.6493  1.8247 -2.9362
18925TIP3    H278191   3.898   2.828   3.037  2.8639  1.6078  0.0830
18926TIP3   OH278192   0.362   4.069   1.300  0.2864  0.4987 -0.2083
18926TIP3    H178193   0.379   3.976   1.283  0.0546  0.5396 -0.6636
18926TIP3    H278194   0.364   4.110   1.214  0.0366  0.8603 -0.0428
18927TIP3   OH278195   2.906   0.539  15.730 -0.0692  0.2042 -0.6079
18927TIP3    H178196   2.910   0.585  15.814 -0.2744 -0.8019 -0.0356
18927TIP3    H278197   2.995   0.505  15.717 -0.4546 -1.1200  0.0682
18928TIP3   OH278198   1.363   4.459   2.736  0.2257  0.3655  0.1979
18928TIP3    H178199   1.393   4.524   2.673 -0.2005  0.4222  0.0535
18928TIP3    H278200   1.435   4.451   2.798 -0.1489  1.8322  0.8723
18929TIP3   OH278201   5.594   3.647   3.864 -0.3744  0.0881 -0.4892
18929TIP3    H178202   5.588   3.632   3.959 -2.6320  0.8738 -0.4914
18929TIP3    H278203   5.617   3.740   3.856  0.3939 -0.1168 -0.7193
18930TIP3   OH278204   6.690   6.536  14.898  0.0219  0.3429  0.1600
18930TIP3    H178205   6.629   6.574  14.962  0.3593  1.4808 -0.1797
18930TIP3    H278206   6.777   6.551  14.935  0.1689  0.1245 -0.0955
18931TIP3   OH278207   4.478   5.312   4.931  0.9377 -0.2676 -0.8569
18931TIP3    H178208   4.477   5.227   4.887 -2.5190 -0.8198  0.1394
18931TIP3    H278209   4.479   5.291   5.024  0.9822  0.7984 -0.6121
18932TIP3   OH278210   6.436   0.272   1.572  0.0238  0.2944  0.0723
18932TIP3    H178211   6.452   0.206   1.639  0.5123  0.9189  0.5729
18932TIP3    H278212   6.520   0.317   1.561 -0.1734  0.5051 -0.6173
18933TIP3   OH278213   5.740   5.604  12.812 -0.0126  0.0968 -0.2545
18933TIP3    H178214   5.730   5.657  12.891 -5.3573 -0.3986 -0.3847
18933TIP3    H278215   5.766   5.518  12.844  1.0066  0.7436  0.6770
18934TIP3   OH278216   4.145   6.328  12.249  0.0150  0.2326  0.2034
18934TIP3    H178217   4.170   6.253  12.195  0.6158  0.0338  0.7550
18934TIP3    H278218   4.204   6.325  12.324 -0.8754  0.4503  0.9292
18935TIP3   OH278219   6.182   6.396   1.286  0.4554  0.1996  0.0150
18935TIP3    H178220   6.089   6.388   1.305  0.6192 -1.3040  0.2660
18935TIP3    H278221   6.185   6.431   1.197 -0.3782 -1.3610 -0.6501
18936TIP3   OH278222   5.100   2.123   1.778 -0.1547  0.0930  0.3955
18936TIP3    H178223   5.129   2.210   1.806 -0.3067  0.4109 -0.4193
18936TIP3    H278224   5.054   2.138   1.695 -1.4288 -0.5902  0.9661
18937TIP3   OH278225   6.285   1.817   2.889  0.7708 -0.1173  0.1596
18937TIP3    H178226   6.204   1.768   2.902  0.8651 -0.2447  0.2653
18937TIP3    H278227   6.281   1.888   2.955  1.9795 -1.6889  1.9820
18938TIP3   OH278228   2.991   3.562  15.768 -0.3163 -0.0883  0.2078
18938TIP3    H178229   3.015   3.493  15.706  0.2185  1.4086 -1.2667
18938TIP3    H278230   3.000   3.520  15.854  0.2686 -1.7740 -0.6420
18939TIP3   OH278231   4.443   6.166  11.282 -0.1930 -0.1559 -0.4605
18939TIP3    H178232   4.366   6.220  11.300  0.5693  1.0111 -0.6273
18939TIP3    H278233   4.412   6.076  11.289 -0.7075  0.2305  3.4178
18940TIP3   OH278234   5.003   0.780  14.562 -0.1948 -0.4175  0.3958
18940TIP3    H178235   4.957   0.789  14.478 -0.4779 -0.0780  0.5850
18940TIP3    H278236   4.943   0.727  14.616  0.0834 -0.8189  0.3127
18941TIP3   OH278237   0.869   6.481   2.833  0.0164  0.2033  0.5847
18941TIP3    H178238   0.836   6.567   2.859  1.1991  1.3429 -1.5355
18941TIP3    H278239   0.861   6.481   2.738  0.5876 -1.8229  0.5322
18942TIP3   OH278240   2.375   4.352   5.386  0.4983 -0.0126  0.4798
18942TIP3    H178241   2.394   4.326   5.296  2.6645 -1.6559  1.3552
18942TIP3    H278242   2.279   4.358   5.389  0.3571 -0.4703 -1.7785
18943TIP3   OH278243   5.340   4.719  16.003 -0.3305  0.1707 -0.3481
18943TIP3    H178244   5.400   4.672  16.060 -0.3584 -0.0820 -0.5252
18943TIP3    H278245   5.257   4.721  16.052 -0.5054 -0.5294 -0.6192
18944TIP3   OH278246   5.432   2.748  14.943 -0.6979  0.4424  0.2248
18944TIP3    H178247   5.501   2.708  14.996 -2.4885 -1.1810  1.4346
18944TIP3    H278248   5.365   2.772  15.007 -3.3718 -2.4825 -1.2920
18945TIP3   OH278249   2.285   4.239   1.406 -0.1374  0.0258 -0.0628
18945TIP3    H178250   2.229   4.161   1.410  0.5750 -0.4017  1.7023
18945TIP3    H278251   2.230   4.304   1.362 -0.2275 -1.8774 -2.9155
18946TIP3   OH278252   6.143   3.473   4.635  0.1079  0.6074  0.6654
18946TIP3    H178253   6.095   3.552   4.614  0.2205  0.1306 -1.5340
18946TIP3    H278254   6.233   3.492   4.609  0.2609  0.0030  0.7404
18947TIP3   OH278255   2.603   3.708  15.258 -0.3723 -0.6605 -0.8135
18947TIP3    H178256   2.648   3.763  15.194 -1.3792 -0.0587 -1.0169
18947TIP3    H278257   2.610   3.619  15.224 -1.1750 -0.3029 -1.9059
18948TIP3   OH278258   1.565   2.595   2.392 -0.7819  0.4874 -0.3305
18948TIP3    H178259   1.536   2.621   2.305 -1.8072  0.4337 -0.0119
18948TIP3    H278260   1.504   2.639   2.452 -0.9068 -0.5308  0.3094
18949TIP3   OH278261   2.846   6.171  14.379  0.1345  0.3283 -0.5916
18949TIP3    H178262   2.861   6.079  14.358 -0.1811  0.2043 -0.2775
18949TIP3    H278263   2.765   6.194  14.333  0.0910  0.3851 -0.4873
18950TIP3   OH278264   0.258   3.319  10.869 -0.1561  0.3400  0.1331
18950TIP3    H178265   0.211   3.402  10.880 -0.8745  0.0396 -0.5782
18950TIP3    H278266   0.332   3.325  10.929 -0.7224  1.1157  0.7723
18951TIP3   OH278267   6.623   6.351  15.461  0.0781 -0.0078  0.1047
18951TIP3    H178268   6.537   6.367  15.423 -0.3561 -1.6844  0.3676
18951TIP3    H278269   6.631   6.256  15.465  3.2602  0.0355 -2.8579
18952TIP3   OH278270   2.500   4.791   3.477  0.0595  0.4484  0.2284
18952TIP3    H178271   2.522   4.823   3.389 -0.0950 -1.3505 -0.4928
18952TIP3    H278272   2.454   4.864   3.518  1.4397  1.8553 -0.6402
18953TIP3   OH278273   3.726   0.909  17.107  0.5941 -0.0217 -0.1358
18953TIP3    H178274   3.790   0.851  17.066 -3.9177 -2.5696 -4.1289
18953TIP3    H278275   3.740   0.994  17.064  0.4825 -0.8725 -1.8775
18954TIP3   OH278276   3.282   2.060  14.555  0.3765 -0.0936  0.0817
18954TIP3    H178277   3.342   2.099  14.492  0.6462 -1.3083 -0.4161
18954TIP3    H278278   3.198   2.102  14.536  0.0277 -1.7820 -2.3403
18955TIP3   OH278279   1.383   2.596  15.555  0.4698  0.2180  0.6166
18955TIP3    H178280   1.368   2.596  15.650  2.0466  0.1640  0.8785
18955TIP3    H278281   1.298   2.576  15.517  0.0957 -1.0275  2.0727
18956TIP3   OH278282   1.917   0.972  15.586  0.2936  0.0592  0.5104
18956TIP3    H178283   1.822   0.961  15.596  0.3961 -0.1194  1.2737
18956TIP3    H278284   1.929   1.065  15.569  0.0383  0.2052  1.1144
18957TIP3   OH278285   6.407   1.756   4.498 -0.1356  0.2347  0.2308
18957TIP3    H178286   6.436   1.693   4.564 -0.5509  0.3571  0.5334
18957TIP3    H278287   6.486   1.776   4.448 -0.0038 -0.5557  0.1042
18958TIP3   OH278288   1.479   0.080  14.821 -0.3976  0.3792 -0.3076
18958TIP3    H178289   1.455   0.013  14.886  2.0790  0.3623  0.6218
18958TIP3    H278290   1.485   0.032  14.739 -0.7975 -0.1252 -0.0486
18959TIP3   OH278291   4.446   1.640  12.805 -0.2631 -0.0047 -0.3247
18959TIP3    H178292   4.427   1.546  12.800  1.8484 -0.4648 -0.2267
18959TIP3    H278293   4.370   1.677  12.850 -1.4068 -1.5595 -0.9021
18960TIP3   OH278294   6.502   5.643  15.309 -0.3354  0.1658 -0.8517
18960TIP3    H178295   6.520   5.555  15.340 -0.5587 -0.9609 -3.7919
18960TIP3    H278296   6.581   5.668  15.260 -0.1889  1.6778  0.1345
18961TIP3   OH278297   4.488   3.795  11.883  0.3071  0.0851 -0.2387
18961TIP3    H178298   4.400   3.765  11.861  0.0494  0.4103  0.3263
18961TIP3    H278299   4.538   3.783  11.803 -0.4995  0.8428 -0.8658
18962TIP3   OH278300   3.927   3.129  15.501 -0.1088  0.1549 -0.2044
18962TIP3    H178301   3.925   3.039  15.533 -0.2709 -0.0361 -0.7346
18962TIP3    H278302   3.888   3.123  15.413  0.3094  0.6612 -0.4235
18963TIP3   OH278303   2.747   2.276  16.883  0.1076  0.1045 -0.0821
18963TIP3    H178304   2.771   2.285  16.791  0.0199 -0.8919 -0.2084
18963TIP3    H278305   2.674   2.215  16.882 -0.9359  1.3183  0.5082
18964TIP3   OH278306   4.271   3.865   5.824  0.1181  0.5095 -0.4794
18964TIP3    H178307   4.332   3.935   5.847  0.0219  0.1702  0.8417
18964TIP3    H278308   4.278   3.858   5.729  0.4487  2.0172 -0.5888
18965TIP3   OH278309   6.335   4.833  12.797 -0.2597 -0.4076 -0.9870
18965TIP3    H178310   6.414   4.830  12.743 -0.0509 -0.1525 -0.6902
18965TIP3    H278311   6.302   4.743  12.794  0.1246 -0.5521 -0.9833
18966TIP3   OH278312   0.260   0.314   2.974  0.1442  0.0072 -0.0463
18966TIP3    H178313   0.317   0.364   3.032  0.7806 -0.1025 -0.5719
18966TIP3    H278314   0.202   0.379   2.934 -1.0333 -0.0383  1.5144
18967TIP3   OH278315   5.325   1.212   0.685 -0.3764 -0.5201 -0.0475
18967TIP3    H178316   5.313   1.217   0.780 -1.1745  0.2743 -0.1837
18967TIP3    H278317   5.237   1.220   0.649 -0.0429 -0.4672 -0.8664
18968TIP3   OH278318   5.898   3.195   1.844 -0.1712  0.4019 -0.0430
18968TIP3    H178319   5.984   3.201   1.802 -2.1914  2.4073 -4.1767
18968TIP3    H278320   5.877   3.285   1.869 -0.5652 -0.2663  2.1682
18969TIP3   OH278321   6.659   1.439  14.699 -0.1607  0.7422  0.0636
18969TIP3    H178322   6.704   1.355  14.710 -0.6753  0.7935  2.9389
18969TIP3    H278323   6.686   1.490  14.775 -0.6554  2.8444 -1.1359
18970TIP3   OH278324   4.638   3.025  13.762 -0.2612 -0.6995 -0.4409
18970TIP3    H178325   4.569   3.004  13.699 -2.1838  1.3009  0.9296
18970TIP3    H278326   4.634   3.120  13.771  0.1335 -0.9036  2.4691
18971TIP3   OH278327   1.717   5.688  12.370  0.2665 -0.0802  0.8766
18971TIP3    H178328   1.797   5.741  12.366  0.1988 -0.0304  0.0332
18971TIP3    H278329   1.686   5.700  12.459  0.0794  1.5806  0.6164
18972TIP3   OH278330   1.448   4.705  11.876 -0.3377  0.1031  0.1197
18972TIP3    H178331   1.481   4.621  11.845  1.0777  0.3230  0.9744
18972TIP3    H278332   1.443   4.759  11.797 -1.0768 -0.7074 -0.4078
18973TIP3   OH278333   2.367   1.913   4.643  0.4255 -0.2942  0.0475
18973TIP3    H178334   2.434   1.916   4.575  0.7177 -0.7694  0.3117
18973TIP3    H278335   2.374   1.825   4.680 -0.3310 -0.3401  0.0910
18974TIP3   OH278336   5.116   0.226   5.815  0.2730  0.1936 -0.4151
18974TIP3    H178337   5.190   0.285   5.833 -0.3020  0.1566  2.3001
18974TIP3    H278338   5.111   0.170   5.893 -1.2312 -1.3084 -1.5563
18975TIP3   OH278339   5.179   6.456  15.967 -0.4599 -0.5474 -0.2411
18975TIP3    H178340   5.227   6.398  15.908 -0.3976 -1.2876  0.5395
18975TIP3    H278341   5.236   6.532  15.978  0.8741 -1.7270  1.2407
18976TIP3   OH278342   1.566   3.510  12.376  0.4619  0.5393  0.2355
18976TIP3    H178343   1.500   3.445  12.405  2.0940 -2.1453 -1.8420
18976TIP3    H278344   1.630   3.511  12.447  0.7975 -0.7260 -0.0230
18977TIP3   OH278345   1.236   5.133  11.169  0.3282  0.2401 -0.5287
18977TIP3    H178346   1.148   5.170  11.177 -0.4606 -1.4335 -1.2452
18977TIP3    H278347   1.255   5.133  11.076  1.0530  0.5051 -0.3884
18978TIP3   OH278348   2.158   1.144  15.808  0.5867 -0.4288 -0.4955
18978TIP3    H178349   2.062   1.141  15.806  0.6337 -1.3532 -1.6423
18978TIP3    H278350   2.178   1.198  15.885 -0.8651  0.9618 -1.0668
18979TIP3   OH278351   2.172   2.814  14.289 -0.4208  0.2294  0.5431
18979TIP3    H178352   2.203   2.723  14.289 -0.4774  0.1925  2.0796
18979TIP3    H278353   2.233   2.860  14.346 -1.4004  0.7912  1.1486
18980TIP3   OH278354   4.820   4.036   4.770  0.3156 -0.2649 -0.5910
18980TIP3    H178355   4.861   4.110   4.724 -0.4185  0.0725 -0.7067
18980TIP3    H278356   4.754   4.003   4.709 -2.1375  1.5110  0.9890
18981TIP3   OH278357   1.662   0.564  11.004 -0.0486  0.6507  0.4138
18981TIP3    H178358   1.576   0.600  11.027 -1.0441 -1.9637  0.9455
18981TIP3    H278359   1.653   0.541  10.911 -0.4551 -1.0688  0.8728
18982TIP3   OH278360   6.689   6.729   3.339 -0.0367 -0.4744 -0.2744
18982TIP3    H178361   6.686   6.702   3.247  1.4784 -1.0041 -0.1875
18982TIP3    H278362   6.714   6.650   3.386  2.8028  0.6308  0.1808
18983TIP3   OH278363   4.114   2.440   3.634 -0.0350  0.4687  0.2001
18983TIP3    H178364   4.099   2.413   3.544  0.1265  0.4113  0.1911
18983TIP3    H278365   4.201   2.480   3.634 -0.4554  1.4036  0.1171
18984TIP3   OH278366   4.468   5.351   1.615  0.8111  0.0569  0.0904
18984TIP3    H178367   4.504   5.308   1.692 -2.4052 -0.7968  1.1893
18984TIP3    H278368   4.403   5.412   1.650 -1.9364 -1.5722 -1.9468
18985TIP3   OH278369   6.654   3.512   4.862  0.3347  0.2846  0.0107
18985TIP3    H178370   6.708   3.434   4.850 -3.3137 -1.8756 -3.7753
18985TIP3    H278371   6.709   3.584   4.831  1.8546 -1.5440 -1.7340
18986TIP3   OH278372   1.900   0.817   4.769  0.1381  0.1696 -0.6627
18986TIP3    H178373   1.942   0.732   4.778  1.5631  0.8666 -0.7274
18986TIP3    H278374   1.836   0.819   4.840  0.1129 -0.9394 -0.6453
18987TIP3   OH278375   0.190   0.087  16.596  0.0943 -0.1284 -0.1185
18987TIP3    H178376   0.168   0.179  16.609  0.4208  0.1103 -1.1649
18987TIP3    H278377   0.107   0.041  16.605 -0.0070  0.2311  0.7825
18988TIP3   OH278378   4.514   2.246  15.664  0.1353 -0.0918 -0.5329
18988TIP3    H178379   4.551   2.159  15.649 -0.7380 -0.2887 -1.6279
18988TIP3    H278380   4.542   2.298  15.588  0.0702  0.3929 -0.2321
18989TIP3   OH278381   5.296   6.126   1.112  0.0018 -0.1669 -0.2225
18989TIP3    H178382   5.203   6.132   1.091 -0.3080 -0.4426  1.0415
18989TIP3    H278383   5.322   6.038   1.085  0.0621  0.1499 -1.2078
18990TIP3   OH278384   1.237   4.409   2.245 -0.1693  0.0705 -0.0327
18990TIP3    H178385   1.269   4.483   2.297  0.7195  0.5636 -1.2769
18990TIP3    H278386   1.236   4.336   2.307 -0.1037  0.8813  0.9511
18991TIP3   OH278387   0.093   1.579   0.640  0.1140 -0.1614  0.2436
18991TIP3    H178388   0.142   1.496   0.647  0.7903  0.3475  1.9583
18991TIP3    H278389   0.128   1.622   0.563 -1.3830 -2.1895 -1.6274
18992TIP3   OH278390   6.706   6.462   1.678  0.4393  0.3028 -0.0699
18992TIP3    H178391   6.712   6.505   1.592 -1.2281 -0.3253 -0.5353
18992TIP3    H278392   6.649   6.520   1.729  0.8447  0.3092  0.3770
18993TIP3   OH278393   1.209   2.073  14.690 -0.1629  0.0436 -0.2401
18993TIP3    H178394   1.240   2.144  14.746 -2.6692 -0.6264  2.0894
18993TIP3    H278395   1.115   2.071  14.703 -0.4469 -2.0333 -2.2686
18994TIP3   OH278396   3.309   4.890  15.294  0.0071 -0.1319 -0.2945
18994TIP3    H178397   3.326   4.967  15.240  2.7762  0.0848  0.8091
18994TIP3    H278398   3.311   4.817  15.232 -2.2677  0.5937 -1.2857
18995TIP3   OH278399   5.489   1.565  12.251 -0.0265 -0.0353 -0.3512
18995TIP3    H178400   5.482   1.600  12.340 -0.8954 -1.1719  0.0370
18995TIP3    H278401   5.433   1.622  12.199  1.2178  1.2095 -0.3545
18996TIP3   OH278402   5.171   6.351  11.946  0.0542  0.0977 -0.1112
18996TIP3    H178403   5.172   6.323  12.038 -0.4988  0.4362 -0.0016
18996TIP3    H278404   5.096   6.411  11.940 -0.4577 -0.6257 -0.9880
18997TIP3   OH278405   1.780   1.539   1.101 -0.2078  0.0729 -0.1236
18997TIP3    H178406   1.809   1.479   1.032  1.1639  0.7591 -0.1592
18997TIP3    H278407   1.699   1.577   1.066 -1.3589 -2.0809  0.1048
18998TIP3   OH278408   2.601   6.029   2.962 -0.0250 -0.7022  0.2556
18998TIP3    H178409   2.552   6.066   2.889 -0.3681 -2.3672 -0.3927
18998TIP3    H278410   2.682   6.079   2.965 -0.2628 -0.2297 -0.9031
18999TIP3   OH278411   4.479   5.236  14.351  0.2990 -0.0920 -0.5089
18999TIP3    H178412   4.423   5.193  14.286 -0.7451 -0.3033  0.5017
18999TIP3    H278413   4.561   5.253  14.306 -0.6266  0.3144 -2.0536
19000TIP3   OH278414   2.049   0.396   5.320  0.5977  0.3256  0.0445
19000TIP3    H178415   2.079   0.328   5.259  2.4053  0.4164  0.7941
19000TIP3    H278416   2.047   0.476   5.267  1.6771  0.3110 -0.0282
19001TIP3   OH278417   5.348   3.341  17.025  0.0338  0.0071 -0.3459
19001TIP3    H178418   5.360   3.342  17.120 -0.2836 -2.3801 -0.2408
19001TIP3    H278419   5.257   3.365  17.011  0.1321  0.5416 -0.0552
19002TIP3   OH278420   4.795   0.490  15.982  0.1147 -0.3859 -0.2101
19002TIP3    H178421   4.836   0.408  16.009  1.3141  0.2729 -0.0116
19002TIP3    H278422   4.709   0.489  16.024  0.8415 -0.6948  1.2892
19003TIP3   OH278423   6.684   6.530   4.919 -0.1500 -0.6026  0.8379
19003TIP3    H178424   6.770   6.490   4.908  0.4543  1.3159 -1.6061
19003TIP3    H278425   6.692   6.582   4.999  1.0481 -0.1969  0.4579
19004TIP3   OH278426   5.144   5.567   0.197 -0.0480  0.0989  0.9325
19004TIP3    H178427   5.218   5.601   0.147  0.0536 -1.4163  0.0170
19004TIP3    H278428   5.179   5.490   0.242 -1.0332 -0.5811  0.5615
19005TIP3   OH278429   4.599   4.441   4.247  0.4872 -0.0278 -0.5847
19005TIP3    H178430   4.660   4.376   4.212  0.0574 -1.0262  0.5007
19005TIP3    H278431   4.654   4.506   4.291  0.8376 -0.2925 -0.6346
19006TIP3   OH278432   4.160   3.056  14.655 -0.7489  0.0144  0.2056
19006TIP3    H178433   4.145   3.124  14.720 -0.6339  0.2152  0.0242
19006TIP3    H278434   4.205   3.101  14.584 -0.3345 -0.3346  0.2485
19007TIP3   OH278435   0.527   3.796  10.679  0.2655 -0.2720  0.3056
19007TIP3    H178436   0.539   3.701  10.683  0.8530 -0.2594 -0.9871
19007TIP3    H278437   0.602   3.832  10.726  0.3035 -0.4290  0.3636
19008TIP3   OH278438   1.531   6.025  16.607 -0.3375 -0.2333 -0.4424
19008TIP3    H178439   1.602   6.036  16.543 -2.0337  2.4055 -1.9803
19008TIP3    H278440   1.491   5.942  16.584  2.5869 -2.0625  0.8317
19009TIP3   OH278441   6.211   0.450  15.849  0.1079  0.3953 -0.3919
19009TIP3    H178442   6.243   0.500  15.925 -0.2274  0.2669 -0.1684
19009TIP3    H278443   6.243   0.361  15.865  0.5231  0.4900 -0.6862
19010TIP3   OH278444   3.250   2.063  13.454  0.2804  0.3413  0.2566
19010TIP3    H178445   3.201   1.984  13.431 -1.3720  1.3747  0.1493
19010TIP3    H278446   3.263   2.108  13.370  0.8545  0.3913  0.3697
19011TIP3   OH278447   2.713   2.483  12.786  0.2200 -0.0506  0.5595
19011TIP3    H178448   2.619   2.493  12.802 -0.1411  1.7864 -2.3368
19011TIP3    H278449   2.718   2.419  12.715  1.2571 -1.2661  1.7143
19012TIP3   OH278450   2.018   3.239  14.863  0.0455  0.1303 -0.1634
19012TIP3    H178451   1.946   3.283  14.909  0.0149  0.9031 -0.9491
19012TIP3    H278452   1.996   3.247  14.770  1.1338  0.3677 -0.4070
19013TIP3   OH278453   0.697   1.991  12.482 -0.0768  0.3336  0.1539
19013TIP3    H178454   0.726   2.081  12.467  1.6267 -0.6235 -2.6275
19013TIP3    H278455   0.625   1.978  12.421  0.9026 -0.7489 -0.8002
19014TIP3   OH278456   0.918   4.397  11.363  0.0371  0.3800  0.1074
19014TIP3    H178457   0.950   4.314  11.398  1.5809  1.1973  0.6645
19014TIP3    H278458   0.963   4.407  11.279 -0.1953  0.6255  0.0112
19015TIP3   OH278459   2.797   0.492   3.083 -0.2527  0.4336  0.0346
19015TIP3    H178460   2.848   0.411   3.087 -0.0194  0.5443 -0.6282
19015TIP3    H278461   2.717   0.473   3.131 -0.7036 -0.5596 -1.1031
19016TIP3   OH278462   0.584   4.053   2.017  0.2977  0.4863  0.1577
19016TIP3    H178463   0.680   4.047   2.009  0.2029 -0.6713 -0.3473
19016TIP3    H278464   0.556   3.962   2.023 -0.8217  0.7988 -0.3027
19017TIP3   OH278465   6.733   2.177   2.491 -0.5200  0.2604 -0.2335
19017TIP3    H178466   6.687   2.163   2.409  0.3025 -0.0355 -0.6442
19017TIP3    H278467   6.778   2.260   2.479 -0.2694  0.1376 -0.1394
19018TIP3   OH278468   5.849   3.827   0.498  0.5187  0.6836 -0.3132
19018TIP3    H178469   5.848   3.736   0.469  0.4187  0.7955 -0.6602
19018TIP3    H278470   5.885   3.823   0.587 -0.5647  0.1831  0.1145
19019TIP3   OH278471   2.320   2.971   0.922  0.2697  0.2543  0.2403
19019TIP3    H178472   2.349   3.057   0.952  0.7856  0.0302  0.3863
19019TIP3    H278473   2.276   2.988   0.838  3.0516  0.2934 -1.2475
19020TIP3   OH278474   2.450   1.949   6.249 -0.2169 -0.4167  0.5469
19020TIP3    H178475   2.437   2.037   6.283  0.4311  0.7445 -2.0241
19020TIP3    H278476   2.410   1.891   6.314 -0.5951  1.7556  2.3058
19021TIP3   OH278477   1.715   2.856  16.435 -0.1659 -0.6039 -0.5544
19021TIP3    H178478   1.722   2.775  16.486 -0.6359 -0.9806 -1.0792
19021TIP3    H278479   1.799   2.863  16.390  0.2234 -0.3062  0.2215
19022TIP3   OH278480   6.225   0.981  14.986 -0.2013  0.0461 -0.1000
19022TIP3    H178481   6.315   0.983  15.017 -0.0105  0.9778 -0.6963
19022TIP3    H278482   6.225   1.035  14.907 -0.9157 -1.3981 -1.1179
19023TIP3   OH278483   1.164   2.272  16.404 -0.2520  0.0597 -0.3393
19023TIP3    H178484   1.145   2.364  16.386 -0.9307  0.3393  1.6548
19023TIP3    H278485   1.078   2.229  16.401 -0.2441 -0.0714  1.0689
19024TIP3   OH278486   2.289   6.408   1.304  0.2363 -0.2250 -0.2528
19024TIP3    H178487   2.353   6.477   1.286 -0.4764  0.4742 -0.1774
19024TIP3    H278488   2.339   6.327   1.302  0.9765  0.2450 -0.9476
19025TIP3   OH278489   5.001   4.761  15.455  0.3050 -0.8395  0.2988
19025TIP3    H178490   5.027   4.737  15.543 -0.2397  0.7145  0.9035
19025TIP3    H278491   4.995   4.678  15.408  0.9997 -1.6407  1.6017
19026TIP3   OH278492   1.185   2.837  15.584 -0.4458 -0.1380 -0.0429
19026TIP3    H178493   1.189   2.932  15.578  0.6426 -0.2096 -0.5825
19026TIP3    H278494   1.133   2.820  15.662  0.9954  0.8978  1.1483
19027TIP3   OH278495   5.520   3.229  13.000  0.0648  0.5269  0.2572
19027TIP3    H178496   5.579   3.211  13.073 -0.1574  1.3563  0.6530
19027TIP3    H278497   5.487   3.143  12.973  1.8083  0.0061 -0.2666
19028TIP3   OH278498   4.031   5.047  14.476  0.4515  0.0248  0.1783
19028TIP3    H178499   4.121   5.079  14.482  0.2116  0.8838 -0.6252
19028TIP3    H278500   4.039   4.952  14.483  1.1312  0.2406  3.1000
19029TIP3   OH278501   1.983   3.876   0.252  0.9469  0.1989 -0.5817
19029TIP3    H178502   2.019   3.955   0.292  0.8019  0.4104 -0.8683
19029TIP3    H278503   2.001   3.886   0.159 -0.9422  0.8890 -0.9032
19030TIP3   OH278504   4.930   5.123   2.353  0.5075  0.1255  0.4426
19030TIP3    H178505   4.988   5.184   2.307  1.5583 -2.1864 -1.4388
19030TIP3    H278506   4.964   5.120   2.442  1.8031  0.6498 -0.0174
19031TIP3   OH278507   1.475   0.917   5.445  0.9198 -0.5582  0.3919
19031TIP3    H178508   1.502   1.007   5.465  0.2687 -0.0894 -0.8017
19031TIP3    H278509   1.531   0.891   5.372  0.4571 -0.7812  0.1186
19032TIP3   OH278510   2.277   4.537  16.121  0.2911  0.3674 -0.5184
19032TIP3    H178511   2.355   4.481  16.123  0.4224  0.5622 -0.0422
19032TIP3    H278512   2.285   4.592  16.199 -1.5958 -1.3107  0.8938
19033TIP3   OH278513   0.983   6.194   1.412 -0.1824  0.2567  0.2583
19033TIP3    H178514   0.890   6.172   1.417 -0.2253  0.4232  0.1939
19033TIP3    H278515   0.999   6.248   1.490  0.0879 -0.6120  0.8091
19034TIP3   OH278516   4.618   4.773   2.319  0.3575 -0.2243 -0.1879
19034TIP3    H178517   4.678   4.710   2.360 -0.7575 -0.9012  0.4565
19034TIP3    H278518   4.638   4.769   2.226  1.7987  0.0944  0.1040
19035TIP3   OH278519   6.246   3.741  11.058  0.3012  0.0451 -0.0773
19035TIP3    H178520   6.263   3.817  11.001 -0.2231  0.2852  0.0788
19035TIP3    H278521   6.153   3.748  11.079  0.4547 -0.1440  0.6668
19036TIP3   OH278522   0.143   5.857   4.730  0.0419  0.3143  0.5006
19036TIP3    H178523   0.211   5.803   4.771 -0.3638 -0.1366  0.5905
19036TIP3    H278524   0.179   5.880   4.644  0.1902 -0.1652  0.4323
19037TIP3   OH278525   6.446   0.197  14.938  0.0296 -0.8219  0.2061
19037TIP3    H178526   6.402   0.187  15.023 -2.0129 -1.6750 -0.9175
19037TIP3    H278527   6.396   0.141  14.879 -0.6600  2.3247 -2.3223
19038TIP3   OH278528   1.081   5.850   4.289  0.0240  0.3749 -0.2393
19038TIP3    H178529   1.011   5.863   4.225 -0.1054 -0.4130 -0.2634
19038TIP3    H278530   1.134   5.779   4.253 -0.5954 -0.7255  0.9725
19039TIP3   OH278531   1.999   4.044   5.754 -0.2429 -0.0855 -0.3670
19039TIP3    H178532   2.018   4.096   5.676  1.3016 -0.2564 -0.1126
19039TIP3    H278533   1.934   4.095   5.802 -1.9621 -0.4422 -2.2358
19040TIP3   OH278534   0.517   5.392  11.129  0.1735 -0.6571 -0.0982
19040TIP3    H178535   0.558   5.347  11.055  1.7160 -0.5944  0.6987
19040TIP3    H278536   0.589   5.434  11.174 -1.3354  3.6567 -1.4755
19041TIP3   OH278537   1.769   2.607  12.236 -0.0863 -0.0427 -0.1749
19041TIP3    H178538   1.814   2.591  12.319  0.6086  0.0444 -0.5324
19041TIP3    H278539   1.799   2.536  12.179 -0.4265  0.0014 -0.4138
19042TIP3   OH278540   1.817   2.967   0.313 -0.9733  0.1029  0.0999
19042TIP3    H178541   1.806   2.961   0.218 -2.8234  0.1948  0.2729
19042TIP3    H278542   1.856   2.884   0.339 -1.7249 -0.4714 -0.5880
19043TIP3   OH278543   2.657   1.472   3.409 -0.0167  0.4406 -0.1574
19043TIP3    H178544   2.681   1.524   3.331  1.7535 -0.2576 -0.0885
19043TIP3    H278545   2.649   1.383   3.376  0.9062  0.1178  0.5044
19044TIP3   OH278546   3.674   0.872  12.182 -1.1719  0.3765 -0.2955
19044TIP3    H178547   3.688   0.861  12.276  2.5730 -1.1792 -0.9196
19044TIP3    H278548   3.585   0.838  12.167 -2.0352  1.1362  2.7191
19045TIP3   OH278549   3.812   5.542   4.240 -0.0481  0.1619  0.2277
19045TIP3    H178550   3.864   5.594   4.179  0.5562 -1.3898 -0.5972
19045TIP3    H278551   3.821   5.452   4.210 -1.4935 -0.3890  1.3374
19046TIP3   OH278552   2.756   0.437   2.343  0.1069  0.4975 -0.1994
19046TIP3    H178553   2.832   0.478   2.386  1.1095 -0.1253 -1.3428
19046TIP3    H278554   2.794   0.364   2.293 -1.7026 -2.3947  2.4211
19047TIP3   OH278555   5.491   3.526  15.923  0.1107 -0.1258 -0.1552
19047TIP3    H178556   5.459   3.597  15.979 -1.5914 -2.0403  1.3774
19047TIP3    H278557   5.583   3.517  15.945  0.0137  0.7135  0.6376
19048TIP3   OH278558   0.976   3.179  11.368 -0.1172  0.2786 -0.1835
19048TIP3    H178559   0.937   3.137  11.446  0.6377  0.3754  0.2511
19048TIP3    H278560   0.912   3.245  11.343 -1.0962 -0.7895 -0.5728
19049TIP3   OH278561   5.550   3.323  16.797 -0.0612  0.2465 -0.0457
19049TIP3    H178562   5.577   3.404  16.755  0.9680  0.2921  0.6850
19049TIP3    H278563   5.472   3.347  16.847 -0.6035  0.4538 -0.9846
19050TIP3   OH278564   6.334   3.077  15.249  0.1793  0.6190  0.1758
19050TIP3    H178565   6.364   3.048  15.163  1.3189  1.4754  0.2662
19050TIP3    H278566   6.389   3.153  15.269 -1.2393  1.4551  0.9221
19051TIP3   OH278567   6.529   1.722   5.036 -0.0470  0.0812  0.6381
19051TIP3    H178568   6.567   1.709   4.949  0.4976  0.7051  0.7762
19051TIP3    H278569   6.602   1.751   5.090 -0.5500  0.4726  1.1149
19052TIP3   OH278570   0.863   2.027  16.235 -0.1376 -0.0620  0.0102
19052TIP3    H178571   0.857   2.048  16.328  1.1779  1.0877 -0.1607
19052TIP3    H278572   0.884   2.110  16.192 -0.2423 -0.6744 -1.2597
19053TIP3   OH278573   1.046   2.862   2.884  0.3361 -0.3686 -0.6214
19053TIP3    H178574   0.996   2.911   2.948 -2.4999 -1.9052 -1.5617
19053TIP3    H278575   1.035   2.911   2.802  0.3631 -0.6898 -0.8200
19054TIP3   OH278576   4.600   4.315   0.901 -0.7226  0.0032  0.7602
19054TIP3    H178577   4.583   4.402   0.865 -0.7709 -0.3247 -0.0109
19054TIP3    H278578   4.523   4.263   0.878  0.7663 -1.1851 -1.8153
19055TIP3   OH278579   4.690   6.612  13.672  0.3914 -0.4566  0.4414
19055TIP3    H178580   4.763   6.585  13.727  1.8362  1.2153 -0.6154
19055TIP3    H278581   4.692   6.553  13.597 -0.2283 -1.3212  1.0976
19056TIP3   OH278582   2.224   4.789   3.405 -0.1116  0.3860  0.1522
19056TIP3    H178583   2.309   4.794   3.361 -0.4229 -0.0166 -0.5091
19056TIP3    H278584   2.168   4.848   3.355 -0.2574  0.5550  0.5130
19057TIP3   OH278585   0.358   1.180  15.745  0.0753  0.0050 -0.5831
19057TIP3    H178586   0.343   1.216  15.658  0.4368  0.7392 -0.3451
19057TIP3    H278587   0.288   1.217  15.800 -0.2675 -0.6097 -0.6082
19058TIP3   OH278588   6.542   3.378   0.322 -0.9311 -0.0148 -0.1199
19058TIP3    H178589   6.468   3.412   0.373 -0.4118  1.8322 -0.5677
19058TIP3    H278590   6.604   3.346   0.387 -0.6103  1.6199  0.3903
19059TIP3   OH278591   1.278   0.538   3.411 -0.2259 -0.2391  0.2232
19059TIP3    H178592   1.211   0.487   3.364 -2.3633  3.6296 -1.2119
19059TIP3    H278593   1.228   0.591   3.473  1.8448  0.6177  1.2097
19060TIP3   OH278594   0.570   2.946  12.533  0.0592  0.4643 -0.3679
19060TIP3    H178595   0.653   2.908  12.505 -0.9283 -1.7049 -0.4353
19060TIP3    H278596   0.519   2.954  12.453 -1.6239 -2.9072  0.2716
19061TIP3   OH278597   1.207   6.517   4.669 -0.2957 -0.7220  0.5009
19061TIP3    H178598   1.293   6.474   4.666  0.7521  1.3910 -1.6904
19061TIP3    H278599   1.158   6.478   4.597 -0.7922 -1.1427  1.0633
19062TIP3   OH278600   5.511   4.930   3.483 -0.4875 -0.3969  0.3506
19062TIP3    H178601   5.585   4.881   3.447  0.2391 -0.4517  1.8635
19062TIP3    H278602   5.441   4.865   3.491  0.4810 -1.2643  2.3813
19063TIP3   OH278603   2.894   2.658  13.559  0.0758 -0.0493  0.1799
19063TIP3    H178604   2.924   2.739  13.519 -0.6263 -1.2240 -2.8711
19063TIP3    H278605   2.800   2.670  13.569 -0.0489 -0.5056 -0.3933
19064TIP3   OH278606   0.833   5.292  15.855 -0.4941 -0.5384 -0.1616
19064TIP3    H178607   0.905   5.237  15.822  1.1195  2.6884 -2.3778
19064TIP3    H278608   0.762   5.278  15.792  0.4562  0.9687 -1.6351
19065TIP3   OH278609   6.095   4.422  14.451  0.0057 -0.0399 -0.2067
19065TIP3    H178610   6.055   4.372  14.380 -1.3286 -1.2449  1.3312
19065TIP3    H278611   6.023   4.475  14.486  1.5076  3.4299 -2.1388
19066TIP3   OH278612   2.983   3.580   2.648  0.5110  0.0915  0.9595
19066TIP3    H178613   2.985   3.589   2.743  1.7210 -1.5247  1.1027
19066TIP3    H278614   2.891   3.571   2.627  0.4785 -4.1759  2.4750
19067TIP3   OH278615   2.356   5.359  13.213 -0.3923  0.0798 -0.5999
19067TIP3    H178616   2.389   5.409  13.139  0.6836 -0.4557 -0.4863
19067TIP3    H278617   2.395   5.400  13.290  1.5141 -1.6789 -0.5804
19068TIP3   OH278618   2.400   0.951  15.060 -0.1221  0.2447  0.7673
19068TIP3    H178619   2.376   0.978  15.149  0.7991  0.9181  0.8199
19068TIP3    H278620   2.455   1.022  15.028  0.2345 -0.3946 -0.0435
19069TIP3   OH278621   6.349   3.659   2.778 -0.4833  0.0561  0.3959
19069TIP3    H178622   6.303   3.732   2.819 -1.6960 -1.3198  1.5043
19069TIP3    H278623   6.398   3.618   2.849 -0.5111 -0.7334 -0.0320
19070TIP3   OH278624   2.803   4.692   6.246  0.0098 -0.0385  0.4500
19070TIP3    H178625   2.869   4.623   6.241 -0.0772 -0.0835 -0.2057
19070TIP3    H278626   2.826   4.743   6.324  0.2284 -0.6485  0.7848
19071TIP3   OH278627   3.941   3.618  13.325  0.1336 -0.1618 -0.2692
19071TIP3    H178628   3.975   3.638  13.238  0.0579 -0.0358 -0.2704
19071TIP3    H278629   4.015   3.580  13.372  0.3260  0.2705 -0.2164
19072TIP3   OH278630   6.436   2.138  11.521 -0.1227 -0.1524 -0.3535
19072TIP3    H178631   6.406   2.054  11.486  0.6469 -1.4971  2.0788
19072TIP3    H278632   6.371   2.161  11.588  0.7610  0.1443  0.4202
19073TIP3   OH278633   3.214   6.038   2.948  0.3418 -0.5568 -0.0972
19073TIP3    H178634   3.227   5.947   2.921  0.7806 -0.0242 -1.7345
19073TIP3    H278635   3.131   6.063   2.907 -0.4475 -0.6190  1.4372
19074TIP3   OH278636   2.388   3.048  14.108  0.5711  0.4471 -0.3325
19074TIP3    H178637   2.450   3.118  14.091  1.7157 -0.9501 -2.1223
19074TIP3    H278638   2.435   2.987  14.165 -0.3097  0.9594  0.9690
19075TIP3   OH278639   4.734   0.449  16.980 -0.5042 -0.3072 -0.7046
19075TIP3    H178640   4.704   0.536  17.007 -3.8945 -1.3756 -0.7943
19075TIP3    H278641   4.782   0.464  16.898 -0.6889  1.4911 -0.4982
19076TIP3   OH278642   5.947   2.061   4.690  0.2765 -0.1668  0.5042
19076TIP3    H178643   6.009   1.994   4.663 -0.5891 -1.6152  2.0411
19076TIP3    H278644   5.995   2.143   4.680  1.9662 -1.1422  0.3662
19077TIP3   OH278645   6.329   2.390  15.572 -0.0718  0.3451  0.4633
19077TIP3    H178646   6.393   2.323  15.546  0.1386  1.2594 -1.4906
19077TIP3    H278647   6.366   2.429  15.651 -0.6292 -2.4007  2.1484
19078TIP3   OH278648   1.700   5.789   5.015 -0.4718  0.4923 -0.3436
19078TIP3    H178649   1.792   5.806   5.037 -0.6132  0.2632  0.4172
19078TIP3    H278650   1.653   5.800   5.097 -1.2217  1.2397 -0.8590
19079TIP3   OH278651   1.485   3.915  13.792  0.3151 -0.0600 -0.2748
19079TIP3    H178652   1.466   3.960  13.875 -1.4650 -0.6962 -0.3231
19079TIP3    H278653   1.552   3.970  13.750  1.2745  0.2520  1.5817
19080TIP3   OH278654   0.362   1.997  10.823  0.2547 -0.3024 -0.7805
19080TIP3    H178655   0.348   1.930  10.756  1.3792 -1.8108  0.4727
19080TIP3    H278656   0.389   2.075  10.773 -2.1238 -0.4179 -2.3344
19081TIP3   OH278657   3.329   3.625   3.782 -0.4228  0.2784  0.3652
19081TIP3    H178658   3.329   3.707   3.831 -1.8312  0.7819 -0.4374
19081TIP3    H278659   3.337   3.557   3.848  3.2701  1.1265  0.8766
19082TIP3   OH278660   0.679   6.719   2.630 -0.3190 -0.3319  0.1219
19082TIP3    H178661   0.716   6.746   2.714  2.5363 -0.2852 -1.0734
19082TIP3    H278662   0.734   6.645   2.603 -1.8757 -1.0321 -1.2103
19083TIP3   OH278663   3.482   0.586   5.451 -0.9700 -0.4745  0.1672
19083TIP3    H178664   3.416   0.536   5.499 -1.6093 -1.0125 -1.2533
19083TIP3    H278665   3.499   0.535   5.372  2.2377 -1.0883  1.1682
19084TIP3   OH278666   4.816   6.572   1.222 -0.1957  0.0101 -0.5472
19084TIP3    H178667   4.854   6.490   1.190 -0.3634 -0.1364 -0.3700
19084TIP3    H278668   4.779   6.549   1.307  2.6059  0.9983  1.0084
19085TIP3   OH278669   2.819   0.801   5.994 -0.0175  0.2716 -0.4157
19085TIP3    H178670   2.876   0.860   6.043  0.1437 -0.3470  0.1386
19085TIP3    H278671   2.738   0.851   5.982  0.2599  0.7549 -0.3035
19086TIP3   OH278672   2.503   4.803  10.959 -0.0713  0.2336 -0.0258
19086TIP3    H178673   2.533   4.882  10.913  0.2326 -0.8004 -1.6445
19086TIP3    H278674   2.408   4.802  10.944 -0.1200  0.4568  0.2645
19087TIP3   OH278675   4.793   0.103  13.299 -0.5946 -0.0093 -0.0561
19087TIP3    H178676   4.770   0.179  13.246  1.7377  1.3077  0.8136
19087TIP3    H278677   4.819   0.138  13.383 -0.2693 -1.8373  0.6330
19088TIP3   OH278678   4.743   1.933  13.414 -0.0918 -0.6263 -0.4050
19088TIP3    H178679   4.744   2.026  13.393  0.1005 -1.0980 -2.5902
19088TIP3    H278680   4.699   1.928  13.499  0.3487  1.4892 -0.0271
19089TIP3   OH278681   2.191   5.429  15.465 -0.8539 -0.3158 -0.2901
19089TIP3    H178682   2.284   5.409  15.451 -1.5673 -3.7748 -0.7727
19089TIP3    H278683   2.188   5.475  15.548  1.4337  1.1588 -0.9886
19090TIP3   OH278684   1.858   1.544   4.207 -0.4316  0.0004 -0.0309
19090TIP3    H178685   1.914   1.468   4.224 -0.4314  0.0243  0.0791
19090TIP3    H278686   1.823   1.567   4.293 -2.5523 -1.5240 -0.4396
19091TIP3   OH278687   3.992   2.423  16.281  0.1164 -0.1885  0.3040
19091TIP3    H178688   3.958   2.338  16.254 -2.4226  1.1091 -0.7203
19091TIP3    H278689   3.930   2.454  16.347  1.9618  0.1598  1.9555
19092TIP3   OH278690   6.184   0.176  13.627  0.1952  0.0834 -0.3630
19092TIP3    H178691   6.271   0.148  13.601  0.9091  1.6846  0.2260
19092TIP3    H278692   6.190   0.188  13.722 -0.7999 -0.2193 -0.2502
19093TIP3   OH278693   2.573   0.572   1.518 -0.2761  0.0666  0.8895
19093TIP3    H178694   2.639   0.505   1.499  0.0077  0.6731 -0.3215
19093TIP3    H278695   2.614   0.628   1.584  0.0344 -0.1351  0.8675
19094TIP3   OH278696   5.161   1.502  10.868  0.0025  0.0444  0.1921
19094TIP3    H178697   5.112   1.580  10.841 -0.4408 -0.5695 -0.7969
19094TIP3    H278698   5.096   1.447  10.911  0.5424  0.6712  1.8528
19095TIP3   OH278699   2.111   2.268   0.448 -0.6896 -0.6250  0.7272
19095TIP3    H178700   2.160   2.250   0.528 -0.9381  0.8623  1.2280
19095TIP3    H278701   2.055   2.191   0.437 -0.0293 -1.2264  1.5024
19096TIP3   OH278702   4.790   1.530  11.737  0.2926  0.1499 -0.0505
19096TIP3    H178703   4.858   1.549  11.673  1.1093 -5.5463 -1.2100
19096TIP3    H278704   4.838   1.498  11.814 -0.9305  0.6738  0.9594
19097TIP3   OH278705   3.018   5.126   4.950 -0.0784 -0.5444  0.4092
19097TIP3    H178706   3.056   5.039   4.961  2.0061  0.1926 -0.7097
19097TIP3    H278707   3.086   5.177   4.906  0.0521  2.6156  4.0473
19098TIP3   OH278708   5.841   5.593  13.584 -0.5104 -0.5186  0.2002
19098TIP3    H178709   5.933   5.604  13.562 -0.6921 -0.6442 -0.6560
19098TIP3    H278710   5.827   5.649  13.659  0.8614 -2.4029  1.9148
19099TIP3   OH278711   1.234   4.561   1.518 -0.5462  0.9089  0.1666
19099TIP3    H178712   1.168   4.606   1.570  0.1129  1.9957  0.0947
19099TIP3    H278713   1.267   4.491   1.575 -1.4470  0.6291  0.3512
19100TIP3   OH278714   5.893   4.029   6.296  0.4630  0.0328 -0.4274
19100TIP3    H178715   5.818   3.992   6.249  0.1016  0.5136 -0.2302
19100TIP3    H278716   5.855   4.065   6.377  0.9827 -0.2067 -0.0745
19101TIP3   OH278717   1.434   6.056   3.229  0.1148  0.2809  0.2486
19101TIP3    H178718   1.462   6.100   3.309  0.5775 -1.6140  1.1580
19101TIP3    H278719   1.480   6.102   3.159 -2.1387  3.5194  0.7830
19102TIP3   OH278720   3.016   3.756  14.746  0.2454 -0.0206 -0.3940
19102TIP3    H178721   3.036   3.793  14.832  1.0646  2.6510 -1.6996
19102TIP3    H278722   2.922   3.769  14.736  0.1375 -0.3834  0.1082
19103TIP3   OH278723   2.627   6.725   6.010 -0.3058  0.2817 -0.1848
19103TIP3    H178724   2.616   6.818   5.994 -0.0267  0.2248 -0.7112
19103TIP3    H278725   2.538   6.692   6.026 -0.3509  0.7257  0.5106
19104TIP3   OH278726   6.752   3.602   6.401  0.1909 -0.0976 -0.1425
19104TIP3    H178727   6.805   3.526   6.379 -0.5880 -0.4092 -0.9469
19104TIP3    H278728   6.805   3.677   6.375 -0.2258 -0.4374 -1.9888
19105TIP3   OH278729   6.177   4.136  14.013  0.0775  0.1594  0.3709
19105TIP3    H178730   6.136   4.054  14.042  0.3121  0.4312  1.4976
19105TIP3    H278731   6.271   4.115  14.010  0.1473  0.4163  0.7670
19106TIP3   OH278732   0.287   3.013  11.288 -0.0383  0.6728 -0.7725
19106TIP3    H178733   0.286   2.959  11.367  2.0026  2.4021  0.4765
19106TIP3    H278734   0.337   2.961  11.224 -2.1978 -0.9903 -1.1784
19107TIP3   OH278735   0.698   3.633   4.647  0.0427  0.2232 -0.5115
19107TIP3    H178736   0.665   3.659   4.561  1.7216  0.8760 -0.9883
19107TIP3    H278737   0.687   3.538   4.650 -1.6393  0.4075 -0.7335
19108TIP3   OH278738   3.632   2.807  14.397  0.0630  0.0446  0.1819
19108TIP3    H178739   3.597   2.893  14.423 -0.2226 -0.0710  0.1815
19108TIP3    H278740   3.711   2.828  14.347  0.5593  0.2756  1.0504
19109TIP3   OH278741   0.434   1.320  13.653 -0.6676  0.7317 -0.6742
19109TIP3    H178742   0.409   1.354  13.739 -0.3639 -0.3325 -0.1581
19109TIP3    H278743   0.528   1.305  13.661 -0.7062  0.2893 -1.0789
19110TIP3   OH278744   3.800   0.258   1.701 -0.2898  0.4123  0.3840
19110TIP3    H178745   3.800   0.256   1.606  0.2792  0.7256  0.3740
19110TIP3    H278746   3.710   0.237   1.726 -0.3131 -0.2165 -0.2070
19111TIP3   OH278747   0.706   2.908  12.087 -0.2878  0.1745 -0.5996
19111TIP3    H178748   0.718   2.981  12.147 -0.5744  0.9190 -1.4543
19111TIP3    H278749   0.791   2.862  12.087 -0.8217 -0.9060  1.7768
19112TIP3   OH278750   5.179   2.191  10.687  0.1464  0.3710 -0.4705
19112TIP3    H178751   5.149   2.254  10.621 -0.5958 -0.1798 -0.6654
19112TIP3    H278752   5.229   2.126  10.638  1.5750  1.2192 -0.1640
19113TIP3   OH278753   2.724   6.588   4.615 -0.1299 -0.2878 -0.2009
19113TIP3    H178754   2.717   6.523   4.686 -1.7314  0.9217  0.7941
19113TIP3    H278755   2.635   6.594   4.581  0.5852 -0.6698 -2.1780
19114TIP3   OH278756   2.090   3.783   3.630 -0.3025 -0.0399  0.0239
19114TIP3    H178757   2.149   3.854   3.658  1.9790 -0.9925 -2.0942
19114TIP3    H278758   2.026   3.826   3.574 -0.3522  0.6974  0.6385
19115TIP3   OH278759   5.214   0.221  15.240  0.4214  0.1686  0.8769
19115TIP3    H178760   5.254   0.137  15.261  0.1194  0.5927  3.2367
19115TIP3    H278761   5.195   0.261  15.325 -0.0183  2.3444 -0.2060
19116TIP3   OH278762   0.768   0.591  10.469 -0.4535 -0.4628 -0.2849
19116TIP3    H178763   0.755   0.528  10.541 -0.3210 -0.0036  0.1410
19116TIP3    H278764   0.809   0.539  10.400  3.1411 -0.0675  1.4237
19117TIP3   OH278765   5.177   4.219   4.911  0.7256  1.2446 -0.0896
19117TIP3    H178766   5.265   4.247   4.886  0.6643  0.4295 -1.2695
19117TIP3    H278767   5.128   4.219   4.829 -0.5386  2.2687  0.6623
19118TIP3   OH278768   1.928   0.729   1.814 -0.0421 -0.1780 -0.2826
19118TIP3    H178769   1.933   0.777   1.897 -1.4056 -0.0890 -0.2293
19118TIP3    H278770   1.840   0.749   1.781  1.1689  1.2772 -2.6734
19119TIP3   OH278771   6.136   5.741  13.605  0.0837  0.4736  0.2064
19119TIP3    H178772   6.112   5.763  13.695  0.3193  2.5492 -0.2265
19119TIP3    H278773   6.230   5.759  13.600 -0.3889  2.6252 -1.1094
19120TIP3   OH278774   6.012   2.089  15.630 -0.6999 -0.4574 -0.3598
19120TIP3    H178775   5.968   2.017  15.585 -2.7653  0.5536  0.0150
19120TIP3    H278776   6.105   2.077  15.609 -1.0720 -2.9627 -0.6519
19121TIP3   OH278777   1.411   1.432  16.898 -0.1106  0.2889  0.2036
19121TIP3    H178778   1.492   1.394  16.863 -1.3005 -1.4331 -0.7544
19121TIP3    H278779   1.419   1.526  16.880  2.0002  0.2532  0.8044
19122TIP3   OH278780   2.807   2.457   3.237  0.1102  0.4786  0.6048
19122TIP3    H178781   2.721   2.495   3.222 -0.5682 -1.0025  0.5880
19122TIP3    H278782   2.817   2.457   3.332  1.0763  2.7325  0.5191
19123TIP3   OH278783   6.553   2.944   0.369  0.5213  0.1614 -0.1945
19123TIP3    H178784   6.515   2.986   0.291 -1.1941  0.5356  0.8093
19123TIP3    H278785   6.479   2.938   0.430  1.4889 -1.5386  0.8153
19124TIP3   OH278786   2.147   6.334  11.018  0.2883 -0.0450  0.2650
19124TIP3    H178787   2.054   6.310  11.020  0.3639 -0.3091  0.7861
19124TIP3    H278788   2.153   6.400  10.949 -0.3375  0.1738  0.4140
19125TIP3   OH278789   2.000   0.905  16.884 -0.0665 -0.1125  0.0526
19125TIP3    H178790   1.910   0.895  16.912 -0.6893  0.0304 -1.8132
19125TIP3    H278791   2.041   0.959  16.951 -1.5575  0.4753  0.5029
19126TIP3   OH278792   3.472   2.216  13.282 -0.3421  0.1084 -0.1952
19126TIP3    H178793   3.383   2.243  13.258 -0.2842 -0.7863 -1.4672
19126TIP3    H278794   3.476   2.123  13.258 -0.0789 -0.6870  2.8281
19127TIP3   OH278795   6.537   5.016   0.125 -0.1307  0.2954  0.1929
19127TIP3    H178796   6.570   4.927   0.118  1.2088  0.7238  0.9181
19127TIP3    H278797   6.532   5.048   0.035  1.4531  0.2204  0.0655
19128TIP3   OH278798   5.846   2.477   1.340  0.3634 -0.5025 -0.1927
19128TIP3    H178799   5.829   2.534   1.265 -0.8501 -0.3628  0.1698
19128TIP3    H278800   5.767   2.423   1.347  1.9153 -2.9346 -1.1453
19129TIP3   OH278801   6.005   5.105  15.512  0.0527  0.2286  0.5315
19129TIP3    H178802   5.976   5.192  15.542  0.0067  0.7242 -0.9058
19129TIP3    H278803   6.097   5.118  15.489 -0.0026 -0.0670  0.1498
19130TIP3   OH278804   6.019   1.247   6.632  0.1569 -0.0203  0.0331
19130TIP3    H178805   6.026   1.163   6.587 -0.5410 -0.8742  1.4839
19130TIP3    H278806   6.110   1.275   6.646  0.3967 -0.8109  0.0655
19131TIP3   OH278807   2.446   1.224  12.794 -0.0405 -0.3668 -0.8202
19131TIP3    H178808   2.472   1.316  12.787  1.1766 -0.7579 -1.5361
19131TIP3    H278809   2.446   1.206  12.888  0.3121  0.1983 -0.7113
19132TIP3   OH278810   0.357   1.438   3.342 -0.3443  1.1464  0.3777
19132TIP3    H178811   0.271   1.424   3.302  0.0880 -0.5640 -0.0104
19132TIP3    H278812   0.416   1.453   3.268 -0.2178  1.8013  0.6099
19133TIP3   OH278813   4.069   1.998   6.285  0.4520 -0.4488 -0.7038
19133TIP3    H178814   4.077   1.903   6.279  1.6178 -0.3968 -0.0986
19133TIP3    H278815   3.989   2.012   6.336  1.5885 -1.1505  1.3082
19134TIP3   OH278816   3.384   2.436  16.656 -0.3618 -0.1092  0.3570
19134TIP3    H178817   3.431   2.440  16.573 -2.7057  0.4800 -0.9781
19134TIP3    H278818   3.425   2.503  16.711 -1.1175  2.0127 -1.5906
19135TIP3   OH278819   4.673   1.754  11.928  0.2433  0.0724 -0.0928
19135TIP3    H178820   4.716   1.701  11.861 -1.9274  0.4089 -1.8025
19135TIP3    H278821   4.653   1.692  11.998  0.2532 -0.7957 -0.8536
19136TIP3   OH278822   2.558   5.582  12.026  0.2179  0.2462  0.7653
19136TIP3    H178823   2.538   5.638  12.101 -0.1410  0.4125  0.5507
19136TIP3    H278824   2.521   5.497  12.049 -0.0062  0.3308  0.7266
19137TIP3   OH278825   2.614   3.183  16.248  0.0835 -0.4741  0.0689
19137TIP3    H178826   2.519   3.193  16.255  0.1529 -0.5198  1.2296
19137TIP3    H278827   2.645   3.266  16.211 -0.3956 -0.4297 -0.2337
19138TIP3   OH278828   4.014   6.126  11.854  0.0983  0.3796 -0.0325
19138TIP3    H178829   3.986   6.065  11.786  0.4104 -0.0200  0.1930
19138TIP3    H278830   4.037   6.206  11.807  2.3303 -0.5685 -0.6325
19139TIP3   OH278831   3.151   3.060   1.440 -0.3419  0.5106  0.0833
19139TIP3    H178832   3.171   3.109   1.361 -3.0024 -0.7609 -1.4419
19139TIP3    H278833   3.225   3.077   1.498  1.3074  2.0439 -2.3805
19140TIP3   OH278834   4.622   5.483  13.636  0.0095 -0.3791  0.4547
19140TIP3    H178835   4.531   5.472  13.606 -0.1093  0.6320  0.4365
19140TIP3    H278836   4.631   5.577  13.652  1.2665 -0.3790 -0.2161
19141TIP3   OH278837   2.494   2.195  12.084  0.0483  0.1595  0.1489
19141TIP3    H178838   2.509   2.106  12.052 -0.8394  0.1856 -0.3780
19141TIP3    H278839   2.438   2.235  12.017 -0.2088  0.8603  0.7700
19142TIP3   OH278840   3.620   4.605   4.154 -0.0789  0.2417  0.6457
19142TIP3    H178841   3.599   4.696   4.130  1.0054  0.6485  1.2139
19142TIP3    H278842   3.690   4.613   4.219 -0.5016 -0.9852  1.2537
19143TIP3   OH278843   5.062   3.925   4.804 -0.0093  0.6205 -0.1083
19143TIP3    H178844   5.096   3.953   4.889 -0.1712  2.4453 -0.6153
19143TIP3    H278845   4.971   3.954   4.803 -0.5853 -1.1600 -0.1292
19144TIP3   OH278846   1.183   3.958   5.846  0.4528  0.3309  0.1192
19144TIP3    H178847   1.220   4.025   5.789  2.2710 -1.7623 -1.2635
19144TIP3    H278848   1.247   3.887   5.843 -2.0426 -1.9934  0.4980
19145TIP3   OH278849   1.008   2.558  12.281 -0.1465 -0.2028 -0.1868
19145TIP3    H178850   1.067   2.532  12.210  0.0761 -0.0854 -0.0433
19145TIP3    H278851   0.920   2.545  12.245 -0.0455  0.8820 -0.8731
19146TIP3   OH278852   0.525   5.745   5.172 -0.0018 -1.0153  0.2024
19146TIP3    H178853   0.606   5.753   5.223 -0.1317  2.0272  0.0283
19146TIP3    H278854   0.539   5.669   5.116  2.7305 -0.5404  0.1824
19147TIP3   OH278855   3.761   4.682  15.547  0.4166  0.1726 -0.4567
19147TIP3    H178856   3.807   4.714  15.469  0.8311 -0.3954 -0.4412
19147TIP3    H278857   3.686   4.742  15.556  0.5798  0.4742 -1.0698
19148TIP3   OH278858   3.254   2.297   3.675 -0.1329 -0.6293 -0.4978
19148TIP3    H178859   3.191   2.366   3.656  0.2301  0.4038  1.8787
19148TIP3    H278860   3.326   2.313   3.614  0.5938  2.0278  0.9419
19149TIP3   OH278861   3.043   5.930   2.311 -0.8189  0.3496 -0.1294
19149TIP3    H178862   2.953   5.911   2.335 -0.5831  1.6448  1.8574
19149TIP3    H278863   3.067   5.858   2.252 -3.4897  0.6075 -1.6163
19150TIP3   OH278864   4.194   0.475  12.393 -0.0496  1.0212 -0.1055
19150TIP3    H178865   4.132   0.478  12.466 -0.8890 -1.9257 -0.6235
19150TIP3    H278866   4.151   0.526  12.324 -1.1590  0.3791  0.0962
19151TIP3   OH278867   0.774   2.759   0.216  0.0638  0.1893  0.3966
19151TIP3    H178868   0.832   2.710   0.275 -0.4548 -0.2176  0.5765
19151TIP3    H278869   0.833   2.804   0.156  0.5815  0.1631  0.8829
19152TIP3   OH278870   3.107   2.001   3.021  0.5280  0.3328 -0.5063
19152TIP3    H178871   3.124   2.086   3.061  0.3966 -0.1322  0.5776
19152TIP3    H278872   3.187   1.950   3.039 -1.1889 -1.3092  3.0943
19153TIP3   OH278873   5.577   1.291   2.611 -0.0458  0.8656  0.6803
19153TIP3    H178874   5.634   1.361   2.580  0.4774 -0.3212 -1.0727
19153TIP3    H278875   5.533   1.259   2.533 -0.8204 -0.2792  1.5711
19154TIP3   OH278876   5.344   0.675   1.800 -0.5273  0.4337  0.1387
19154TIP3    H178877   5.415   0.627   1.757 -0.4471  0.5207  0.1743
19154TIP3    H278878   5.376   0.765   1.805 -0.2991  0.3087  0.9131
19155TIP3   OH278879   6.300   5.000  16.074 -0.0054 -0.3988  0.6342
19155TIP3    H178880   6.290   5.031  16.165  2.3067 -0.1208  0.8287
19155TIP3    H278881   6.227   5.039  16.027  0.3134  1.7033  1.8345
19156TIP3   OH278882   5.126   3.620  15.007 -0.1753 -0.2035 -0.3920
19156TIP3    H178883   5.074   3.608  14.928 -1.3532  3.0302 -0.1641
19156TIP3    H278884   5.076   3.576  15.076 -2.1734  2.0504 -0.3555
19157TIP3   OH278885   0.196   0.980   2.958  0.2144  0.2341  0.1899
19157TIP3    H178886   0.130   1.049   2.949  1.3542  1.0147 -2.9708
19157TIP3    H278887   0.276   1.026   2.983  0.6881 -0.0745 -0.7245
19158TIP3   OH278888   4.164   4.287   1.525  0.0899 -0.6858 -0.0310
19158TIP3    H178889   4.111   4.237   1.588 -1.2470  1.0051  0.2046
19158TIP3    H278890   4.101   4.325   1.465  1.0880  0.7270 -0.2050
19159TIP3   OH278891   3.835   3.485   5.207 -0.1047  0.6511 -0.6287
19159TIP3    H178892   3.805   3.397   5.230 -0.8674  1.1719  0.4064
19159TIP3    H278893   3.888   3.473   5.128  0.7659 -0.8886  0.1711
19160TIP3   OH278894   3.193   0.826  14.812  0.3678  0.4523  0.3181
19160TIP3    H178895   3.274   0.779  14.833  1.2080  1.6226 -0.2392
19160TIP3    H278896   3.181   0.812  14.718 -1.0107 -1.1225  0.7031
19161TIP3   OH278897   4.567   3.155  12.524 -0.0648  0.0494 -0.0594
19161TIP3    H178898   4.651   3.195  12.545 -0.5137  0.1117  1.6868
19161TIP3    H278899   4.586   3.062  12.515  0.5076  0.2954 -1.4873
19162TIP3   OH278900   4.727   5.835   5.168 -0.4749  0.4340 -0.0977
19162TIP3    H178901   4.654   5.836   5.106 -1.6745  0.8759  1.2917
19162TIP3    H278902   4.735   5.744   5.194 -2.1510  0.7665  1.6104
19163TIP3   OH278903   3.429   3.171  13.796  0.0096  0.1952 -0.1558
19163TIP3    H178904   3.503   3.116  13.821 -0.0647  0.1694  0.0087
19163TIP3    H278905   3.352   3.124  13.828 -0.0902  0.1353 -0.4819
19164TIP3   OH278906   1.211   4.925  13.434 -0.0765 -0.2105 -0.3466
19164TIP3    H178907   1.263   4.962  13.363  0.1835 -0.8885 -0.5121
19164TIP3    H278908   1.241   4.834  13.441  0.7486  0.1755  1.4147
19165TIP3   OH278909   0.649   1.368  17.220  0.3001  0.7448 -0.1039
19165TIP3    H178910   0.741   1.383  17.199  0.7046 -1.2619  0.1063
19165TIP3    H278911   0.650   1.291  17.278 -1.6072 -0.1385 -1.2068
19166TIP3   OH278912   1.016   6.655   1.019  0.2820 -0.4443 -0.3541
19166TIP3    H178913   1.025   6.606   0.938  1.4914  0.2565 -0.6585
19166TIP3    H278914   1.104   6.689   1.037 -0.6552  2.2804 -0.5797
19167TIP3   OH278915   5.943   0.868  11.747 -0.6828 -0.2305  0.5498
19167TIP3    H178916   5.856   0.888  11.781  0.2827  4.0758  0.8152
19167TIP3    H278917   6.000   0.874  11.824  0.3588  0.9628 -0.2984
19168TIP3   OH278918   2.602   3.044  15.577 -0.3103 -0.1620  0.2591
19168TIP3    H178919   2.660   2.969  15.590  1.2506  0.7476 -1.0864
19168TIP3    H278920   2.595   3.052  15.482  1.5774  2.8477  0.3057
19169TIP3   OH278921   6.753   2.198   0.192  0.0085  0.4121 -0.2712
19169TIP3    H178922   6.759   2.152   0.276  0.5175  1.3320  0.2050
19169TIP3    H278923   6.725   2.287   0.215  0.4593  0.7597 -1.0426
19170TIP3   OH278924   4.604   6.689  16.783  0.2281  0.6989 -0.3039
19170TIP3    H178925   4.645   6.767  16.821  0.5175 -0.4757  1.8370
19170TIP3    H278926   4.645   6.616  16.828 -1.1326 -0.6616 -1.2457
19171TIP3   OH278927   0.056   5.332  14.972 -0.5792  0.5502 -0.8092
19171TIP3    H178928   0.061   5.238  14.988 -0.3180  0.8142  0.7587
19171TIP3    H278929   0.079   5.372  15.056 -3.2562  1.9976 -0.6939
19172TIP3   OH278930   3.065   0.825  11.326 -0.2645  0.6718 -0.2146
19172TIP3    H178931   3.152   0.841  11.362 -0.6172  2.1157  0.0499
19172TIP3    H278932   3.081   0.786  11.240  0.6354  0.9617 -0.1836
19173TIP3   OH278933   2.230   4.764  11.530 -0.2597 -0.1192  0.2582
19173TIP3    H178934   2.256   4.712  11.454  0.9648 -1.1549  1.3631
19173TIP3    H278935   2.205   4.699  11.595 -1.9962  0.7772  0.5205
19174TIP3   OH278936   0.289   6.208   4.839 -0.2792 -0.1436  0.6067
19174TIP3    H178937   0.344   6.160   4.777 -0.8659 -1.0326  0.7617
19174TIP3    H278938   0.343   6.219   4.917  0.1122  0.1020  0.3000
19175TIP3   OH278939   5.908   4.845   2.794  0.3666  0.3012  0.6065
19175TIP3    H178940   5.819   4.825   2.765  0.1128  2.6565 -0.4236
19175TIP3    H278941   5.965   4.796   2.735 -0.2354 -0.5664  0.7415
19176TIP3   OH278942   3.294   4.317   3.667 -0.2931 -0.2597  0.1116
19176TIP3    H178943   3.264   4.232   3.702 -0.8364  0.6033  1.8075
19176TIP3    H278944   3.377   4.332   3.711  0.3081 -0.3929 -0.9756
19177TIP3   OH278945   3.320   1.864   1.656 -0.5489 -0.3285 -0.5149
19177TIP3    H178946   3.226   1.846   1.662 -0.4417 -0.5636  0.5592
19177TIP3    H278947   3.329   1.919   1.579 -1.8109  1.1906  0.3938
19178TIP3   OH278948   3.764   3.250   2.618  0.1469 -0.1850  0.4832
19178TIP3    H178949   3.709   3.303   2.560 -0.3025  0.1548  1.2118
19178TIP3    H278950   3.837   3.309   2.641 -0.6577  0.3400  1.7643
19179TIP3   OH278951   5.006   3.113  12.922  0.1292 -0.1003 -0.4355
19179TIP3    H178952   5.033   3.027  12.955 -0.6979  0.3483  1.4853
19179TIP3    H278953   4.924   3.096  12.875  0.3543 -0.4640 -0.7026
19180TIP3   OH278954   5.084   0.604   0.296 -0.0373  0.4120  0.2975
19180TIP3    H178955   5.052   0.514   0.294  2.0578 -0.3625  0.3511
19180TIP3    H278956   5.098   0.627   0.204 -2.8137  1.5565  0.1049
19181TIP3   OH278957   1.183   1.900  16.937 -0.4411 -0.2088 -0.0745
19181TIP3    H178958   1.156   1.991  16.920 -0.1286  0.3100  2.0102
19181TIP3    H278959   1.119   1.868  17.001 -1.4641 -1.9817 -1.9575
19182TIP3   OH278960   6.285   1.384  15.950  0.1928 -0.2757  0.7054
19182TIP3    H178961   6.347   1.347  16.012 -0.9357  0.8515  2.5770
19182TIP3    H278962   6.232   1.445  16.003 -1.0580  0.4133 -1.2786
19183TIP3   OH278963   4.829   3.296  14.067  0.2504  0.2499  0.6994
19183TIP3    H178964   4.770   3.222  14.083  0.1085 -0.4773 -2.6688
19183TIP3    H278965   4.898   3.259  14.012 -1.1661  3.0972 -3.1828
19184TIP3   OH278966   3.843   6.169  13.047 -0.1375 -0.2469 -0.4806
19184TIP3    H178967   3.876   6.081  13.029  0.3314  0.2213 -1.9834
19184TIP3    H278968   3.916   6.213  13.090 -0.8812 -1.0281  1.6444
19185TIP3   OH278969   5.892   6.760  15.953  0.0230  0.2248  0.1942
19185TIP3    H178970   5.797   6.767  15.961 -0.0826  2.3774 -2.3233
19185TIP3    H278971   5.906   6.715  15.870  1.2184 -1.1684  1.1222
19186TIP3   OH278972   3.066   6.183  13.897 -0.6276  0.0076  0.0162
19186TIP3    H178973   3.130   6.254  13.907  2.5000 -2.3027 -2.5284
19186TIP3    H278974   3.005   6.215  13.831 -0.3859  1.0688  0.2916
19187TIP3   OH278975   2.358   3.974  10.547 -0.6856  0.4187  0.1279
19187TIP3    H178976   2.384   4.064  10.529 -0.9400  0.2118 -1.4075
19187TIP3    H278977   2.370   3.963  10.641  0.4105  1.7059  0.1509
19188TIP3   OH278978   1.748   4.734   1.313 -0.1589  0.1127  0.5980
19188TIP3    H178979   1.836   4.772   1.323 -0.8947  2.7355 -2.2093
19188TIP3    H278980   1.689   4.802   1.346 -1.3045 -0.1075 -0.9859
19189TIP3   OH278981   2.407   2.376  14.031  0.1876  0.0936  0.1121
19189TIP3    H178982   2.493   2.392  13.993  0.4455 -0.0462  0.6379
19189TIP3    H278983   2.419   2.299  14.086 -0.8440 -1.4160 -1.7179
19190TIP3   OH278984   5.408   2.580   5.769  0.5114 -0.7998  0.1631
19190TIP3    H178985   5.354   2.598   5.692 -2.4309  1.4662  2.6471
19190TIP3    H278986   5.355   2.521   5.822  0.7956  0.7696  2.2496
19191TIP3   OH278987   1.089   6.737  13.466 -0.0147 -0.2579 -0.7240
19191TIP3    H178988   1.014   6.697  13.509 -0.1406 -0.0725 -0.7731
19191TIP3    H278989   1.082   6.830  13.485 -0.1432 -0.1592 -1.2526
19192TIP3   OH278990   5.184   6.187  15.660  0.7325  0.2823 -0.0816
19192TIP3    H178991   5.202   6.203  15.567 -0.7127  1.4543 -0.1843
19192TIP3    H278992   5.137   6.104  15.661  2.5927 -0.8011 -0.1767
19193TIP3   OH278993   1.090   0.668  12.274  0.0861 -0.1230 -0.0334
19193TIP3    H178994   1.001   0.695  12.296 -0.4838 -0.0916 -2.2704
19193TIP3    H278995   1.102   0.584  12.319 -1.2624 -0.3989 -0.1833
19194TIP3   OH278996   5.438   2.012  12.555  0.2162  0.5951 -0.7100
19194TIP3    H178997   5.367   1.991  12.495  1.2419 -0.2905 -1.6353
19194TIP3    H278998   5.429   2.105  12.573 -0.7859  0.6161 -1.3187
19195TIP3   OH278999   0.303   5.319   5.496 -0.2383 -0.4597 -0.1798
19195TIP3    H179000   0.398   5.325   5.495 -0.2259 -0.6868 -0.8180
19195TIP3    H279001   0.285   5.225   5.500 -0.4320 -0.4838 -1.4218
19196TIP3   OH279002   0.130   6.206  17.228  0.1317 -0.5612  0.1710
19196TIP3    H179003   0.125   6.115  17.258 -0.2026 -0.8137 -0.6488
19196TIP3    H279004   0.056   6.216  17.168  0.3774  0.1527 -0.0174
19197TIP3   OH279005   5.726   2.728  12.410 -0.2022  0.1804  0.3236
19197TIP3    H179006   5.647   2.766  12.371 -0.0733 -0.9418 -1.1015
19197TIP3    H279007   5.713   2.736  12.504 -2.0433 -0.0287  0.1035
19198TIP3   OH279008   0.531   1.189  15.186  0.0830 -0.5136  0.3982
19198TIP3    H179009   0.574   1.124  15.129 -0.7252 -0.0241 -0.8000
19198TIP3    H279010   0.596   1.259  15.196  0.3533 -0.7553  0.3468
19199TIP3   OH279011   2.037   4.758  17.149  0.6821  0.3671  0.2954
19199TIP3    H179012   2.072   4.847  17.153  0.2272  0.5254  0.7754
19199TIP3    H279013   2.112   4.702  17.168  0.6368  0.7168  1.5322
19200TIP3   OH279014   3.130   5.637   4.523 -0.1362  0.1646  0.4365
19200TIP3    H179015   3.143   5.596   4.438 -1.7535 -0.8454  0.6753
19200TIP3    H279016   3.088   5.570   4.577 -1.4756  1.6403  1.2648
19201TIP3   OH279017   4.467   0.970   2.727 -0.4196 -0.2789  0.3661
19201TIP3    H179018   4.416   1.013   2.796 -1.7735 -1.2571 -0.0078
19201TIP3    H279019   4.439   0.879   2.730  2.2019 -1.1228  0.9358
19202TIP3   OH279020   3.271   3.246   1.627 -0.1404 -0.1123  0.4412
19202TIP3    H179021   3.335   3.316   1.616 -0.9267  0.4166 -0.8984
19202TIP3    H279022   3.218   3.274   1.701  0.1447  0.2599  0.5062
19203TIP3   OH279023   4.743   6.058  12.329 -0.0898 -0.8712 -0.4117
19203TIP3    H179024   4.660   6.045  12.283  0.5386 -0.5268 -1.6675
19203TIP3    H279025   4.736   6.004  12.407 -2.4413  0.9436  0.7083
19204TIP3   OH279026   2.398   4.895  15.016  0.1389  0.2993 -0.1877
19204TIP3    H179027   2.315   4.878  15.061  0.7975  0.6524  1.2063
19204TIP3    H279028   2.385   4.979  14.973 -0.8000 -0.4552 -1.4082
19205TIP3   OH279029   1.076   1.587  11.995  0.0159 -0.2275 -0.1687
19205TIP3    H179030   1.048   1.501  11.964 -0.6430 -0.0019 -0.1937
19205TIP3    H279031   1.048   1.591  12.086 -3.6365  1.5557 -1.2855
19206TIP3   OH279032   1.550   5.360   2.107 -0.1600  0.2842  0.3302
19206TIP3    H179033   1.460   5.331   2.118  0.5447 -0.9498  3.1879
19206TIP3    H279034   1.602   5.296   2.154  2.2506  0.8538 -1.4831
19207TIP3   OH279035   0.458   1.872  13.063  0.0243  0.0814 -0.1724
19207TIP3    H179036   0.489   1.814  13.132 -0.0274 -0.1488 -0.3405
19207TIP3    H279037   0.492   1.959  13.087  0.4406 -0.0912 -0.1340
19208TIP3   OH279038   1.419   4.232   0.498  0.4206 -0.2727 -0.2476
19208TIP3    H179039   1.362   4.291   0.547  1.0874  1.7753 -1.8969
19208TIP3    H279040   1.464   4.288   0.435  0.0313 -2.7507 -2.8223
19209TIP3   OH279041   1.624   4.185  16.354  0.2582  0.0134 -0.1327
19209TIP3    H179042   1.651   4.262  16.304  1.9474 -0.2934  0.2780
19209TIP3    H279043   1.646   4.111  16.297  0.8263 -0.2683  0.4576
19210TIP3   OH279044   2.154   6.063   2.848  0.5040 -0.1026  0.3233
19210TIP3    H179045   2.183   6.068   2.939  0.0814  1.2530  0.3882
19210TIP3    H279046   2.232   6.081   2.796  0.6073 -0.2434  0.4316
19211TIP3   OH279047   5.747   3.238  12.851 -0.1046 -0.2996  0.0926
19211TIP3    H179048   5.801   3.265  12.924  0.9476  0.4707 -0.9565
19211TIP3    H279049   5.658   3.237  12.886 -0.0907  3.6522  0.4584
19212TIP3   OH279050   5.955   0.595  17.031  0.4716  0.2633  0.3110
19212TIP3    H179051   5.992   0.522  16.983 -1.5150 -1.2208  0.9486
19212TIP3    H279052   5.973   0.672  16.977  0.5867 -1.0043 -1.4779
19213TIP3   OH279053   3.441   1.219   0.302  0.4222 -0.1450  0.6505
19213TIP3    H179054   3.476   1.222   0.213  0.8335 -0.1323  0.8109
19213TIP3    H279055   3.501   1.163   0.350 -0.7805 -1.5870  0.4982
19214TIP3   OH279056   1.470   4.339   1.439 -0.3292 -0.0773  0.1876
19214TIP3    H179057   1.533   4.402   1.402  2.6683 -3.4496 -0.7638
19214TIP3    H279058   1.401   4.334   1.373 -0.2654  1.7522 -0.0344
19215TIP3   OH279059   2.763   4.294   4.000 -0.4421 -0.1771 -0.1652
19215TIP3    H179060   2.800   4.358   4.061  1.7482 -1.7654  0.2844
19215TIP3    H279061   2.716   4.346   3.935  1.6204  1.9027 -0.0591
19216TIP3   OH279062   3.831   1.183  16.130  0.2646 -0.1493 -1.0287
19216TIP3    H179063   3.871   1.108  16.174  0.5165 -0.7699 -2.3104
19216TIP3    H279064   3.737   1.168  16.137  0.3274 -1.2590 -2.4313
19217TIP3   OH279065   2.135   2.085   6.198 -0.1435 -0.0750  0.3027
19217TIP3    H179066   2.133   2.175   6.230 -1.7189 -0.5381  1.5669
19217TIP3    H279067   2.128   2.031   6.277  0.5921 -1.2983 -0.4552
19218TIP3   OH279068   4.804   4.665  14.013 -0.6342  0.3436 -0.0127
19218TIP3    H179069   4.895   4.636  14.020 -0.9292 -0.7786 -0.6925
19218TIP3    H279070   4.776   4.636  13.926 -1.3689  1.4619 -0.1513
19219TIP3   OH279071   0.595   4.909   2.323  0.3384  0.2437  0.4803
19219TIP3    H179072   0.535   4.970   2.365  0.2331  1.1777 -0.9870
19219TIP3    H279073   0.573   4.913   2.230  1.2411 -1.0166  0.1843
19220TIP3   OH279074   6.621   2.726   0.545  0.3755 -0.0845 -0.0465
19220TIP3    H179075   6.622   2.759   0.455 -0.1899 -2.0993 -0.8181
19220TIP3    H279076   6.592   2.635   0.537  0.5054 -0.3471  2.1602
19221TIP3   OH279077   5.526   1.885  13.012  0.5790 -0.1185 -0.0846
19221TIP3    H179078   5.485   1.807  13.048  3.6305 -1.4193  0.7864
19221TIP3    H279079   5.454   1.936  12.974 -1.6227 -2.7078  0.5044
19222TIP3   OH279080   4.405   5.740   2.607 -0.3479 -0.0374  0.4590
19222TIP3    H179081   4.373   5.739   2.697 -2.0712  0.4719 -0.1401
19222TIP3    H279082   4.333   5.706   2.555  2.2339 -4.8355 -0.2668
19223TIP3   OH279083   1.842   1.117  17.126  0.1346  0.7332 -0.9670
19223TIP3    H179084   1.827   1.026  17.148 -1.4628  0.8705 -1.4525
19223TIP3    H279085   1.805   1.166  17.200  2.4147  0.9681  0.0651
19224TIP3   OH279086   3.153   0.537   4.748 -0.3493 -0.6650 -0.2238
19224TIP3    H179087   3.215   0.474   4.784  1.1834  1.6410  1.3599
19224TIP3    H279088   3.110   0.575   4.824 -0.1437  1.2487 -1.0267
19225TIP3   OH279089   0.048   0.040   0.639  0.0463 -0.9000  0.5127
19225TIP3    H179090  -0.007   0.048   0.560  0.0716 -0.1912  0.5603
19225TIP3    H279091   0.131   0.080   0.614  0.2195 -1.1104  0.7487
19226TIP3   OH279092   2.147   5.773  13.230  0.7623  0.8377 -0.2813
19226TIP3    H179093   2.144   5.750  13.323 -0.5179  1.6381 -0.1161
19226TIP3    H279094   2.092   5.851  13.223  1.3560  1.1466 -1.6090
19227TIP3   OH279095   4.334   1.243  14.247 -0.0792  0.1758  0.3051
19227TIP3    H179096   4.347   1.149  14.257 -0.8964  0.1732  1.4308
19227TIP3    H279097   4.382   1.282  14.320 -0.7421  0.5529  0.5502
19228TIP3   OH279098   1.052   1.337   0.477  0.5307 -0.2416 -0.3087
19228TIP3    H179099   1.091   1.262   0.433 -0.7129 -1.4549  0.6129
19228TIP3    H279100   1.100   1.345   0.559  0.3486 -0.3366 -0.1915
19229TIP3   OH279101   4.896   0.574  11.973  0.3036  0.6817  0.0068
19229TIP3    H179102   4.922   0.666  11.985  1.9840  0.4412 -1.6321
19229TIP3    H279103   4.878   0.543  12.062  0.2604  2.4419  0.6374
19230TIP3   OH279104   2.431   5.676   2.383  0.0951 -0.8447 -0.1462
19230TIP3    H179105   2.526   5.670   2.396 -0.0913  0.7336  2.3454
19230TIP3    H279106   2.421   5.708   2.294  1.9650 -0.2430 -0.1620
19231TIP3   OH279107   1.164   6.003  13.226  0.0040  0.0664  0.0512
19231TIP3    H179108   1.077   5.973  13.202  0.3017 -0.8234  0.0829
19231TIP3    H279109   1.181   5.965  13.312  1.0814 -1.1165 -0.6677
19232TIP3   OH279110   5.954   0.969   0.934 -0.1509 -0.1182 -0.0152
19232TIP3    H179111   5.979   0.927   0.852  1.6576 -0.9792  0.9542
19232TIP3    H279112   5.871   0.928   0.958 -0.8791  0.3946 -1.5643
19233TIP3   OH279113   0.277   3.209   2.213  0.0170  0.5743 -0.0414
19233TIP3    H179114   0.281   3.299   2.245 -1.3170  0.6087  0.0450
19233TIP3    H279115   0.213   3.166   2.270 -1.7082  0.3900 -2.0756
19234TIP3   OH279116   0.348   6.386  15.108 -0.4017  0.4565  0.0696
19234TIP3    H179117   0.275   6.435  15.070 -0.6029  1.8019  2.1143
19234TIP3    H279118   0.335   6.296  15.076 -2.2326  0.9333 -0.6147
19235TIP3   OH279119   4.500   3.803  13.271  0.1544  0.3068  0.1090
19235TIP3    H179120   4.523   3.753  13.193 -0.3813  1.7450 -0.9831
19235TIP3    H279121   4.459   3.883  13.238 -1.4332  0.2660  1.8922
19236TIP3   OH279122   1.830   1.787  11.371  0.1976  0.1835 -0.3947
19236TIP3    H179123   1.742   1.800  11.335 -1.0244 -0.1575  2.2893
19236TIP3    H279124   1.816   1.727  11.445  2.8377 -0.6094 -0.5025
19237TIP3   OH279125   1.431   5.836  11.769  0.9241 -0.5670  0.2206
19237TIP3    H179126   1.395   5.921  11.795  0.8693 -0.1295 -1.2265
19237TIP3    H279127   1.525   5.844  11.784  1.0178  0.0356 -0.6211
19238TIP3   OH279128   2.627   0.014  12.022 -0.0294  0.0690  0.0100
19238TIP3    H179129   2.554   0.041  11.966  1.0020 -0.5612 -1.7060
19238TIP3    H279130   2.705   0.047  11.977  1.0169 -2.7151 -0.3489
19239TIP3   OH279131   3.180   2.074   5.594  0.3877  0.6015 -0.2578
19239TIP3    H179132   3.127   2.135   5.645 -0.5262 -0.0943 -0.3624
19239TIP3    H279133   3.149   2.084   5.504 -1.3605 -1.6159  0.0423
19240TIP3   OH279134   4.459   5.360  15.835  0.5967 -0.6247  0.1993
19240TIP3    H179135   4.455   5.446  15.795 -2.2420  0.2731  2.2339
19240TIP3    H279136   4.437   5.299  15.764  0.3864  0.5096 -0.7178
19241TIP3   OH279137   4.412   0.010  12.255  0.1248 -0.3993  0.3072
19241TIP3    H179138   4.487   0.066  12.272 -0.7070  0.4853  1.1294
19241TIP3    H279139   4.340   0.051  12.304 -1.0143 -0.9138 -0.9038
19242TIP3   OH279140   4.119   4.238   5.330  0.0105 -0.6633  1.0249
19242TIP3    H179141   4.031   4.247   5.366 -1.2883 -2.9249 -1.4079
19242TIP3    H279142   4.149   4.328   5.315 -4.2067  0.2123 -3.3791
19243TIP3   OH279143   6.734   4.069  11.381 -0.4472  0.3962  0.3855
19243TIP3    H179144   6.657   4.113  11.345 -0.8284  0.0150  0.7240
19243TIP3    H279145   6.799   4.138  11.390 -0.7553  0.7268  0.1143
19244TIP3   OH279146   6.106   3.843   6.189 -0.1539  0.6065  0.0958
19244TIP3    H179147   6.031   3.897   6.215  0.7593  1.6146  0.6754
19244TIP3    H279148   6.176   3.869   6.249  0.4303 -0.9235  0.1011
19245TIP3   OH279149   1.585   6.118  14.795  0.0144 -0.7956 -0.1843
19245TIP3    H179150   1.611   6.164  14.716  1.8430 -0.1162  0.7738
19245TIP3    H279151   1.495   6.145  14.811  0.5852  1.3092 -0.4538
19246TIP3   OH279152   6.065   3.161  14.803  0.8692 -0.1633 -0.1299
19246TIP3    H179153   6.063   3.143  14.897 -1.9487 -1.6111 -0.4333
19246TIP3    H279154   6.125   3.095  14.767  1.1879 -0.2241  0.5080
19247TIP3   OH279155   0.076   5.089  15.161  0.4146  0.6990  0.0499
19247TIP3    H179156   0.070   5.006  15.208 -0.6198  0.8106  0.1204
19247TIP3    H279157   0.119   5.148  15.223  1.4399  0.1418 -0.1163
19248TIP3   OH279158   4.840   0.453  12.265  0.3933  0.0247  0.5363
19248TIP3    H179159   4.747   0.469  12.246  0.4506 -0.4044 -0.1561
19248TIP3    H279160   4.840   0.381  12.328  0.2609 -0.2371  0.2409
19249TIP3   OH279161   3.243   2.844   2.244  0.4713 -0.5661 -0.2650
19249TIP3    H179162   3.191   2.840   2.164  0.2256 -1.9653 -0.0549
19249TIP3    H279163   3.282   2.931   2.244 -2.9762  1.0714  0.2842
19250TIP3   OH279164   4.696   2.811  15.710  0.5728  0.3631 -0.2265
19250TIP3    H179165   4.767   2.794  15.772 -1.2437 -1.8753  1.3027
19250TIP3    H279166   4.689   2.906  15.707  2.2354  0.5560  1.2271
19251TIP3   OH279167   6.630   4.421  11.581  0.2561 -0.0651  0.4005
19251TIP3    H179168   6.664   4.510  11.576 -0.7740  0.4015  1.3582
19251TIP3    H279169   6.611   4.398  11.491  0.7210  0.6203  0.1231
19252TIP3   OH279170   0.573   0.758  12.967  0.0105 -0.1284 -0.3282
19252TIP3    H179171   0.605   0.701  12.896 -0.3114  0.0323 -0.6009
19252TIP3    H279172   0.647   0.816  12.986 -0.8310  1.6720 -2.4312
19253TIP3   OH279173   2.406   3.028   5.622  0.1606  1.0037 -0.4042
19253TIP3    H179174   2.312   3.025   5.641  0.1625  2.5865 -0.0431
19253TIP3    H279175   2.411   3.077   5.540  0.7639  2.3222  0.4069
19254TIP3   OH279176   3.745   2.792  10.748 -0.4521  0.2419  0.7278
19254TIP3    H179177   3.674   2.838  10.794 -0.9358  0.1899  0.0422
19254TIP3    H279178   3.810   2.859  10.730 -1.2040  0.6914 -0.3685
19255TIP3   OH279179   3.776   2.535  11.478 -0.2869 -0.4210 -0.0483
19255TIP3    H179180   3.762   2.581  11.560  0.0279 -2.3238  1.0928
19255TIP3    H279181   3.711   2.573  11.418 -1.0549  0.4100  1.2827
19256TIP3   OH279182   5.179   0.000  16.839 -0.0770  0.3505  0.3850
19256TIP3    H179183   5.266  -0.017  16.873 -0.3802  0.3000  1.1390
19256TIP3    H279184   5.162   0.092  16.861 -0.1374  0.4170  0.0679
19257TIP3   OH279185   0.702   5.981   2.884  0.6282 -0.6344  0.0027
19257TIP3    H179186   0.667   6.067   2.909  2.2979  0.4555 -1.2720
19257TIP3    H279187   0.776   5.966   2.943  0.2610 -1.2508  0.3080
19258TIP3   OH279188   3.573   3.675  14.049  0.0373 -0.6848 -0.3290
19258TIP3    H179189   3.657   3.718  14.031 -0.0607  0.0785  0.9773
19258TIP3    H279190   3.586   3.585  14.020  2.2374 -1.3024  2.3836
19259TIP3   OH279191   0.751   6.469  10.516  0.1176 -0.6919  0.3596
19259TIP3    H179192   0.711   6.494  10.432  0.3905  1.3795  0.8150
19259TIP3    H279193   0.831   6.423  10.491  0.4167  0.2824 -0.5414
19260TIP3   OH279194   5.184   4.509  11.967 -0.2246  0.7330 -0.5360
19260TIP3    H179195   5.233   4.427  11.964 -1.1918  0.0872  1.0046
19260TIP3    H279196   5.251   4.576  11.987  0.1859 -0.0065  0.6035
19261TIP3   OH279197   6.379   6.619   0.249 -0.1662  0.5513 -0.3215
19261TIP3    H179198   6.355   6.547   0.190  0.9128  0.3466 -0.5173
19261TIP3    H279199   6.318   6.689   0.228  0.3955  0.5846 -1.8882
19262TIP3   OH279200   2.599   1.946   2.012 -0.0009 -0.4381 -0.5021
19262TIP3    H179201   2.534   1.976   1.950  1.0882 -1.6305 -2.2518
19262TIP3    H279202   2.676   1.999   1.994 -0.1403  0.2537  0.8610
19263TIP3   OH279203   3.140   2.216  14.048 -0.0876  0.1829  0.5622
19263TIP3    H179204   3.194   2.139  14.029 -0.6333 -0.1677  0.4176
19263TIP3    H279205   3.135   2.218  14.144  0.0820  0.1482  0.5731
19264TIP3   OH279206   1.486   0.364   5.186 -0.0231 -0.1437  0.5020
19264TIP3    H179207   1.474   0.422   5.111 -0.9471 -0.2035  0.5991
19264TIP3    H279208   1.437   0.285   5.164  1.1898 -0.8745  0.3960
19265TIP3   OH279209   2.078   5.552   6.269  1.1286  0.3950  0.0055
19265TIP3    H179210   2.107   5.559   6.178 -0.6133  2.4355 -0.4360
19265TIP3    H279211   1.986   5.525   6.263  1.3306 -0.5853  1.2005
19266TIP3   OH279212   2.194   3.161   4.662  0.2376  0.3925  0.6124
19266TIP3    H179213   2.206   3.144   4.755 -0.7386  1.7712  1.0061
19266TIP3    H279214   2.101   3.142   4.646  0.5012 -0.2601 -0.1798
19267TIP3   OH279215   4.442   2.634  12.932  0.1042  0.2230 -0.0082
19267TIP3    H179216   4.453   2.576  12.856  1.1261  2.4024 -1.5762
19267TIP3    H279217   4.452   2.576  13.008 -1.4245 -2.0956 -1.5121
19268TIP3   OH279218   5.659   0.168   2.437 -0.3155  0.3857 -0.1927
19268TIP3    H179219   5.611   0.170   2.354  0.4396 -0.5546 -0.6604
19268TIP3    H279220   5.597   0.130   2.499 -0.6883  0.5613 -0.4551
19269TIP3   OH279221   3.169   2.096  12.195 -0.0468 -0.3983 -0.0641
19269TIP3    H179222   3.183   2.086  12.101 -0.3733 -1.0705 -0.0489
19269TIP3    H279223   3.097   2.159  12.202 -0.0564 -0.3870 -0.2620
19270TIP3   OH279224   4.334   4.585   3.851 -0.1491  0.2906 -0.3600
19270TIP3    H179225   4.321   4.549   3.939 -0.6150 -0.3459 -0.6891
19270TIP3    H279226   4.339   4.679   3.864  0.1730  0.1716  0.3979
19271TIP3   OH279227   1.439   1.729   0.212  0.8855  0.1487  0.4095
19271TIP3    H179228   1.351   1.693   0.202  1.0847  0.2905 -2.0818
19271TIP3    H279229   1.440   1.762   0.302 -1.5714  0.0715  0.5205
19272TIP3   OH279230   4.471   5.720  12.535  0.3239 -0.6115  0.0617
19272TIP3    H179231   4.432   5.680  12.457  3.0376 -1.2591 -1.0424
19272TIP3    H279232   4.444   5.664  12.607 -0.2269 -1.4210 -0.7591
19273TIP3   OH279233   5.702   3.323  12.440 -0.0954 -0.4384  0.0978
19273TIP3    H179234   5.640   3.346  12.371  0.9693  1.4757 -0.2638
19273TIP3    H279235   5.763   3.262  12.398 -1.3717 -1.8639  0.2939
19274TIP3   OH279236   1.469   5.615  13.621  0.2494  0.2900  0.0170
19274TIP3    H179237   1.453   5.617  13.527  2.0552 -0.7404 -0.3215
19274TIP3    H279238   1.382   5.604  13.660 -0.2507 -2.0081 -1.6448
19275TIP3   OH279239   6.384   3.545  14.361 -0.2501  0.0730 -0.2333
19275TIP3    H179240   6.328   3.593  14.423  2.7173  0.8635  1.9932
19275TIP3    H279241   6.366   3.453  14.379 -1.3136  0.3214 -0.0046
19276TIP3   OH279242   6.487   6.227  16.428  0.5085  0.2608 -0.6595
19276TIP3    H179243   6.571   6.221  16.474 -0.8016  0.4750  1.8208
19276TIP3    H279244   6.421   6.217  16.496 -1.5127 -1.7494 -2.8333
19277TIP3   OH279245   4.785   1.283  10.979 -0.0277  0.0254  0.2331
19277TIP3    H179246   4.859   1.333  11.012  0.7570  0.3433 -1.9191
19277TIP3    H279247   4.708   1.331  11.009  0.6939  1.8705 -0.7702
19278TIP3   OH279248   1.269   5.966  13.678 -0.3041 -0.2581 -0.0603
19278TIP3    H179249   1.174   5.975  13.666 -0.3243  0.8380  0.9080
19278TIP3    H279250   1.297   5.914  13.602 -1.6740 -0.6214 -0.3458
19279TIP3   OH279251   3.019   1.910   4.028 -0.1723 -0.3100  0.2268
19279TIP3    H179252   3.026   1.815   4.037 -0.8704 -0.1859  2.1799
19279TIP3    H279253   2.929   1.929   4.053  0.3052  0.9950  0.9585
19280TIP3   OH279254   0.195   1.288   5.521  0.1332 -0.0328  0.0516
19280TIP3    H179255   0.106   1.269   5.491 -0.9100  0.3654  2.7438
19280TIP3    H279256   0.204   1.383   5.510  0.5595 -0.1914 -1.0321
19281TIP3   OH279257   5.013   1.347  14.979  0.0453 -0.4892 -0.2133
19281TIP3    H179258   5.029   1.281  15.046 -1.4903  1.3489  2.0512
19281TIP3    H279259   5.090   1.404  14.983  0.1486 -0.6245 -0.2933
19282TIP3   OH279260   1.568   4.581   1.613  0.2079  0.5266  0.0422
19282TIP3    H179261   1.520   4.649   1.662  0.7554  0.2215  1.0098
19282TIP3    H279262   1.511   4.505   1.617  0.0537  0.6293 -0.1756
19283TIP3   OH279263   2.860   5.857   4.527 -0.5051  0.4371 -0.4041
19283TIP3    H179264   2.886   5.938   4.482 -2.2205  2.0775  1.4783
19283TIP3    H279265   2.851   5.793   4.457  0.6470  1.9323 -1.9666
19284TIP3   OH279266   2.071   1.722   4.192 -0.0460 -0.1307  0.4621
19284TIP3    H179267   2.152   1.698   4.146  0.5725  0.3151  1.3181
19284TIP3    H279268   2.016   1.644   4.185  0.0940 -0.1298 -0.9013
19285TIP3   OH279269   4.623   4.922   3.679  0.0480  0.3453 -0.6253
19285TIP3    H179270   4.695   4.877   3.634 -0.2703  0.3832 -1.1669
19285TIP3    H279271   4.666   4.992   3.728  0.2388  1.1505 -1.9410
19286TIP3   OH279272   4.272   5.248   2.199  0.6412  0.1790 -0.2988
19286TIP3    H179273   4.362   5.217   2.212  1.5352  1.9185 -2.1449
19286TIP3    H279274   4.282   5.336   2.165 -1.8027  0.5290 -0.1747
19287TIP3   OH279275   0.740   2.318  16.436  0.0156  0.1945  0.2269
19287TIP3    H179276   0.790   2.248  16.477  1.2857  0.8631 -0.1609
19287TIP3    H279277   0.714   2.375  16.508 -0.2190 -0.1676  0.4296
19288TIP3   OH279278   0.455   2.689   3.995 -0.7840  0.0115 -0.3792
19288TIP3    H179279   0.457   2.602   3.956  0.8196  0.4879 -1.4454
19288TIP3    H279280   0.365   2.701   4.023 -1.4688 -1.2393 -1.9702
19289TIP3   OH279281   6.463   1.302  15.553  0.6225  0.1805 -0.1887
19289TIP3    H179282   6.407   1.319  15.477  0.7056 -0.4177 -0.3833
19289TIP3    H279283   6.427   1.358  15.622  0.0631  0.1369 -0.4448
19290TIP3   OH279284   2.760   0.896   0.687  0.1467  0.2087 -1.0622
19290TIP3    H179285   2.691   0.853   0.738  1.8279 -0.1959  0.9106
19290TIP3    H279286   2.816   0.825   0.657  0.5156  0.6631 -1.4616
19291TIP3   OH279287   6.303   6.128  10.175  0.2482 -0.2152 -0.0939
19291TIP3    H179288   6.361   6.052  10.162  0.0148 -0.0560 -2.1386
19291TIP3    H279289   6.354   6.203  10.146 -0.7033  0.0187 -1.1840
19292TIP3   OH279290   3.395   3.620   2.327 -0.3758  0.7131 -0.0873
19292TIP3    H179291   3.442   3.581   2.252 -0.0235  1.9851 -0.5537
19292TIP3    H279292   3.457   3.684   2.362  0.2771 -1.2630  2.5937
19293TIP3   OH279293   3.141   2.884   1.958 -0.1291 -0.6016  0.1774
19293TIP3    H179294   3.080   2.880   1.884  0.1027 -0.6670 -0.0107
19293TIP3    H279295   3.139   2.976   1.985 -0.3985 -0.6258  0.2467
19294TIP3   OH279296   1.274   3.032  14.743 -0.1547 -0.2810  0.1698
19294TIP3    H179297   1.258   3.029  14.649  0.4318 -1.0186  0.0955
19294TIP3    H279298   1.352   2.979  14.756  0.1063  0.2920  1.0016
19295TIP3   OH279299   1.854   5.240   4.815 -0.7186 -0.0514  0.2675
19295TIP3    H179300   1.853   5.166   4.756 -2.0410  1.2840 -1.4100
19295TIP3    H279301   1.764   5.250   4.844 -0.3883  0.3498  1.1873
19296TIP3   OH279302   2.670   2.756  16.568  0.4794 -0.0181  0.6535
19296TIP3    H179303   2.673   2.851  16.553 -3.6852  0.3510  1.4387
19296TIP3    H279304   2.705   2.745  16.656  3.2205  0.4713 -0.3273
19297TIP3   OH279305   5.391   0.397   4.816  0.4910 -0.3974  0.1199
19297TIP3    H179306   5.425   0.312   4.787 -0.3397 -0.6678 -0.0617
19297TIP3    H279307   5.404   0.397   4.910  1.4200 -0.3101 -0.0018
19298TIP3   OH279308   1.037   2.142  15.465 -0.8846  0.6400  0.0265
19298TIP3    H179309   0.950   2.129  15.502 -0.4478 -0.7155  0.6473
19298TIP3    H279310   1.094   2.087  15.520  0.3856  1.6990 -0.2124
19299TIP3   OH279311   0.369   1.562   3.648 -0.4492  0.1889 -0.5535
19299TIP3    H179312   0.342   1.534   3.735  0.4434  0.5033 -0.1719
19299TIP3    H279313   0.345   1.488   3.591 -2.6368  0.7105 -0.3341
19300TIP3   OH279314   1.827   3.449  15.281 -0.0037  0.0520  0.0703
19300TIP3    H179315   1.770   3.444  15.357  0.7473 -0.9911  0.5805
19300TIP3    H279316   1.837   3.543  15.265 -1.6155  0.2459  0.1444
19301TIP3   OH279317   0.858   6.764  13.868  0.1247 -0.0463 -0.6957
19301TIP3    H179318   0.800   6.839  13.855  1.0815  1.2159  1.9092
19301TIP3    H279319   0.942   6.792  13.832 -0.5616 -1.5436 -3.6546
19302TIP3   OH279320   0.967   5.257   3.535 -0.9882 -0.6995 -0.1434
19302TIP3    H179321   0.965   5.349   3.510 -0.1332 -0.7299 -0.3431
19302TIP3    H279322   0.878   5.226   3.520 -0.7970 -0.4037 -1.9503
19303TIP3   OH279323   1.272   6.724   0.601  0.3310 -0.2045 -0.3564
19303TIP3    H179324   1.217   6.802   0.598 -1.2001 -1.2452  0.0196
19303TIP3    H279325   1.232   6.664   0.537 -0.1034 -1.6808  1.2593
19304TIP3   OH279326   5.113   2.866   0.899  0.0970 -0.0096  0.8631
19304TIP3    H179327   5.090   2.942   0.953  1.1968  0.8259  0.1832
19304TIP3    H279328   5.185   2.897   0.844 -0.8655 -0.9157 -0.9430
19305TIP3   OH279329   3.616   4.164  13.704  0.0668 -0.2123 -0.3072
19305TIP3    H179330   3.601   4.255  13.731  2.4202  0.0788  0.1153
19305TIP3    H279331   3.586   4.112  13.779  2.4596  0.4075  1.1206
19306TIP3   OH279332   1.567   5.828   5.773  0.4587 -0.2190 -0.3819
19306TIP3    H179333   1.486   5.801   5.730  1.4628 -1.6393 -1.4127
19306TIP3    H279334   1.624   5.751   5.767  1.7277  0.6166  0.7289
19307TIP3   OH279335   6.179   4.876  10.616 -0.8627 -0.0113 -0.4335
19307TIP3    H179336   6.112   4.841  10.558 -1.2168 -1.2447  0.7067
19307TIP3    H279337   6.221   4.799  10.653 -1.5401  0.7488  1.9876
19308TIP3   OH279338   6.177   3.483   0.571  0.1821  0.1156  0.8128
19308TIP3    H179339   6.134   3.407   0.611 -1.4929  1.6146  1.9194
19308TIP3    H279340   6.251   3.502   0.628  0.9293 -0.9817  0.2385
19309TIP3   OH279341   0.463   3.571   0.032  0.3455  0.4134 -0.8015
19309TIP3    H179342   0.474   3.482   0.067 -1.3088  0.2988 -0.5330
19309TIP3    H279343   0.386   3.566  -0.024  0.8740  1.4468 -1.6414
19310TIP3   OH279344   2.667   2.791  12.710  0.7646  0.4080  0.4453
19310TIP3    H179345   2.755   2.827  12.713  1.2174 -0.6514  0.0551
19310TIP3    H279346   2.677   2.701  12.739 -0.2123  0.3234  0.5265
19311TIP3   OH279347   1.234   3.012  16.360 -0.2167 -0.1939 -0.2339
19311TIP3    H179348   1.193   3.098  16.352  0.1742 -0.1438 -2.0940
19311TIP3    H279349   1.184   2.956  16.300 -0.2283 -1.1693  0.6776
19312TIP3   OH279350   3.402   0.660  14.841  0.2350  0.2130 -0.6385
19312TIP3    H179351   3.460   0.678  14.768  1.1823  1.1197  0.3158
19312TIP3    H279352   3.448   0.593  14.892  0.2255  0.5754 -0.1459
19313TIP3   OH279353   1.912   4.310   4.960  0.2719  0.0122  0.0816
19313TIP3    H179354   1.961   4.228   4.968  1.0877  0.5037  0.2152
19313TIP3    H279355   1.830   4.294   5.007 -0.9950 -1.7905 -2.6211
19314TIP3   OH279356   5.603   3.482   3.416 -0.1802  0.1576  0.6376
19314TIP3    H179357   5.509   3.467   3.430  0.0075 -1.6473  0.0856
19314TIP3    H279358   5.607   3.528   3.333 -0.3992 -3.2906 -1.3860
19315TIP3   OH279359   6.291   2.608  10.695 -0.0775  0.4194  0.1009
19315TIP3    H179360   6.223   2.613  10.628 -0.7720  0.9457  0.8260
19315TIP3    H279361   6.252   2.652  10.771  1.4134  1.5122  0.2461
19316TIP3   OH279362   4.570   5.950  14.209 -1.1678  0.4448 -0.4014
19316TIP3    H179363   4.621   5.978  14.284 -1.1230  0.3768 -0.4061
19316TIP3    H279364   4.601   5.862  14.190  0.3132  1.2361 -1.7942
19317TIP3   OH279365   3.182   5.679   3.401  0.2654 -0.3497  0.0754
19317TIP3    H179366   3.265   5.642   3.431 -0.0754 -1.5860 -0.4848
19317TIP3    H279367   3.203   5.723   3.318  0.5729  0.3133  0.4992
19318TIP3   OH279368   1.981   0.496  16.710 -0.2340  0.5996 -0.6503
19318TIP3    H179369   2.037   0.571  16.733 -0.1980  0.2902  0.2975
19318TIP3    H279370   1.898   0.513  16.756 -0.2820  0.1366 -0.5626
19319TIP3   OH279371   2.913   0.883  10.571  0.3388  0.0651  0.5201
19319TIP3    H179372   2.952   0.803  10.535 -0.9817 -0.8497  1.0662
19319TIP3    H279373   2.986   0.930  10.609  1.1963 -0.7231 -0.1168
19320TIP3   OH279374   3.431   1.046  16.461  0.1895 -0.3663  0.1878
19320TIP3    H179375   3.515   1.092  16.454  1.2677 -2.3095  0.1304
19320TIP3    H279376   3.393   1.052  16.373  1.5315 -1.8266 -0.5112
19321TIP3   OH279377   5.959   5.921   3.958  0.3733  0.0042 -0.2478
19321TIP3    H179378   5.914   5.937   3.875 -0.7437 -1.6139  0.0240
19321TIP3    H279379   5.904   5.961   4.024  0.1632 -0.5507 -0.0821
19322TIP3   OH279380   0.852   1.619   3.908  0.3651  0.2843  0.1366
19322TIP3    H179381   0.776   1.589   3.958 -0.2262  1.9616  0.2711
19322TIP3    H279382   0.919   1.553   3.926 -1.8730 -2.8084 -2.2602
19323TIP3   OH279383   5.196   6.761   3.031 -0.1690  0.0987  0.0947
19323TIP3    H179384   5.212   6.667   3.022 -0.2000  0.0435  0.5974
19323TIP3    H279385   5.273   6.794   3.077  0.0526  0.3964 -0.4843
19324TIP3   OH279386   5.233   3.881  14.960  0.3193 -0.1895  0.5050
19324TIP3    H179387   5.276   3.869  14.875 -0.7883 -0.3402 -0.0361
19324TIP3    H279388   5.188   3.798  14.976 -0.6767  0.3664  0.5655
19325TIP3   OH279389   0.194   3.196  15.185  0.3966 -0.0902  0.2606
19325TIP3    H179390   0.187   3.290  15.168  1.5853 -0.3739 -1.8600
19325TIP3    H279391   0.248   3.190  15.264  2.1551  0.9511 -0.8395
19326TIP3   OH279392   6.389   0.979  16.127  0.5376  0.1015 -0.2928
19326TIP3    H179393   6.416   0.915  16.061  0.8071  1.2708 -1.3408
19326TIP3    H279394   6.410   0.938  16.211  0.5341 -1.2537 -0.9416
19327TIP3   OH279395   3.047   6.095  11.218 -0.4523 -0.0811 -0.3426
19327TIP3    H179396   3.059   6.057  11.131 -0.5192  1.2408 -0.9468
19327TIP3    H279397   2.954   6.085  11.236 -0.5744  0.2824 -0.7455
19328TIP3   OH279398   6.706   4.957  13.207  0.1071  0.0011 -0.6705
19328TIP3    H179399   6.712   5.042  13.165  0.6739  0.0119 -0.5785
19328TIP3    H279400   6.648   4.906  13.151 -0.3357  0.4911 -0.6544
19329TIP3   OH279401   2.836   3.110  13.203  0.3314  0.2847 -0.1014
19329TIP3    H179402   2.889   3.181  13.167  0.8245  0.0911  0.2251
19329TIP3    H279403   2.780   3.081  13.131  0.0473  1.0822 -0.1997
19330TIP3   OH279404   2.965   5.850  16.108 -0.2062  0.4441  0.3013
19330TIP3    H179405   2.934   5.760  16.093  0.3468  0.2518  0.3237
19330TIP3    H279406   2.892   5.893  16.153 -1.0325  0.4080 -0.9548
19331TIP3   OH279407   0.191   4.662   1.988  0.4699 -0.4705  0.5321
19331TIP3    H179408   0.160   4.743   1.946 -0.9594 -2.2313 -2.0054
19331TIP3    H279409   0.255   4.627   1.926  0.4004 -1.7169  1.1565
19332TIP3   OH279410   3.200   5.514   3.104  0.6153  0.2169 -0.7501
19332TIP3    H179411   3.240   5.600   3.120  0.4530  0.1615 -0.0450
19332TIP3    H279412   3.266   5.451   3.130  0.1387  0.1263  0.2712
19333TIP3   OH279413   4.151   0.718   5.295  0.4965 -0.0113 -1.3250
19333TIP3    H179414   4.146   0.622   5.291 -1.3899  0.1211 -2.7961
19333TIP3    H279415   4.197   0.742   5.214  0.3338  0.3637 -1.3049
19334TIP3   OH279416   2.635   1.377   5.754  0.7913  0.1260 -0.7553
19334TIP3    H179417   2.639   1.317   5.679 -0.5904  0.1811 -0.8898
19334TIP3    H279418   2.718   1.424   5.752  0.9228 -0.1445 -2.0275
19335TIP3   OH279419   2.591   5.220  11.632 -0.0270  0.7764 -0.7414
19335TIP3    H179420   2.571   5.251  11.544  0.0082  2.5881 -0.1242
19335TIP3    H279421   2.540   5.277  11.690 -0.6467 -0.8766  0.4014
19336TIP3   OH279422   6.477   1.256   0.030  0.0408 -0.3956  0.0130
19336TIP3    H179423   6.516   1.331  -0.016 -0.9291  0.1219  0.0157
19336TIP3    H279424   6.533   1.244   0.107  1.0296 -0.5700 -0.7262
19337TIP3   OH279425   0.030   1.902  12.000 -0.0971 -0.3555  0.4242
19337TIP3    H179426   0.027   1.877  12.092 -0.4663  0.2097  0.5664
19337TIP3    H279427   0.069   1.826  11.956 -0.8490 -1.0379  0.9103
19338TIP3   OH279428   1.432   0.340   5.791 -0.0417 -0.5420 -0.8036
19338TIP3    H179429   1.459   0.333   5.882  0.5165 -0.5600 -0.9694
19338TIP3    H279430   1.369   0.413   5.790 -1.1750 -1.4904 -0.1530
19339TIP3   OH279431   5.714   3.660  16.217  0.0413 -0.6401  0.1852
19339TIP3    H179432   5.779   3.713  16.172 -0.1536 -0.9271 -0.4332
19339TIP3    H279433   5.751   3.571  16.216 -0.8064 -0.9840 -1.0285
19340TIP3   OH279434   3.891   6.413   3.212 -0.2328 -0.1986  0.2060
19340TIP3    H179435   3.967   6.466   3.235 -0.3516 -0.4966  1.3212
19340TIP3    H279436   3.883   6.422   3.117  0.4061  0.8892  0.2442
19341TIP3   OH279437   0.293   1.915  15.988 -0.3182 -0.1652 -0.0452
19341TIP3    H179438   0.377   1.944  16.025 -1.5426  2.4096  0.8306
19341TIP3    H279439   0.237   1.903  16.064 -2.3240  3.3977 -0.8320
19342TIP3   OH279440   1.797   4.572   4.844 -1.2116  0.5378 -0.1891
19342TIP3    H179441   1.724   4.511   4.829 -1.9195  1.3696 -0.1729
19342TIP3    H279442   1.857   4.524   4.901 -1.6087 -0.2630 -0.4362
19343TIP3   OH279443   0.374   5.627  16.153  0.1487 -0.5950  0.0988
19343TIP3    H179444   0.443   5.625  16.219 -0.9891  1.2835  1.4098
19343TIP3    H279445   0.338   5.538  16.153  0.6880 -0.8257  1.4587
19344TIP3   OH279446   3.281   3.072   5.898  0.1436  0.1700  0.0611
19344TIP3    H179447   3.194   3.031   5.896  0.0729  0.2440  1.5902
19344TIP3    H279448   3.264   3.164   5.878  0.1319 -0.2048 -1.8179
19345TIP3   OH279449   1.796   3.066  14.723  0.0501 -0.1011 -0.3949
19345TIP3    H179450   1.774   3.159  14.727 -0.5700 -0.2298 -0.7972
19345TIP3    H279451   1.712   3.022  14.714  0.5210 -0.5329 -2.9397
19346TIP3   OH279452   6.472   4.726  12.191 -0.7769  0.9896 -0.7409
19346TIP3    H179453   6.474   4.641  12.236  1.1743  2.1895  1.5622
19346TIP3    H279454   6.474   4.704  12.098  1.2284 -1.4855 -0.1740
19347TIP3   OH279455   4.768   0.175  12.861 -0.0880 -0.3929  0.3523
19347TIP3    H179456   4.780   0.252  12.805  1.7407 -0.1657  1.0320
19347TIP3    H279457   4.697   0.126  12.819 -2.1378  2.2636  0.5686
19348TIP3   OH279458   3.398   5.613  16.355  0.7289 -0.5353 -0.2388
19348TIP3    H179459   3.442   5.576  16.279  0.6163 -0.7274 -0.2102
19348TIP3    H279460   3.342   5.682  16.320 -0.4682 -1.6194 -0.5098
19349TIP3   OH279461   2.527   5.934  11.174 -0.1369  0.0173 -0.5358
19349TIP3    H179462   2.480   5.893  11.102 -0.1354 -0.8335 -0.0578
19349TIP3    H279463   2.465   5.995  11.212 -0.5009 -0.3291 -0.5722
19350TIP3   OH279464   3.780   2.274   2.381 -0.2437 -0.0156  0.3181
19350TIP3    H179465   3.864   2.280   2.334  0.5338 -0.3974  1.6251
19350TIP3    H279466   3.714   2.289   2.314  0.8291 -0.9533 -0.9769
19351TIP3   OH279467   0.547   1.672   4.838 -0.7958 -0.2122  0.1859
19351TIP3    H179468   0.596   1.691   4.758  2.3265 -1.8697  1.6155
19351TIP3    H279469   0.590   1.725   4.906 -0.8585 -1.7964  1.4982
19352TIP3   OH279470   4.952   2.278  13.939  0.5258  0.1016 -0.3476
19352TIP3    H179471   5.015   2.236  13.998  0.7894  0.3385 -0.4592
19352TIP3    H279472   4.870   2.279  13.989  0.5342 -0.4694 -0.3127
19353TIP3   OH279473   2.289   5.385  16.726  0.2688  0.0187  0.0846
19353TIP3    H179474   2.284   5.468  16.773  1.8167 -0.4192  1.0646
19353TIP3    H279475   2.200   5.369  16.695 -0.3762  1.2418  1.2775
19354TIP3   OH279476   6.226   2.176   0.519 -0.5050  0.2351  0.4802
19354TIP3    H179477   6.179   2.259   0.510 -0.3017  0.2002 -1.1309
19354TIP3    H279478   6.281   2.172   0.441  1.3619 -0.2329  1.7927
19355TIP3   OH279479   3.919   1.136   1.256  0.2143  0.3043  0.3883
19355TIP3    H179480   3.976   1.073   1.300  0.7273  0.9258  0.6152
19355TIP3    H279481   3.894   1.092   1.174  0.0347 -0.4614  0.8532
19356TIP3   OH279482   2.003   1.818   0.900 -0.0317 -0.6739 -0.4955
19356TIP3    H179483   2.016   1.801   0.806  1.7094 -1.8646 -0.0740
19356TIP3    H279484   1.949   1.897   0.903  0.9896  0.1374 -2.4935
19357TIP3   OH279485   6.724   0.596  15.923 -0.1280 -0.1485 -0.3421
19357TIP3    H179486   6.731   0.501  15.929  0.0097 -0.0891  0.4940
19357TIP3    H279487   6.722   0.626  16.014 -1.6918  0.5354 -0.5731
19358TIP3   OH279488   3.430   5.448   0.738  0.1249 -0.6787 -0.3109
19358TIP3    H179489   3.411   5.436   0.645  0.2307 -2.8637 -0.0927
19358TIP3    H279490   3.365   5.394   0.784  1.7797 -1.8752  0.7353
19359TIP3   OH279491   2.696   6.068  16.143 -0.4252  0.2103  0.4663
19359TIP3    H179492   2.629   6.134  16.128  0.9480  1.6015  0.3759
19359TIP3    H279493   2.772   6.098  16.094  0.2108 -1.4607  0.3765
19360TIP3   OH279494   2.393   3.245   5.830 -0.8021 -0.0048 -0.3747
19360TIP3    H179495   2.347   3.165   5.802 -1.4554  0.5236 -0.8322
19360TIP3    H279496   2.375   3.250   5.924 -3.7292  1.4666 -0.9423
19361TIP3   OH279497   3.081   4.705   1.794  0.3659 -0.6863 -0.1287
19361TIP3    H179498   3.063   4.619   1.755  0.6999 -0.7103 -0.2313
19361TIP3    H279499   3.085   4.688   1.888  1.4529 -0.9696 -0.2193
19362TIP3   OH279500   4.054   0.865   1.870 -0.2882 -0.3479 -0.1304
19362TIP3    H179501   3.964   0.843   1.894  0.3279 -1.8876  0.8495
19362TIP3    H279502   4.050   0.956   1.841 -2.6311 -1.1866 -2.6654
19363TIP3   OH279503   2.481   5.660   5.028  0.3946  0.4014 -0.2830
19363TIP3    H179504   2.510   5.630   4.941  1.3052 -1.3066  0.5977
19363TIP3    H279505   2.407   5.604   5.049  0.8426  0.1112  0.5123
19364TIP3   OH279506   5.349   3.823   0.701 -0.3812 -0.5811 -0.0204
19364TIP3    H179507   5.435   3.792   0.675 -0.6954 -0.8350 -0.7531
19364TIP3    H279508   5.364   3.913   0.731  0.3629 -1.0898  1.1876
19365TIP3   OH279509   5.247   5.669  11.598  0.0721  0.1006  0.1359
19365TIP3    H179510   5.298   5.693  11.675 -1.9210  0.0290  1.4941
19365TIP3    H279511   5.217   5.580  11.616  0.1563 -0.1750 -1.0317
19366TIP3   OH279512   1.496   2.349  15.018 -0.6181  0.0930  0.1557
19366TIP3    H179513   1.527   2.266  15.056 -0.0961  0.3396  0.2615
19366TIP3    H279514   1.575   2.393  14.989 -1.0563 -0.3298 -1.7321
19367TIP3   OH279515   1.927   4.902  16.527  0.0688  0.1504 -0.1116
19367TIP3    H179516   1.950   4.989  16.493 -0.0642  1.8269  3.8322
19367TIP3    H279517   2.010   4.864  16.554 -0.2286  0.3787  1.1288
19368TIP3   OH279518   5.692   3.930   3.754  0.3300 -0.2121 -0.2667
19368TIP3    H179519   5.726   3.916   3.666  1.0743  2.6351 -0.4808
19368TIP3    H279520   5.597   3.922   3.746  0.3249  1.1047 -1.5472
19369TIP3   OH279521   5.870   0.801   2.492  0.6157  0.5989 -0.1846
19369TIP3    H179522   5.814   0.762   2.425 -1.6699  2.0400  0.8071
19369TIP3    H279523   5.879   0.732   2.559  2.5052 -0.6664 -1.6845
19370TIP3   OH279524   4.107   3.468   5.697  0.1845 -0.4204 -0.3152
19370TIP3    H179525   4.070   3.486   5.783 -1.3294  1.7445 -1.3821
19370TIP3    H279526   4.040   3.418   5.652  0.4873 -0.5268 -0.6491
19371TIP3   OH279527   5.212   5.096   5.174 -0.3116  0.4519  0.4575
19371TIP3    H179528   5.223   5.111   5.081 -1.1034  0.2209  0.3260
19371TIP3    H279529   5.250   5.010   5.190  1.1758  1.1284  0.6163
19372TIP3   OH279530   3.672   1.646  12.959  0.3933  0.0521  0.0337
19372TIP3    H179531   3.671   1.649  12.864 -1.1488 -0.0708  0.0330
19372TIP3    H279532   3.700   1.557  12.981 -2.5787 -1.0218 -0.3519
19373TIP3   OH279533   0.100   6.297  13.297 -0.2036 -0.8136 -0.2271
19373TIP3    H179534   0.191   6.308  13.268 -0.0130 -1.0405  0.2764
19373TIP3    H279535   0.062   6.384  13.289  0.2901 -0.5356  0.3214
19374TIP3   OH279536   3.001   2.049  11.157 -0.4113  0.1083 -0.0331
19374TIP3    H179537   3.047   1.972  11.125 -1.2255 -0.4926  0.2200
19374TIP3    H279538   3.070   2.105  11.193  0.0757 -0.9766  0.7511
19375TIP3   OH279539   0.332   2.666  14.657  0.1206  0.1750  0.5697
19375TIP3    H179540   0.422   2.632  14.662 -0.3007 -1.1215 -0.4101
19375TIP3    H279541   0.337   2.738  14.594  0.0688 -1.2555 -1.0740
19376TIP3   OH279542   4.344   3.244  14.477  0.1456  0.1812 -0.2640
19376TIP3    H179543   4.304   3.274  14.559 -1.2247 -1.0831 -0.4457
19376TIP3    H279544   4.339   3.320  14.419  2.3547  1.5213  1.2221
19377TIP3   OH279545   3.219   5.824  16.355  0.1786 -0.4655 -0.1002
19377TIP3    H179546   3.166   5.834  16.276 -1.1749 -0.5713  0.7797
19377TIP3    H279547   3.183   5.747  16.399  1.7135 -1.1376  0.0056
19378TIP3   OH279548   3.470   1.130   3.636 -0.2343 -0.5275 -0.2038
19378TIP3    H179549   3.455   1.069   3.564  1.0612 -1.3614  0.2091
19378TIP3    H279550   3.555   1.170   3.616 -0.6562  0.4763 -0.0090
19379TIP3   OH279551   3.183   2.064   4.180 -0.6142 -0.4650  0.2649
19379TIP3    H179552   3.125   1.993   4.150 -2.0562  0.7038  0.2255
19379TIP3    H279553   3.165   2.136   4.119  2.8793 -0.9285 -1.4608
19380TIP3   OH279554   3.723   5.631  16.151  0.2797 -0.4204  0.4434
19380TIP3    H179555   3.764   5.639  16.237  1.5610 -0.4650 -0.1485
19380TIP3    H279556   3.642   5.582  16.167 -0.9000  1.9260  2.0370
19381TIP3   OH279557   4.585   5.923  16.020  0.1895 -0.0406 -0.1002
19381TIP3    H179558   4.520   5.885  16.080 -0.2836  1.8990  0.6428
19381TIP3    H279559   4.543   5.919  15.934  0.1618 -1.2047 -0.0495
19382TIP3   OH279560   3.907   0.850  11.531 -0.2480  0.3212 -0.1312
19382TIP3    H179561   3.864   0.889  11.455  1.9016 -0.5618 -1.8411
19382TIP3    H279562   3.944   0.768  11.499  1.4981  0.3836  1.6071
19383TIP3   OH279563   4.205   4.081   2.646  0.1590  0.4723 -0.3975
19383TIP3    H179564   4.144   4.042   2.583 -0.5480 -0.7883  1.0521
19383TIP3    H279565   4.150   4.127   2.709  0.6575 -0.8330  1.0326
19384TIP3   OH279566   6.500   4.188   0.378 -0.4241  0.0306 -0.7113
19384TIP3    H179567   6.424   4.239   0.350 -1.0107  0.7481  2.0618
19384TIP3    H279568   6.466   4.127   0.444  1.1954 -0.3590 -0.1968
19385TIP3   OH279569   1.634   1.163  13.245  0.0245 -0.1358  0.0809
19385TIP3    H179570   1.644   1.258  13.241 -0.4401  0.0328  2.5665
19385TIP3    H279571   1.562   1.144  13.184 -1.4196  1.3566  1.3145
19386TIP3   OH279572   2.427   3.081   0.264 -0.6003 -0.0726 -0.2975
19386TIP3    H179573   2.510   3.095   0.218  0.0012  1.1882  1.1411
19386TIP3    H279574   2.375   3.158   0.245 -0.3782  0.4264  1.0137
19387TIP3   OH279575   3.991   0.899   3.691  0.4480  0.0782 -0.1026
19387TIP3    H179576   4.022   0.977   3.645  2.6994 -1.4286 -1.2688
19387TIP3    H279577   4.036   0.901   3.775  0.3832  0.1231 -0.0692
19388TIP3   OH279578   2.759   6.670   2.402 -0.2810 -0.2054  0.6595
19388TIP3    H179579   2.746   6.592   2.348  0.6300  0.1143 -0.0398
19388TIP3    H279580   2.694   6.733   2.371  0.9826  0.3805 -0.8643
19389TIP3   OH279581   0.835   5.454   2.510 -0.1756  0.3988  0.1824
19389TIP3    H179582   0.744   5.478   2.525  0.0898  2.3118 -1.1194
19389TIP3    H279583   0.834   5.411   2.425 -0.1118 -1.1530  0.9522
19390TIP3   OH279584   4.398   1.545   0.258 -0.0896  0.1536 -0.2633
19390TIP3    H179585   4.417   1.568   0.349  2.5509  2.6971 -1.3597
19390TIP3    H279586   4.404   1.449   0.256  2.0372  0.1921  1.8025
19391TIP3   OH279587   2.229   0.768   6.386  0.0272  0.2877 -0.2271
19391TIP3    H179588   2.221   0.846   6.331  1.4374  0.0528 -0.8060
19391TIP3    H279589   2.148   0.764   6.436 -0.4651  1.5748 -0.9191
19392TIP3   OH279590   2.663   3.469   1.103  0.1588  0.5639  0.2791
19392TIP3    H179591   2.715   3.549   1.099 -0.3808  0.8084 -3.8320
19392TIP3    H279592   2.720   3.401   1.068  0.0950 -0.5806  2.3420
19393TIP3   OH279593   6.630   1.758   1.708  0.0483  0.4638  0.1124
19393TIP3    H179594   6.704   1.750   1.768  0.2114  0.3322 -0.1066
19393TIP3    H279595   6.565   1.808   1.758 -0.2225 -0.5298  0.7732
19394TIP3   OH279596   5.912   1.882  15.503 -0.3746 -0.0583 -0.3182
19394TIP3    H179597   5.889   1.873  15.411 -1.0544  1.4317 -0.3154
19394TIP3    H279598   5.850   1.824  15.549 -0.9578  0.2627 -0.6937
19395TIP3   OH279599   2.813   5.773  15.369  0.1423  0.2574 -0.9511
19395TIP3    H179600   2.898   5.736  15.349  0.6605  0.2983  1.0740
19395TIP3    H279601   2.825   5.817  15.454 -1.9438  0.0287 -0.5108
19396TIP3   OH279602   3.625   1.789   2.224 -0.1513  0.0565  0.0127
19396TIP3    H179603   3.636   1.751   2.137 -1.5349  1.0705 -0.6127
19396TIP3    H279604   3.678   1.869   2.222 -0.5102  0.2941 -0.0392
19397TIP3   OH279605   1.021   1.893   1.347 -0.1663 -0.2447  0.6169
19397TIP3    H179606   1.000   1.828   1.414  0.4915  0.1380  1.2066
19397TIP3    H279607   1.110   1.869   1.319 -1.2521 -1.7438 -1.7115
19398TIP3   OH279608   4.916   4.918  15.091  0.1073 -0.0849 -0.5081
19398TIP3    H179609   4.981   4.897  15.158  0.5080  0.3072 -0.7645
19398TIP3    H279610   4.879   4.834  15.066  2.0730 -0.5672 -1.9272
19399TIP3   OH279611   4.740   6.335  16.313 -0.2698 -0.0377  0.1387
19399TIP3    H179612   4.813   6.282  16.345 -1.0120 -0.5154  1.0801
19399TIP3    H279613   4.781   6.401  16.257  0.8886 -0.3022  0.6538
19400TIP3   OH279614   4.803   1.256   3.390  0.3731 -0.3571 -0.4044
19400TIP3    H179615   4.801   1.315   3.465  0.5732 -0.1741 -0.5431
19400TIP3    H279616   4.873   1.194   3.411 -0.1918 -0.8698 -0.0153
19401TIP3   OH279617   5.916   6.267   2.353  0.1559  0.4345  0.1515
19401TIP3    H179618   5.976   6.336   2.380  0.7087 -0.2314  0.6431
19401TIP3    H279619   5.831   6.294   2.388  0.5755  0.3377  1.2880
19402TIP3   OH279620   1.525   3.505   5.261  0.1321 -0.3041 -0.0402
19402TIP3    H179621   1.514   3.592   5.299 -1.7080 -0.9513  0.9715
19402TIP3    H279622   1.457   3.499   5.194  0.6657 -0.7435 -0.5548
19403TIP3   OH279623   6.044   4.232   5.582  0.0876  0.4170  0.1827
19403TIP3    H179624   5.996   4.311   5.607  0.1217  1.0609 -1.6579
19403TIP3    H279625   6.106   4.217   5.653 -1.2163  0.9309  1.4599
19404TIP3   OH279626   5.170   4.257  12.169 -0.2952  0.1581 -0.6840
19404TIP3    H179627   5.123   4.174  12.182  0.2290 -0.1468 -0.6999
19404TIP3    H279628   5.240   4.235  12.107  0.3453  0.4229 -0.0565
19405TIP3   OH279629   5.166   4.103   2.244 -0.2204 -0.4055 -0.4810
19405TIP3    H179630   5.247   4.138   2.209 -0.6932  0.8238 -0.3474
19405TIP3    H279631   5.124   4.059   2.169  2.4138 -4.5584  0.3147
19406TIP3   OH279632   3.661   6.526  15.788  0.3115  0.3676 -0.4255
19406TIP3    H179633   3.600   6.523  15.714 -0.2028  0.2486  0.0045
19406TIP3    H279634   3.745   6.551  15.748  0.1051  0.0069 -1.0960
19407TIP3   OH279635   3.755   2.175   4.218 -0.3690 -0.2296 -0.1385
19407TIP3    H179636   3.665   2.173   4.187 -1.6697 -1.1848  3.5280
19407TIP3    H279637   3.778   2.084   4.231  0.8620  0.0546 -0.2386
19408TIP3   OH279638   3.320   3.308   1.210  0.6258  0.5031 -0.0457
19408TIP3    H179639   3.234   3.350   1.201 -0.4876 -1.9366 -1.1336
19408TIP3    H279640   3.342   3.278   1.122  1.9204 -0.1758  0.4903
19409TIP3   OH279641   2.625   0.342   3.667  0.0216  0.4580  0.0654
19409TIP3    H179642   2.629   0.246   3.662 -1.3877  0.4130 -0.4301
19409TIP3    H279643   2.630   0.370   3.575  0.5902  0.8677  0.2216
19410TIP3   OH279644   3.133   3.616   6.189  0.0841 -0.1168 -0.3338
19410TIP3    H179645   3.086   3.582   6.264 -4.2660  0.1118 -2.8247
19410TIP3    H279646   3.174   3.539   6.149  0.5945 -0.5453  1.0064
19411TIP3   OH279647   4.988   5.658  15.156 -0.0531 -0.7159 -0.0819
19411TIP3    H179648   4.955   5.601  15.226 -1.4340 -0.9784 -0.9232
19411TIP3    H279649   4.968   5.611  15.075  0.7757 -0.0345 -0.6919
19412TIP3   OH279650   2.008   2.600   5.924  0.3444 -0.1085  0.8447
19412TIP3    H179651   2.028   2.567   6.012 -1.8966 -1.1633  0.9951
19412TIP3    H279652   2.014   2.523   5.868 -0.4145  0.1185  0.4486
19413TIP3   OH279653   5.929   0.113   4.590 -0.1234  0.9046  0.2482
19413TIP3    H179654   5.907   0.184   4.530  0.5278  0.0653 -1.0077
19413TIP3    H279655   5.983   0.053   4.538  1.2146  0.6062  1.9321
19414TIP3   OH279656   3.887   5.931   0.410  0.1005 -0.5044  0.0538
19414TIP3    H179657   3.798   5.926   0.375  0.8035  0.0915 -1.8639
19414TIP3    H279658   3.919   5.841   0.406  0.2893 -0.3842 -1.1245
19415TIP3   OH279659   3.409   2.961   6.589 -0.5482  0.1618  0.0494
19415TIP3    H179660   3.451   3.012   6.520  0.1178 -0.1222  0.2316
19415TIP3    H279661   3.465   2.975   6.666 -0.7160 -0.3342  0.2621
19416TIP3   OH279662   3.563   1.921   3.993  0.7219  0.3904 -0.0256
19416TIP3    H179663   3.482   1.903   3.946  0.0660 -0.4502  1.4103
19416TIP3    H279664   3.538   1.983   4.061  0.7169 -1.8538  2.0895
19417TIP3   OH279665   4.128   5.648  12.945 -0.2773 -0.2620 -1.0993
19417TIP3    H179666   4.124   5.581  13.013 -2.0254 -0.2009 -1.1228
19417TIP3    H279667   4.037   5.664  12.921  0.2145  0.9693 -2.2384
19418TIP3   OH279668   2.132   0.979  13.480 -0.2225  0.2863 -0.6051
19418TIP3    H179669   2.071   0.937  13.540 -1.8438 -1.4931 -3.3908
19418TIP3    H279670   2.179   1.043  13.534  0.2040 -2.9533  3.1244
19419TIP3   OH279671   5.726   1.717  14.963 -0.3427 -0.4594 -0.5302
19419TIP3    H179672   5.771   1.713  14.879 -1.2129 -0.4581 -1.0031
19419TIP3    H279673   5.664   1.789  14.954 -0.2050 -0.2473  0.2269
19420TIP3   OH279674   4.620   3.916   4.636  0.3795 -0.1245  0.3414
19420TIP3    H179675   4.586   3.836   4.596 -0.6312  0.3084  0.3214
19420TIP3    H279676   4.597   3.985   4.574  1.5432  0.1424  0.1960
19421TIP3   OH279677   4.052   6.321   3.998 -0.0311 -0.1941  0.3596
19421TIP3    H179678   3.983   6.387   4.000 -0.0427 -0.2218  1.0098
19421TIP3    H279679   4.111   6.346   4.069  1.9862  1.2820 -1.7281
19422TIP3   OH279680   2.640   1.578   6.560 -0.0197  0.3381 -0.3674
19422TIP3    H179681   2.691   1.595   6.481  0.6540 -1.8270 -0.4217
19422TIP3    H279682   2.680   1.500   6.599 -0.6566  1.0647  1.8400
19423TIP3   OH279683   2.948   2.860   4.044  0.3273 -0.3998 -1.0422
19423TIP3    H179684   2.947   2.812   4.126  1.6010  0.2957 -0.6203
19423TIP3    H279685   2.855   2.877   4.026  0.0932  0.4075  0.8054
19424TIP3   OH279686   5.758   2.162   1.444 -0.1873 -0.1103 -0.2748
19424TIP3    H179687   5.733   2.091   1.502 -2.4036 -1.7032 -3.0307
19424TIP3    H279688   5.835   2.129   1.397  0.6612  0.5665  0.6141
19425TIP3   OH279689   5.571   1.988  15.281  0.0176 -0.0155  0.7662
19425TIP3    H179690   5.575   2.081  15.258  0.1229  0.4824  2.7069
19425TIP3    H279691   5.530   1.987  15.368  0.2132 -1.7782  0.8488
19426TIP3   OH279692   0.841   6.740  13.570  0.0527 -0.2031  0.6473
19426TIP3    H179693   0.827   6.787  13.652 -1.1196  1.2002 -0.3389
19426TIP3    H279694   0.754   6.736  13.529  0.6765 -0.5914 -0.6866
19427TIP3   OH279695   4.849   3.454  16.439 -0.3059 -0.6699 -0.4217
19427TIP3    H179696   4.777   3.517  16.432 -0.7930 -1.2557 -0.6490
19427TIP3    H279697   4.875   3.459  16.531 -0.0327  0.2020 -0.5361
19428TIP3   OH279698   1.916   5.578   0.084  0.5460 -0.0692 -0.0020
19428TIP3    H179699   1.844   5.566   0.146  1.1529  1.4701  1.0485
19428TIP3    H279700   1.874   5.578  -0.002 -0.5192 -0.6518  0.5073
19429TIP3   OH279701   1.906   3.727   4.893  0.0390 -0.6678  0.1644
19429TIP3    H179702   1.990   3.746   4.853 -1.4418  1.8372 -1.8932
19429TIP3    H279703   1.926   3.663   4.962  3.9207  1.5240  1.1966
19430TIP3   OH279704   1.226   2.500  14.261  0.0052  0.3197 -0.0978
19430TIP3    H179705   1.246   2.584  14.221 -0.9725  0.5689 -0.0788
19430TIP3    H279706   1.195   2.522  14.349 -0.4068 -0.0413 -0.1491
19431TIP3   OH279707   4.858   1.908  12.803  0.7760 -0.4989  0.7337
19431TIP3    H179708   4.790   1.884  12.740  1.6116 -0.3948 -0.2271
19431TIP3    H279709   4.814   1.966  12.865 -0.1798 -0.9924  0.5259
19432TIP3   OH279710   3.515   5.578   0.232  0.0912 -0.2651 -0.1265
19432TIP3    H179711   3.431   5.619   0.252  0.5975  0.7040  0.0330
19432TIP3    H279712   3.525   5.510   0.298  0.9949  1.8533  1.9867
19433TIP3   OH279713   2.485   4.839   3.190  0.8684  0.0326 -0.1614
19433TIP3    H179714   2.552   4.888   3.142 -0.8327  2.7153  0.1222
19433TIP3    H279715   2.403   4.860   3.145  0.0686 -2.6387 -0.0561
19434TIP3   OH279716   4.120   5.094   0.844 -0.0755 -0.2334 -0.5259
19434TIP3    H179717   4.086   5.011   0.810 -0.2208 -0.9577  1.3518
19434TIP3    H279718   4.086   5.160   0.783 -2.1413 -1.2812 -0.5672
19435TIP3   OH279719   5.203   4.102  13.762 -0.0493 -0.6975  0.0006
19435TIP3    H179720   5.221   4.008  13.756 -0.6643 -0.9867  2.2305
19435TIP3    H279721   5.128   4.108  13.821 -0.6359  1.1438 -0.9081
19436TIP3   OH279722   3.220   2.050  12.700  0.1249  0.1181  0.4007
19436TIP3    H179723   3.172   1.968  12.689  0.7646 -0.1193 -0.6713
19436TIP3    H279724   3.305   2.024  12.736  0.8409  0.1604 -1.2127
19437TIP3   OH279725   5.100   3.005  11.996 -0.4808 -0.8573 -0.3108
19437TIP3    H179726   5.152   3.003  11.916 -0.0175 -1.3948  0.0030
19437TIP3    H279727   5.010   2.988  11.968 -0.4379 -0.2471 -0.8135
19438TIP3   OH279728   4.119   1.479   2.991 -0.0663 -0.7800 -0.1787
19438TIP3    H179729   4.032   1.498   3.026 -0.1574  1.5241 -1.5222
19438TIP3    H279730   4.108   1.484   2.896  1.3306 -1.4512 -0.3851
19439TIP3   OH279731   5.786   5.982   5.491 -0.4461 -0.0209  0.0625
19439TIP3    H179732   5.804   6.052   5.553 -0.2442 -0.2743  0.2889
19439TIP3    H279733   5.787   6.025   5.405  3.1252 -0.3499 -0.1252
19440TIP3   OH279734   3.846   4.969  13.395  0.0952 -0.2658  1.1049
19440TIP3    H179735   3.908   4.933  13.332 -2.0335 -1.2564 -0.4517
19440TIP3    H279736   3.886   4.950  13.480  1.3238 -2.0257  0.1705
19441TIP3   OH279737   5.936   6.663   0.280  0.1670 -0.0232  0.0313
19441TIP3    H179738   5.950   6.612   0.360 -0.5079 -0.6625 -0.2527
19441TIP3    H279739   5.876   6.610   0.227  1.6609 -0.2584 -1.4957
19442TIP3   OH279740   6.064   5.571  12.492  0.1908  0.1119 -0.3441
19442TIP3    H179741   6.014   5.611  12.563  1.0242  0.3752  0.0940
19442TIP3    H279742   6.155   5.581  12.518  0.5292  0.8401 -1.7939
19443TIP3   OH279743   0.219   6.340  11.587  0.4064  0.1184 -0.2811
19443TIP3    H179744   0.127   6.364  11.580  0.3560 -0.2576 -0.9473
19443TIP3    H279745   0.264   6.422  11.605  0.0704  0.4690 -1.0376
19444TIP3   OH279746   3.125   4.669  13.578 -0.0340  0.2873  0.1234
19444TIP3    H179747   3.195   4.624  13.624  0.6262  1.7066  0.5087
19444TIP3    H279748   3.061   4.690  13.646 -0.9673 -1.2172 -0.2626
19445TIP3   OH279749   2.617   1.799  15.736  0.9270 -0.1137  0.2930
19445TIP3    H179750   2.535   1.848  15.737  1.2211  0.3725  0.8393
19445TIP3    H279751   2.650   1.810  15.647 -0.7608 -2.2809 -0.6434
19446TIP3   OH279752   5.144   1.447   3.394 -0.4654 -0.3662 -0.2285
19446TIP3    H179753   5.157   1.456   3.488 -2.4660 -0.8073  0.1062
19446TIP3    H279754   5.165   1.533   3.358  1.1582 -0.4397  0.5022
19447TIP3   OH279755   1.383   5.991   2.021  0.2820  0.1634 -0.4937
19447TIP3    H179756   1.396   5.925   1.953  0.3011 -0.2682 -0.0783
19447TIP3    H279757   1.288   6.002   2.026  0.2449 -0.3504 -0.0752
19448TIP3   OH279758   4.175   1.378  14.046 -0.8245  0.2738  0.2779
19448TIP3    H179759   4.212   1.315  14.108 -0.4482 -0.1659 -0.3955
19448TIP3    H279760   4.246   1.398  13.986 -1.0168  1.1504  0.3272
19449TIP3   OH279761   0.605   5.151   4.737  0.2764  0.8314  0.6674
19449TIP3    H179762   0.642   5.081   4.790  0.8392  0.3758 -0.3116
19449TIP3    H279763   0.510   5.137   4.740  0.2010  1.6098  2.6400
19450TIP3   OH279764   5.150   2.082   3.065  0.2354 -0.3208 -0.3818
19450TIP3    H179765   5.090   2.024   3.111  0.6607 -1.0297 -0.6955
19450TIP3    H279766   5.225   2.091   3.124 -0.7671  1.7168  0.6339
19451TIP3   OH279767   2.709   0.358   1.871  0.4655  0.7166 -0.5264
19451TIP3    H179768   2.630   0.401   1.837  0.8261  1.8136  0.0095
19451TIP3    H279769   2.766   0.430   1.897  0.5663 -0.0750  1.5517
19452TIP3   OH279770   0.688   2.659   4.147  0.8538  0.3734 -0.0309
19452TIP3    H179771   0.708   2.728   4.210  0.6829 -0.2120  0.6677
19452TIP3    H279772   0.606   2.687   4.106  0.8301  0.6296  0.1898
19453TIP3   OH279773   0.764   3.796   0.242  0.7183  0.3628  0.0319
19453TIP3    H179774   0.672   3.780   0.260  0.4694  0.2865 -1.2901
19453TIP3    H279775   0.810   3.739   0.304 -0.1192  0.2782  0.5817
19454TIP3   OH279776   4.288   6.577   0.783  0.0588  0.8385  0.2294
19454TIP3    H179777   4.294   6.550   0.692 -0.8107 -0.8612  0.6437
19454TIP3    H279778   4.375   6.608   0.805  0.9902 -1.2129 -0.4382
19455TIP3   OH279779   2.541   3.748  15.938  0.7709 -0.1377 -0.1887
19455TIP3    H179780   2.592   3.678  15.897  1.7694  0.1672  0.5103
19455TIP3    H279781   2.523   3.715  16.026  0.0195 -0.1099 -0.3280
19456TIP3   OH279782   3.744   2.090   4.977 -0.2094  0.5746  0.4095
19456TIP3    H179783   3.699   2.060   5.056 -0.6096  0.1277  0.0161
19456TIP3    H279784   3.686   2.064   4.905  1.1867 -0.9698 -0.1793
19457TIP3   OH279785   4.766   2.381   1.657 -0.0313  0.0207 -0.2880
19457TIP3    H179786   4.677   2.377   1.692  0.1858 -0.8910  0.1617
19457TIP3    H279787   4.767   2.462   1.606 -1.4487 -0.5155 -1.2062
19458TIP3   OH279788   2.817   3.280   3.419 -0.3098 -0.5163 -0.0916
19458TIP3    H179789   2.867   3.199   3.430 -0.3549 -0.3617  1.3683
19458TIP3    H279790   2.781   3.298   3.506  0.6014  1.6552 -0.1316
19459TIP3   OH279791   6.771   2.729  12.294 -0.0116  0.1748 -0.1213
19459TIP3    H179792   6.717   2.652  12.310 -2.0682  2.0465  2.2808
19459TIP3    H279793   6.802   2.717  12.204 -3.5677 -1.5158 -1.2397
19460TIP3   OH279794   0.455   5.346  17.044 -0.1880  0.5371  0.1761
19460TIP3    H179795   0.435   5.324  17.135 -1.5365 -0.2657 -0.2996
19460TIP3    H279796   0.518   5.418  17.050 -1.1586  1.2867  1.7417
19461TIP3   OH279797   1.938   0.415  12.871 -0.1446 -0.2083 -0.1439
19461TIP3    H179798   1.877   0.460  12.812 -0.0746 -0.4582 -0.4062
19461TIP3    H279799   1.976   0.485  12.924 -0.5703 -0.0376 -0.0626
19462TIP3   OH279800   3.071   5.455  12.942  0.0924  0.2192  0.3538
19462TIP3    H179801   2.985   5.493  12.958  0.3285 -0.0774  2.4788
19462TIP3    H279802   3.069   5.429  12.850 -2.0404  0.3116  0.3482
19463TIP3   OH279803   1.228   4.915  12.668  0.5482  0.0369  0.3651
19463TIP3    H179804   1.158   4.865  12.712  0.6515 -1.4532 -1.1165
19463TIP3    H279805   1.182   4.987  12.626  0.3319  0.9712  2.1512
19464TIP3   OH279806   6.631   1.114   3.305  0.1589  0.3349 -0.4446
19464TIP3    H179807   6.598   1.031   3.269 -0.0212  0.4666 -0.5837
19464TIP3    H279808   6.562   1.142   3.366  0.6746 -0.1248  0.3505
19465TIP3   OH279809   4.985   1.277   1.371 -0.3404  0.3997 -0.1092
19465TIP3    H179810   4.968   1.367   1.400  1.6612  1.0858 -0.9561
19465TIP3    H279811   4.982   1.282   1.275 -0.7836 -0.5738 -0.1571
19466TIP3   OH279812   2.072   3.210  13.864  0.1993 -0.1250  0.2694
19466TIP3    H179813   2.116   3.177  13.943 -0.4805 -1.1621  0.2231
19466TIP3    H279814   2.003   3.267  13.897  0.4717  0.1344  0.3957
19467TIP3   OH279815   3.886   4.273   0.886  0.1055 -0.0641 -0.8665
19467TIP3    H179816   3.893   4.180   0.864 -0.2466  0.0687 -1.5598
19467TIP3    H279817   3.795   4.283   0.914  0.1482  0.0685 -0.7789
19468TIP3   OH279818   1.358   3.813   6.178  0.6049  0.1583  0.6891
19468TIP3    H179819   1.396   3.897   6.206 -2.8780  1.5901  1.3940
19468TIP3    H279820   1.346   3.765   6.260  0.1475  0.0430  0.5497
19469TIP3   OH279821   1.257   2.285   1.430 -0.6233 -0.4550 -0.0735
19469TIP3    H179822   1.185   2.237   1.471  0.6298 -2.4172 -0.0649
19469TIP3    H279823   1.336   2.243   1.464  0.4951  0.7581 -1.1206
19470TIP3   OH279824   6.584   6.565  13.509 -0.0051 -0.2696  0.0356
19470TIP3    H179825   6.631   6.505  13.565  0.4778  0.9495  0.9602
19470TIP3    H279826   6.526   6.613  13.568  0.2131  0.7461 -0.5612
19471TIP3   OH279827   4.094   4.126  13.645 -0.1067  0.4081 -0.1471
19471TIP3    H179828   4.141   4.043  13.635  0.2940  0.2800  2.4766
19471TIP3    H279829   4.163   4.192  13.649 -0.2722  0.5072  1.0945
19472TIP3   OH279830   0.809   1.304   3.590  0.2294 -0.5525  0.0227
19472TIP3    H179831   0.843   1.215   3.601  0.1603 -0.6014 -0.1554
19472TIP3    H279832   0.717   1.297   3.617  0.3126 -0.4596  0.3340
19473TIP3   OH279833   5.175   4.081   2.515 -0.4166  0.4693 -0.0999
19473TIP3    H179834   5.133   4.002   2.550  2.0059 -0.8171  0.0558
19473TIP3    H279835   5.155   4.079   2.422 -0.9062  0.0018  0.0096
19474TIP3   OH279836   5.697   6.428  12.523  0.2873  0.1977  0.4094
19474TIP3    H179837   5.751   6.374  12.466  0.6640  0.6796  0.3073
19474TIP3    H279838   5.745   6.510  12.531 -0.3070  0.5377  0.5251
19475TIP3   OH279839   3.976   5.912  13.105  0.3171  0.3720 -0.9267
19475TIP3    H179840   3.918   5.845  13.140  2.2889 -0.8549  0.1383
19475TIP3    H279841   4.010   5.957  13.182 -0.6652  2.3680 -1.6120
19476TIP3   OH279842   3.399   1.927  16.221 -0.1769  0.3325 -0.3908
19476TIP3    H179843   3.318   1.943  16.269 -0.6921 -2.9627 -0.0614
19476TIP3    H279844   3.463   1.906  16.288  0.5173  1.1691 -0.7812
19477TIP3   OH279845   2.645   4.771   4.937  0.0868  0.4814 -0.1558
19477TIP3    H179846   2.639   4.713   4.860 -0.8233  0.4040 -0.0302
19477TIP3    H279847   2.601   4.723   5.007 -0.3240  1.1570  0.0532
19478TIP3   OH279848   0.096   6.003  12.996  0.1816  0.0891  0.4901
19478TIP3    H179849   0.047   6.071  12.949  1.1121 -0.4577 -1.2845
19478TIP3    H279850   0.070   5.921  12.955  1.9534 -0.2801  0.0664
19479TIP3   OH279851   2.705   1.065  11.811  0.0993  0.0324 -0.0642
19479TIP3    H179852   2.786   1.075  11.761  0.6077 -2.2385  0.2543
19479TIP3    H279853   2.699   0.971  11.829 -1.8177  0.3683  1.2343
19480TIP3   OH279854   1.381   5.943  14.404  0.0432  0.0543 -0.5116
19480TIP3    H179855   1.459   5.994  14.381  1.1372 -1.6930 -0.8168
19480TIP3    H279856   1.415   5.856  14.422 -1.8966 -0.8244 -0.9862
19481TIP3   OH279857   5.640   5.096   4.248 -0.1718  0.1201 -0.2244
19481TIP3    H179858   5.589   5.108   4.329  0.3567 -0.3853  0.1806
19481TIP3    H279859   5.654   5.002   4.242 -0.0338  0.1753 -0.8070
19482TIP3   OH279860   6.650   5.983  11.243  0.0230  0.7145  0.1539
19482TIP3    H179861   6.601   5.901  11.253  0.0533  0.1884 -3.3060
19482TIP3    H279862   6.584   6.048  11.219  0.1995  1.3724  1.4386
19483TIP3   OH279863   0.765   0.838  15.832 -0.0342 -0.5117  0.1234
19483TIP3    H179864   0.755   0.850  15.738 -2.0003  0.5829  0.4342
19483TIP3    H279865   0.788   0.924  15.866 -0.7123 -0.5853  0.7923
19484TIP3   OH279866   6.083   6.421   3.779 -0.1038  0.0863  0.1596
19484TIP3    H179867   6.058   6.329   3.784  0.8379 -0.2175 -0.4927
19484TIP3    H279868   6.146   6.424   3.707  2.3818  0.6713  2.2877
19485TIP3   OH279869   1.758   3.583  15.535  0.0666 -0.4790  0.0384
19485TIP3    H179870   1.796   3.550  15.616 -0.7114  0.7757  0.9288
19485TIP3    H279871   1.758   3.679  15.545 -1.6629 -0.3858 -0.6832
19486TIP3   OH279872   2.351   1.153  16.484  0.1031 -0.5338  0.2428
19486TIP3    H179873   2.360   1.191  16.571  0.6069  1.4429 -0.6609
19486TIP3    H279874   2.432   1.103  16.472  0.0696 -0.7401  0.8734
19487TIP3   OH279875   3.733   1.046  14.162 -0.1542  0.4121 -0.2508
19487TIP3    H179876   3.827   1.035  14.174 -0.7048 -2.6718  2.0608
19487TIP3    H279877   3.709   0.979  14.098 -1.0613 -0.2695  0.7800
19488TIP3   OH279878   5.314   6.145   2.393  0.4877 -0.1866  0.4051
19488TIP3    H179879   5.221   6.133   2.413  0.8230 -1.2695  1.4223
19488TIP3    H279880   5.339   6.065   2.347  0.9816 -0.0321  0.4027
19489TIP3   OH279881   3.778   0.195   4.122 -0.0828 -0.5508  0.1082
19489TIP3    H179882   3.722   0.172   4.196 -0.8059  0.5939 -0.0655
19489TIP3    H279883   3.866   0.172   4.151 -0.3344  0.0443  1.3990
19490TIP3   OH279884   6.082   2.267   1.823  0.2086  0.1210  0.0810
19490TIP3    H179885   6.141   2.198   1.852 -1.2884 -0.8099  0.9661
19490TIP3    H279886   6.126   2.306   1.747  0.5157 -2.5758 -1.1929
19491TIP3   OH279887   2.885   2.716   0.953  0.2171 -0.1514  0.3309
19491TIP3    H179888   2.879   2.679   0.865  1.0852  2.7686 -1.0178
19491TIP3    H279889   2.815   2.672   1.002 -0.8683 -1.1855 -2.0436
19492TIP3   OH279890   6.383   1.932  14.369 -0.4128 -0.1607 -0.3779
19492TIP3    H179891   6.310   1.889  14.413  0.0219 -0.6521 -0.1308
19492TIP3    H279892   6.371   1.913  14.276 -1.3470  0.8980 -0.4849
19493TIP3   OH279893   0.482   6.416   2.262 -0.4156 -0.3731 -0.4081
19493TIP3    H179894   0.472   6.455   2.175  0.2276 -0.2141 -0.4139
19493TIP3    H279895   0.489   6.322   2.246 -0.4240 -0.3539 -0.5208
19494TIP3   OH279896   3.910   0.678  15.556  0.2765  0.3727  0.4891
19494TIP3    H179897   3.990   0.631  15.533 -0.9662 -1.5565  0.0423
19494TIP3    H279898   3.842   0.611  15.558 -1.1538  1.8274  1.8735
19495TIP3   OH279899   2.872   0.842   4.836  0.0875 -0.4501  0.0982
19495TIP3    H179900   2.818   0.892   4.897  0.1802 -0.2186 -0.0097
19495TIP3    H279901   2.841   0.752   4.846  0.1284 -0.4226  0.5167
19496TIP3   OH279902   5.055   0.091   6.023 -0.2715 -0.0012  0.6863
19496TIP3    H179903   4.985   0.156   6.021  0.0424  0.3976  1.9663
19496TIP3    H279904   5.025   0.026   6.087 -0.3165 -0.8298 -0.1532
19497TIP3   OH279905   2.378   5.628   0.695  0.5937  0.8062 -0.2304
19497TIP3    H179906   2.345   5.559   0.638  0.3777  1.1915 -0.5741
19497TIP3    H279907   2.471   5.607   0.707  0.6689  0.7868 -0.8187
19498TIP3   OH279908   3.833   3.572  16.977 -0.0233 -0.3149  0.7297
19498TIP3    H179909   3.867   3.513  17.044  0.0028  1.3348  2.2149
19498TIP3    H279910   3.755   3.611  17.017  0.7928  1.7626  0.3668
19499TIP3   OH279911   0.114   2.640  16.479  0.0533 -0.1133  1.4806
19499TIP3    H179912   0.146   2.686  16.557 -0.1267 -0.6373  1.8662
19499TIP3    H279913   0.019   2.646  16.484  0.0529  0.3202  1.0141
19500TIP3   OH279914   5.031   6.001   4.368 -0.0165  0.5033 -0.0628
19500TIP3    H179915   4.956   6.004   4.310  0.3691  0.1603 -0.5877
19500TIP3    H279916   5.084   5.928   4.335  0.8582  1.1379 -0.0912
19501TIP3   OH279917   5.622   4.038   3.999  0.2557  0.4179  0.6007
19501TIP3    H179918   5.698   4.038   4.057 -0.2779 -4.0782  1.4249
19501TIP3    H279919   5.653   3.999   3.918 -0.3712  1.6707 -0.2668
19502TIP3   OH279920   0.333   1.647  14.272 -0.2988  0.4066 -0.2786
19502TIP3    H179921   0.419   1.657  14.231 -0.4838  0.1915 -0.7281
19502TIP3    H279922   0.271   1.661  14.200 -0.5866 -3.1459 -0.8189
19503TIP3   OH279923   2.999   1.282  15.463 -0.3257  0.0665 -1.0429
19503TIP3    H179924   2.987   1.374  15.487 -1.2815 -0.6470  1.3464
19503TIP3    H279925   2.990   1.234  15.545  1.1884 -2.0904 -2.0905
19504TIP3   OH279926   1.171   4.293  17.010 -0.3722  0.4159  0.6387
19504TIP3    H179927   1.192   4.369  17.065  2.4271  0.6902 -0.7217
19504TIP3    H279928   1.240   4.229  17.030 -0.4759 -0.2491 -1.0410
19505TIP3   OH279929   5.766   3.461  13.270 -0.0593  0.4068  0.6708
19505TIP3    H179930   5.739   3.506  13.189 -2.5602 -0.2603  1.0842
19505TIP3    H279931   5.756   3.527  13.338 -2.1187 -0.2173  1.0277
19506TIP3   OH279932   0.575   1.651  13.579  0.6468 -0.0164  0.1604
19506TIP3    H179933   0.533   1.610  13.654 -1.2325  2.0292  0.2326
19506TIP3    H279934   0.584   1.579  13.515 -1.7942 -0.7518  0.6120
19507TIP3   OH279935   1.279   0.436  15.011  0.0700  0.4344  0.0982
19507TIP3    H179936   1.221   0.370  14.974 -0.1661  0.9131 -0.3892
19507TIP3    H279937   1.289   0.410  15.103 -0.5200  0.0766  0.0625
19508TIP3   OH279938   2.878   1.014  15.100 -0.0146  0.8250 -0.4378
19508TIP3    H179939   2.958   1.056  15.132  1.4086 -1.4279 -0.9248
19508TIP3    H279940   2.839   0.974  15.177 -0.7380  2.0016 -0.1837
19509TIP3   OH279941   2.961   0.991   2.300  0.7113  0.6567 -0.0569
19509TIP3    H179942   2.957   0.931   2.375  1.3906 -0.5251 -0.9473
19509TIP3    H279943   3.013   1.065   2.330  0.6969  0.3392  0.7463
19510TIP3   OH279944   0.072   2.148  15.541  0.5863  0.1774  0.6058
19510TIP3    H179945   0.099   2.240  15.546  3.1060 -0.4530 -0.3565
19510TIP3    H279946   0.105   2.109  15.622 -0.2252  0.0566  0.8797
19511TIP3   OH279947   2.874   3.659  13.282  0.5600  0.5220 -0.1440
19511TIP3    H179948   2.948   3.599  13.297 -1.3639 -1.9563 -0.1740
19511TIP3    H279949   2.808   3.631  13.346 -1.4148  0.7929 -2.0097
19512TIP3   OH279950   0.449   0.684   4.787 -0.3313  0.5011 -0.5087
19512TIP3    H179951   0.384   0.694   4.857  0.5355  0.2762  0.3395
19512TIP3    H279952   0.525   0.733   4.818  0.5691 -0.7827 -0.6231
19513TIP3   OH279953   6.783   6.325  11.087 -0.1048  0.1478 -0.3152
19513TIP3    H179954   6.839   6.377  11.145 -0.6820 -0.3834  0.7354
19513TIP3    H279955   6.758   6.386  11.018 -1.0205  1.3925  1.0698
19514TIP3   OH279956   4.846   6.727  13.019  0.0066  0.3156 -0.5139
19514TIP3    H179957   4.907   6.743  13.092 -0.9679  0.3165  0.3049
19514TIP3    H279958   4.796   6.809  13.012 -1.4487 -0.4858  0.3015
19515TIP3   OH279959   1.000   5.925   3.538 -0.0026  0.1550  0.0406
19515TIP3    H179960   1.001   6.020   3.528  0.1748  0.1345 -0.1566
19515TIP3    H279961   1.089   5.898   3.517  0.1331  0.0119  0.7938
19516TIP3   OH279962   2.710   3.572   2.598 -0.5937  0.4973  0.1711
19516TIP3    H179963   2.751   3.559   2.512  0.1265 -1.3971  0.7837
19516TIP3    H279964   2.620   3.598   2.578 -1.4996 -3.4092 -1.1984
19517TIP3   OH279965   2.443   4.099  11.136  0.0529 -0.1588 -0.7123
19517TIP3    H179966   2.399   4.129  11.056  0.3517  2.5082  0.0984
19517TIP3    H279967   2.512   4.163  11.152 -0.9099  0.1852  2.4828
19518TIP3   OH279968   2.939   6.165   6.507  0.2359  0.6254  0.0678
19518TIP3    H179969   2.926   6.260   6.503 -0.3888  0.5749  0.7686
19518TIP3    H279970   3.031   6.153   6.485  0.0945  1.3188 -0.9823
19519TIP3   OH279971   0.027   2.871   1.774 -0.3807  0.0931 -0.3921
19519TIP3    H179972   0.005   2.959   1.743 -1.1460 -0.0307 -0.2019
19519TIP3    H279973   0.080   2.886   1.852 -0.2741  0.3919 -0.5212
19520TIP3   OH279974   3.897   1.366   3.484  0.1834 -0.3119 -0.4216
19520TIP3    H179975   3.960   1.436   3.500  0.1098 -0.3705  0.1296
19520TIP3    H279976   3.936   1.314   3.413  1.5698 -1.3398  1.0704
19521TIP3   OH279977   4.322   6.700   4.924 -0.1929  0.3505 -0.3344
19521TIP3    H179978   4.242   6.712   4.975 -0.0476  0.3672 -0.1085
19521TIP3    H279979   4.332   6.781   4.874 -0.0968  0.5113 -0.0537
19522TIP3   OH279980   5.012   2.931  11.478 -0.2803  0.2149  0.2896
19522TIP3    H179981   5.104   2.914  11.459  0.7378  3.5867  1.6925
19522TIP3    H279982   4.987   3.000  11.416 -2.0009 -0.9801 -0.3677
19523TIP3   OH279983   1.322   1.769   3.499 -0.3337 -1.0645  0.3782
19523TIP3    H179984   1.334   1.812   3.414  1.3312 -1.7322  0.2444
19523TIP3    H279985   1.237   1.799   3.530 -0.5797 -0.1494 -1.1464
19524TIP3   OH279986   1.024   5.167  15.679 -0.3636  0.2407  0.4313
19524TIP3    H179987   0.964   5.179  15.606 -0.0354  0.3759  0.1856
19524TIP3    H279988   1.051   5.076  15.675  0.2056  0.4275 -0.0376
19525TIP3   OH279989   1.119   0.425   4.005  0.7690  0.4014  0.4547
19525TIP3    H179990   1.152   0.511   3.978  2.1387  0.3201  1.8238
19525TIP3    H279991   1.024   0.438   4.013  0.6016  1.0329 -2.0262
19526TIP3   OH279992   5.591   2.323   1.326 -0.5143 -0.0998 -0.1665
19526TIP3    H179993   5.663   2.270   1.359  0.7220  0.5566 -1.7241
19526TIP3    H279994   5.527   2.324   1.397  0.8560 -0.9899  1.1108
19527TIP3   OH279995   0.515   0.678  10.522 -0.5723  0.3737  0.0740
19527TIP3    H179996   0.473   0.689  10.436  1.6108  2.6486 -0.7787
19527TIP3    H279997   0.608   0.668  10.501 -0.2587 -1.1456  2.0915
19528TIP3   OH279998   3.507   1.745  13.330  0.1836  0.0609 -0.9190
19528TIP3    H179999   3.460   1.711  13.407 -0.8301  0.6511 -1.2605
19528TIP3    H280000   3.587   1.693  13.326  1.2652  1.4085  1.7736
19529TIP3   OH280001   6.461   3.231   5.613  0.0002 -0.0674  0.9694
19529TIP3    H180002   6.403   3.162   5.645 -1.0929  0.6137  0.5249
19529TIP3    H280003   6.532   3.234   5.676  0.0165 -1.5368  1.0348
19530TIP3   OH280004   6.637   6.714   1.070  0.0170 -0.0682 -0.2373
19530TIP3    H180005   6.684   6.762   1.137 -1.5750  1.6235 -0.3044
19530TIP3    H280006   6.665   6.754   0.987 -0.2172 -0.2098 -0.3876
19531TIP3   OH280007   5.951   4.444   5.736 -0.2390 -0.6539 -0.2571
19531TIP3    H180008   5.898   4.471   5.660  1.8051 -1.3846 -1.9973
19531TIP3    H280009   6.025   4.504   5.736  0.8321 -1.9583 -0.0895
19532TIP3   OH280010   1.901   1.976  16.116  0.2363  0.3576 -0.3308
19532TIP3    H180011   1.989   2.012  16.130  0.0561  0.5535  0.3076
19532TIP3    H280012   1.843   2.035  16.165 -0.3006  0.5141 -1.1530
19533TIP3   OH280013   6.657   3.700  11.687 -0.7926  0.0898 -0.2930
19533TIP3    H180014   6.579   3.685  11.740  0.2452  0.2860  1.3081
19533TIP3    H280015   6.730   3.679  11.745  0.3444 -0.9270 -2.0283
19534TIP3   OH280016   1.914   3.366   4.462  0.1379  0.3205  0.5677
19534TIP3    H180017   1.974   3.415   4.519  0.5636 -0.0813  0.4670
19534TIP3    H280018   1.972   3.320   4.401 -0.3519  2.5279 -1.6547
19535TIP3   OH280019   5.529   1.053   3.411  0.4376 -0.3924 -0.0701
19535TIP3    H180020   5.548   1.141   3.379 -0.0973  0.0694  0.8395
19535TIP3    H280021   5.434   1.043   3.399  0.5171 -0.8891 -0.2879
19536TIP3   OH280022   2.714   2.044  15.018 -0.0845 -0.1470  0.1272
19536TIP3    H180023   2.804   2.063  15.046 -0.0377  0.3178 -0.3327
19536TIP3    H280024   2.694   1.959  15.057  1.1229 -0.9998 -1.0775
19537TIP3   OH280025   0.900   1.466  17.181  0.2652 -0.5863  0.4290
19537TIP3    H180026   0.900   1.481  17.276  2.1183 -4.2606  1.0712
19537TIP3    H280027   0.988   1.489  17.153  0.4973 -1.9667  0.0161
19538TIP3   OH280028   0.901   1.812  11.195  0.1205  0.1368 -0.6378
19538TIP3    H180029   0.884   1.723  11.166 -0.2412  0.0239 -0.0828
19538TIP3    H280030   0.931   1.858  11.116 -1.2250 -0.0736 -1.2852
19539TIP3   OH280031   0.220   4.095  14.273  0.1054 -0.0895  0.3874
19539TIP3    H180032   0.160   4.166  14.250  1.0780  0.3703 -0.7845
19539TIP3    H280033   0.224   4.097  14.369  0.9352  2.1622  0.3534
19540TIP3   OH280034   4.837   2.552  16.455 -0.5337  0.4624  0.6067
19540TIP3    H180035   4.807   2.641  16.434 -1.5304  0.1977  0.8896
19540TIP3    H280036   4.807   2.499  16.381 -1.8093 -0.0154  1.4460
19541TIP3   OH280037   5.863   4.941   6.463 -0.1029 -0.8736 -0.4898
19541TIP3    H180038   5.937   4.889   6.494  0.2231 -0.1944 -0.1090
19541TIP3    H280039   5.901   5.025   6.439 -0.6019 -0.8625 -1.2425
19542TIP3   OH280040   4.998   2.500  11.446  0.1805  0.2189 -0.3315
19542TIP3    H180041   4.987   2.522  11.538  0.0752  0.5844 -0.4316
19542TIP3    H280042   4.916   2.457  11.421  0.5704 -0.7418 -0.0132
19543TIP3   OH280043   5.564   2.099  13.791  0.0826  0.4768  0.6324
19543TIP3    H180044   5.628   2.129  13.855 -0.0254  0.1977  0.8690
19543TIP3    H280045   5.574   2.159  13.717 -1.1668  2.0253  1.7067
19544TIP3   OH280046   0.351   5.526   2.551 -0.3453 -0.1199 -0.1152
19544TIP3    H180047   0.279   5.479   2.509 -2.1029  1.9507  0.4510
19544TIP3    H280048   0.381   5.468   2.620 -0.4726 -1.6322 -1.3005
19545TIP3   OH280049   2.432   1.280   3.575 -0.2384  0.3182  0.1964
19545TIP3    H180050   2.496   1.243   3.637  0.4761  0.6406 -0.3495
19545TIP3    H280051   2.363   1.315   3.631  1.4662  2.6484  0.9515
19546TIP3   OH280052   5.995   2.354   2.116 -0.7822  0.5182  0.1330
19546TIP3    H180053   5.988   2.309   2.200 -0.0964 -0.2449 -0.2225
19546TIP3    H280054   5.998   2.284   2.051  3.7292  0.9018 -0.2175
19547TIP3   OH280055   1.334   1.694   4.340  0.4016  0.2855  0.2753
19547TIP3    H180056   1.387   1.676   4.417  1.0053 -0.2745 -0.2610
19547TIP3    H280057   1.247   1.714   4.374  0.8650  0.8145  1.1357
19548TIP3   OH280058   6.429   2.241   5.914 -0.5240 -0.2076 -0.0553
19548TIP3    H180059   6.489   2.303   5.955  0.5574 -0.5435 -1.0863
19548TIP3    H280060   6.407   2.179   5.983  0.2457 -0.0201  0.3636
19549TIP3   OH280061   3.164   5.772   0.546  0.0803 -0.7209 -0.7944
19549TIP3    H180062   3.258   5.781   0.562 -0.2111  0.0541  0.6223
19549TIP3    H280063   3.144   5.681   0.570 -0.1560  0.1268  2.5593
19550TIP3   OH280064   4.630   3.697  14.652 -0.2597 -0.2302  0.6424
19550TIP3    H180065   4.578   3.774  14.628  0.8839 -0.1765 -1.7646
19550TIP3    H280066   4.660   3.715  14.741 -0.9687  1.5686  0.5341
19551TIP3   OH280067   1.008   2.204   1.131 -0.2648  0.2771  0.6934
19551TIP3    H180068   1.101   2.222   1.121 -0.2634  0.2136  0.5921
19551TIP3    H280069   0.986   2.150   1.055 -0.1979 -0.4380  1.1872
19552TIP3   OH280070   5.914   5.005   0.986 -0.1963 -0.4975  0.3151
19552TIP3    H180071   5.930   4.947   1.061 -2.6788 -1.1120  0.4258
19552TIP3    H280072   5.861   4.952   0.926 -2.2261  1.5086  0.2771
19553TIP3   OH280073   6.222   1.989   2.524  0.1736  0.0445  0.2252
19553TIP3    H180074   6.253   2.078   2.510 -0.2595 -0.1082 -1.9102
19553TIP3    H280075   6.296   1.933   2.497 -0.2389 -0.2521 -0.3108
19554TIP3   OH280076   3.423   1.445   3.173 -0.0515  0.7939 -0.3480
19554TIP3    H180077   3.474   1.485   3.244  1.3227 -0.9328 -0.3369
19554TIP3    H280078   3.484   1.439   3.100 -0.9632  0.9746 -1.1279
19555TIP3   OH280079   1.388   1.946  14.303  0.4738  0.0939  0.2664
19555TIP3    H180080   1.384   1.985  14.390  1.3628  1.8756 -0.4666
19555TIP3    H280081   1.460   1.991  14.260  0.3732 -1.1327 -1.2272
19556TIP3   OH280082   4.021   2.852  11.154  0.0992  0.3693 -1.0863
19556TIP3    H180083   3.962   2.884  11.222  1.3154 -0.1718  0.2382
19556TIP3    H280084   4.042   2.930  11.102  0.5567  1.1113  0.2124
19557TIP3   OH280085   3.252   6.053  15.469  0.0979  0.5530  0.4451
19557TIP3    H180086   3.235   6.053  15.563  1.3687  1.0915  0.6968
19557TIP3    H280087   3.174   6.091  15.429 -1.0194 -0.9864  1.1625
19558TIP3   OH280088   0.202   4.432   0.746 -0.0201 -0.7655  0.0056
19558TIP3    H180089   0.119   4.431   0.699 -0.5479 -0.5096  0.9186
19558TIP3    H280090   0.266   4.462   0.681 -0.3156 -2.6796 -1.1934
19559TIP3   OH280091   1.174   4.838  14.097 -0.1491 -0.1000  0.3534
19559TIP3    H180092   1.263   4.844  14.132 -0.3543 -2.0272  1.2760
19559TIP3    H280093   1.186   4.835  14.002  0.7532 -0.1543  0.4657
19560TIP3   OH280094   0.462   5.469  11.458 -0.6158 -0.1460 -0.0542
19560TIP3    H180095   0.551   5.437  11.439 -0.6605  0.2810 -1.0017
19560TIP3    H280096   0.429   5.498  11.374 -1.8425 -0.7425  0.2133
19561TIP3   OH280097   5.456   3.795   5.659 -0.5228 -0.1268  0.4089
19561TIP3    H180098   5.456   3.884   5.626 -2.8749 -0.5892 -0.9750
19561TIP3    H280099   5.364   3.777   5.680 -0.2912 -2.6016 -0.4574
19562TIP3   OH280100   5.781   5.686   2.155  0.1360 -0.0652 -0.5114
19562TIP3    H180101   5.783   5.737   2.075  1.7178  0.3672 -0.1977
19562TIP3    H280102   5.830   5.606   2.135  1.3528  0.4584  0.2871
19563TIP3   OH280103   1.613   0.832  11.148 -0.6551  0.1516  0.0716
19563TIP3    H180104   1.553   0.783  11.091  0.0174 -1.2838  0.5693
19563TIP3    H280105   1.647   0.902  11.093 -1.6130  0.0449 -0.6712
19564TIP3   OH280106   3.958   5.763   0.990 -0.2157  0.2726  0.1660
19564TIP3    H180107   4.038   5.774   1.042 -0.4167  0.2238  0.4830
19564TIP3    H280108   3.986   5.782   0.900  0.4491 -1.0057  0.0886
19565TIP3   OH280109   3.116   3.665  11.999 -0.3176 -0.0395  0.3631
19565TIP3    H180110   3.090   3.646  11.908  1.7423  0.4696 -0.3580
19565TIP3    H280111   3.033   3.669  12.047 -1.3165 -2.9408 -0.9747
19566TIP3   OH280112   1.652   4.359   2.836 -0.0906  0.0162 -0.3832
19566TIP3    H180113   1.723   4.316   2.883 -0.8133  1.8718  2.5554
19566TIP3    H280114   1.696   4.414   2.771  1.2707  1.5630  1.7644
19567TIP3   OH280115   1.831   3.690   1.243 -0.6875  0.1966  0.1529
19567TIP3    H180116   1.800   3.603   1.218 -1.1255  0.0683  1.1190
19567TIP3    H280117   1.890   3.716   1.172  0.5189 -1.4559  0.5234
19568TIP3   OH280118   1.247   6.616  14.268  0.6342 -0.2153  0.3178
19568TIP3    H180119   1.217   6.628  14.178 -0.8472 -0.5896  0.7466
19568TIP3    H280120   1.231   6.523  14.286  2.1529 -0.4435  0.5316
19569TIP3   OH280121   3.961   4.218  13.289 -0.5831 -0.5611 -0.6316
19569TIP3    H180122   3.938   4.220  13.382  1.5378  1.2467 -0.1061
19569TIP3    H280123   3.902   4.283  13.249 -2.2253 -2.1039 -0.7469
19570TIP3   OH280124   0.568   3.594  15.485 -0.1174  0.6910  0.0210
19570TIP3    H180125   0.644   3.537  15.473 -0.3336  0.5656 -0.7776
19570TIP3    H280126   0.542   3.618  15.396 -0.0742  1.9684  0.3340
19571TIP3   OH280127   2.439   1.576   2.735  0.2858 -0.0555  0.1567
19571TIP3    H180128   2.450   1.670   2.751 -1.5084 -0.2162  2.6004
19571TIP3    H280129   2.391   1.571   2.652 -1.9027  1.2852  1.3196
19572TIP3   OH280130   0.924   3.751  16.363  0.6384 -0.1207 -0.2509
19572TIP3    H180131   0.888   3.813  16.300  0.8699 -0.9227 -1.1829
19572TIP3    H280132   0.935   3.802  16.443 -1.4838  0.4110 -0.2744
19573TIP3   OH280133   5.143   5.078  12.745  0.4531 -0.1831  0.2998
19573TIP3    H180134   5.086   5.124  12.683 -0.7978 -1.1284  0.7219
19573TIP3    H280135   5.137   5.129  12.825 -0.5397 -0.7727  0.6175
19574TIP3   OH280136   2.666   2.372  13.091 -0.0532  0.1866 -0.5330
19574TIP3    H180137   2.589   2.418  13.123 -0.7099 -0.2697 -1.4600
19574TIP3    H280138   2.721   2.440  13.052 -0.8754  0.2348 -1.6184
19575TIP3   OH280139   1.208   2.913  15.243 -0.3080 -0.1956  0.6335
19575TIP3    H180140   1.290   2.934  15.287 -0.4772 -0.9698  1.3368
19575TIP3    H280141   1.160   2.996  15.241  0.5863  0.3197 -0.0063
19576TIP3   OH280142   5.241   5.304   1.101  0.4891 -0.5014  0.5526
19576TIP3    H180143   5.147   5.324   1.105  0.7705  0.8533  0.4910
19576TIP3    H280144   5.282   5.370   1.157  1.3743 -1.3066  0.8501
19577TIP3   OH280145   2.297   1.059  15.599 -0.0406  0.0430 -0.2691
19577TIP3    H180146   2.246   1.094  15.672 -0.7337  0.7046 -1.0577
19577TIP3    H280147   2.379   1.028  15.639 -0.2683  0.7157  0.7339
19578TIP3   OH280148   1.884   6.008   3.052 -0.2100 -0.0665  0.0161
19578TIP3    H180149   1.818   5.975   2.991 -0.6841  1.2533 -0.1926
19578TIP3    H280150   1.966   6.003   3.003 -0.8428  2.6805 -1.4171
19579TIP3   OH280151   5.037   0.720   2.288 -0.2085  0.1081  0.3577
19579TIP3    H180152   5.118   0.770   2.277 -0.8050  1.0201  0.1353
19579TIP3    H280153   5.060   0.653   2.353  1.3369 -1.0105 -1.3131
19580TIP3   OH280154   2.207   2.244  12.528  0.0114 -0.2393 -0.1043
19580TIP3    H180155   2.148   2.221  12.457 -1.2649 -2.2262  1.5527
19580TIP3    H280156   2.161   2.313  12.576  0.4390  0.4074 -0.6106
19581TIP3   OH280157   5.892   1.620   1.145 -0.1166  0.0382  0.1955
19581TIP3    H180158   5.802   1.608   1.117 -0.1202 -1.1878  0.6911
19581TIP3    H280159   5.931   1.678   1.079 -1.2890  0.6762  0.0597
19582TIP3   OH280160   6.262   3.271   0.356  0.0063 -0.2805 -0.7080
19582TIP3    H180161   6.316   3.218   0.414  1.9409  0.3282 -1.9250
19582TIP3    H280162   6.248   3.353   0.404 -0.4150 -0.6993 -0.1114
19583TIP3   OH280163   6.658   0.182  12.305 -0.2236 -0.2271  0.0097
19583TIP3    H180164   6.576   0.151  12.343  0.2359  0.0680  1.2519
19583TIP3    H280165   6.685   0.111  12.247 -0.5837 -0.9751  0.7430
19584TIP3   OH280166   1.398   4.740  13.702 -0.1805 -0.0884 -0.3870
19584TIP3    H180167   1.409   4.773  13.613  0.4442  0.4482 -0.1091
19584TIP3    H280168   1.359   4.813  13.750  2.1330  0.6066  0.4720
19585TIP3   OH280169   0.170   4.158   0.858  0.4416 -0.1801  0.0883
19585TIP3    H180170   0.103   4.184   0.795  1.4911  1.7597 -0.2797
19585TIP3    H280171   0.129   4.171   0.943  0.6762  2.1442 -0.0998
19586TIP3   OH280172   5.788   6.512   0.660  0.0731 -0.0990 -0.2605
19586TIP3    H180173   5.870   6.502   0.612 -0.2709 -0.5197 -0.7781
19586TIP3    H280174   5.742   6.429   0.645  0.1680 -0.4151  1.2089
19587TIP3   OH280175   4.293   3.816   6.559 -0.1592  0.3522 -0.3010
19587TIP3    H180176   4.339   3.882   6.507  1.6169  0.6868  1.6133
19587TIP3    H280177   4.201   3.844   6.557  0.0234  0.8918 -2.4153
19588TIP3   OH280178   2.801   5.278  14.569 -0.1357  0.0264 -0.1960
19588TIP3    H180179   2.747   5.201  14.551 -0.7858 -0.3827  3.1679
19588TIP3    H280180   2.746   5.353  14.543 -1.1702 -0.5022  0.4407
19589TIP3   OH280181   1.127   5.361   2.581  0.0059 -0.2026 -0.0058
19589TIP3    H180182   1.087   5.425   2.521 -0.7452 -0.4989  0.1707
19589TIP3    H280183   1.055   5.332   2.636  0.2645 -1.4509 -0.3032
19590TIP3   OH280184   4.109   1.413  16.780  0.2413 -0.3503  0.3456
19590TIP3    H180185   4.089   1.502  16.807 -1.8231 -0.8363  0.5107
19590TIP3    H280186   4.132   1.368  16.861 -0.5698 -0.4300  0.5384
19591TIP3   OH280187   0.554   3.487   5.252  0.0771 -0.0192  0.3790
19591TIP3    H180188   0.510   3.548   5.311 -1.1431  0.6133 -1.1495
19591TIP3    H280189   0.577   3.540   5.175  0.6048 -1.0772 -0.2013
19592TIP3   OH280190   3.449   1.078  15.660 -0.6067  0.0182 -0.4526
19592TIP3    H180191   3.425   1.169  15.678 -0.9955 -0.3851  1.1792
19592TIP3    H280192   3.420   1.063  15.570  0.6001  1.8753 -1.1900
19593TIP3   OH280193   1.809   3.356   0.554  0.1450 -0.9859  0.1631
19593TIP3    H180194   1.734   3.302   0.529  0.0475 -0.7389 -0.0842
19593TIP3    H280195   1.804   3.432   0.495  0.6635 -1.0347  0.0601
19594TIP3   OH280196   6.432   0.686  14.839 -0.2632 -0.0959  0.1035
19594TIP3    H180197   6.471   0.747  14.902  0.6621  0.1685 -0.7262
19594TIP3    H280198   6.337   0.698  14.849 -0.1395 -0.3371  1.7199
19595TIP3   OH280199   4.852   4.151   2.662 -0.0087  0.1012  0.0486
19595TIP3    H180200   4.823   4.147   2.753  0.1526 -0.2508  0.0868
19595TIP3    H280201   4.936   4.197   2.666 -0.3799  0.7825 -0.0166
19596TIP3   OH280202   3.269   5.993   5.627 -0.1699 -0.5468 -0.3523
19596TIP3    H180203   3.248   6.080   5.594  1.0611  0.5401  1.6406
19596TIP3    H280204   3.350   5.968   5.582  0.7135  0.3176  0.7303
19597TIP3   OH280205   2.390   1.468  15.128  0.4336  0.0640  0.3656
19597TIP3    H180206   2.358   1.558  15.138 -0.1121 -0.2028  1.0702
19597TIP3    H280207   2.469   1.476  15.074  0.3053  0.9493  0.3057
19598TIP3   OH280208   1.884   1.492  11.464  0.0316  0.1619 -0.1447
19598TIP3    H180209   1.843   1.410  11.490 -1.1854  0.7693 -0.0861
19598TIP3    H280210   1.949   1.467  11.398 -0.6840 -0.7864 -0.5008
19599TIP3   OH280211   6.226   2.596   2.967 -0.0082  0.2662 -0.2179
19599TIP3    H180212   6.170   2.672   2.952  0.0738  0.0870 -1.4703
19599TIP3    H280213   6.177   2.542   3.029 -0.1428  1.2539  0.5520
19600TIP3   OH280214   3.375   1.970  12.469 -0.0543  0.6633  0.5399
19600TIP3    H180215   3.328   2.029  12.528  1.0681 -0.2088  2.3462
19600TIP3    H280216   3.312   1.951  12.399 -1.1387  2.3182  1.0487
19601TIP3   OH280217   2.583   3.766   6.397 -0.4364  0.6748  0.5239
19601TIP3    H180218   2.521   3.838   6.389 -2.5304 -1.0291  1.1606
19601TIP3    H280219   2.538   3.701   6.451  1.1118 -1.4450 -0.6722
19602TIP3   OH280220   5.782   4.178   0.979 -0.0933  0.8220  0.0510
19602TIP3    H180221   5.866   4.136   0.960 -0.2967  0.2728  0.3420
19602TIP3    H280222   5.767   4.159   1.072  0.8213  3.3535  0.7548
19603TIP3   OH280223   4.725   6.334  14.877  0.4061  0.0056  0.4993
19603TIP3    H180224   4.766   6.416  14.902 -0.1541  0.1098  1.0704
19603TIP3    H280225   4.636   6.358  14.850 -0.2429 -0.5941  2.0633
19604TIP3   OH280226   2.794   5.130  16.431 -0.1505  0.1115 -0.1807
19604TIP3    H180227   2.751   5.133  16.345  0.1932  1.6381 -0.3123
19604TIP3    H280228   2.880   5.092  16.413 -0.1468  0.2636 -0.4939
19605TIP3   OH280229   6.766   1.065  16.425  0.0878 -0.0579 -0.3535
19605TIP3    H180230   6.685   1.116  16.413 -1.1075 -1.9239 -0.4202
19605TIP3    H280231   6.781   1.023  16.341  0.8331 -0.1527 -0.1810
19606TIP3   OH280232   2.193   6.602   4.610  0.3704 -0.4998 -0.5016
19606TIP3    H180233   2.167   6.656   4.536 -0.4421 -1.0263 -0.6066
19606TIP3    H280234   2.112   6.559   4.638  0.7913 -0.7805  0.2974
19607TIP3   OH280235   5.760   3.336   2.720  0.0471  0.1243  0.1026
19607TIP3    H180236   5.841   3.306   2.761  0.1324  0.4669  0.1842
19607TIP3    H280237   5.777   3.427   2.697  0.0581 -0.1159 -0.8479
19608TIP3   OH280238   5.472   0.029   1.382 -0.5267 -0.1093 -1.2276
19608TIP3    H180239   5.545   0.025   1.321 -0.7702 -1.4745 -1.4375
19608TIP3    H280240   5.513   0.041   1.468 -0.0963 -0.1288 -1.4310
19609TIP3   OH280241   3.732   2.372   5.895  0.5871  0.1109 -0.6256
19609TIP3    H180242   3.780   2.451   5.920 -1.9235  1.2991  0.5906
19609TIP3    H280243   3.686   2.396   5.815 -0.5748  0.0498  0.0136
19610TIP3   OH280244   0.446   0.164   1.031  0.2428  0.4674  0.0361
19610TIP3    H180245   0.433   0.223   1.106 -0.1006  0.6721 -0.1770
19610TIP3    H280246   0.417   0.216   0.956  2.0021  0.7952 -0.4272
19611TIP3   OH280247   2.997   4.827   0.505  0.5785 -0.4547  0.4035
19611TIP3    H180248   3.044   4.791   0.430  0.5572  0.0654  0.1322
19611TIP3    H280249   3.032   4.780   0.581  0.1961 -1.3809  0.0148
19612TIP3   OH280250   5.034   1.483  10.572 -0.6459  0.4943  0.4332
19612TIP3    H180251   5.005   1.404  10.525 -0.1133  0.4872  0.1181
19612TIP3    H280252   5.123   1.497  10.542 -0.3075  0.5104  1.4336
19613TIP3   OH280253   3.539   3.999  13.890  0.2298 -0.0335 -0.0287
19613TIP3    H180254   3.488   3.922  13.913 -2.2648  1.5598 -0.0281
19613TIP3    H280255   3.603   4.008  13.961  0.3250 -1.8800  0.1314
19614TIP3   OH280256   0.490   6.691   6.459 -0.1323  0.2118 -0.8039
19614TIP3    H180257   0.442   6.635   6.520  2.0728  0.8496  1.5786
19614TIP3    H280258   0.438   6.771   6.453 -0.6969 -0.1109 -0.2836
19615TIP3   OH280259   4.152   6.703  11.659 -0.1242 -0.2972  0.5852
19615TIP3    H180260   4.157   6.746  11.744  0.5791  0.9213 -0.0513
19615TIP3    H280261   4.098   6.761  11.605  0.2081 -0.5837 -0.0699
19616TIP3   OH280262   0.470   1.806   5.213  0.3373  0.0731  0.6465
19616TIP3    H180263   0.453   1.900   5.220  2.2174  0.5145 -0.3792
19616TIP3    H280264   0.552   1.800   5.164  0.7008 -2.0853  1.4679
19617TIP3   OH280265   5.337   4.769  15.072  0.2573 -0.1286  0.0554
19617TIP3    H180266   5.277   4.814  15.131  0.1142  0.6581 -0.6821
19617TIP3    H280267   5.295   4.775  14.986 -0.7158 -3.3220  0.2172
19618TIP3   OH280268   4.618   4.164  16.756 -0.0839  0.4504 -0.4476
19618TIP3    H180269   4.609   4.175  16.851  0.1994  0.1784 -0.3895
19618TIP3    H280270   4.530   4.139  16.727 -0.1609  0.4906 -0.2515
19619TIP3   OH280271   5.749   4.755  11.647 -0.4272  0.0933 -0.5574
19619TIP3    H180272   5.697   4.678  11.673  2.6350 -1.7531  0.3854
19619TIP3    H280273   5.750   4.811  11.725 -2.1045  0.8035 -1.0272
19620TIP3   OH280274   0.691   6.001   3.283  0.2308 -0.0668  0.2848
19620TIP3    H180275   0.768   5.990   3.227  0.6289 -0.8182  0.9725
19620TIP3    H280276   0.622   6.031   3.224  1.2417  1.3097 -0.2135
19621TIP3   OH280277   5.518   1.438   6.672 -0.0131  0.2715  0.2304
19621TIP3    H180278   5.607   1.402   6.668 -0.2018 -0.1659 -0.0537
19621TIP3    H280279   5.529   1.531   6.651  0.3623  0.1925  0.0743
19622TIP3   OH280280   3.272   4.629  12.415  0.2323  0.2270  0.6939
19622TIP3    H180281   3.271   4.559  12.349 -0.1887 -0.2680  1.2201
19622TIP3    H280282   3.360   4.624  12.453  0.3560  0.2785  0.4192
19623TIP3   OH280283   5.409   2.858  15.723 -0.0325 -0.6032 -0.0304
19623TIP3    H180284   5.422   2.825  15.812  0.5691  1.0440  0.5036
19623TIP3    H280285   5.363   2.787  15.678 -0.7214 -1.2897  1.7126
19624TIP3   OH280286   3.812   3.251   3.003 -0.2439  0.3687  0.4543
19624TIP3    H180287   3.743   3.186   2.987 -0.6574  1.1264 -0.9905
19624TIP3    H280288   3.765   3.328   3.035 -0.0550  0.7897 -0.2640
19625TIP3   OH280289   5.146   3.779   4.322 -0.4996 -0.1987 -0.2307
19625TIP3    H180290   5.203   3.704   4.337  0.8229  0.9629  0.7171
19625TIP3    H280291   5.065   3.742   4.285  0.7209 -1.8971 -1.2398
19626TIP3   OH280292   3.604   0.529  13.857  0.1422  0.3403  0.0671
19626TIP3    H180293   3.563   0.576  13.784 -2.1211 -0.0123  1.0714
19626TIP3    H280294   3.623   0.597  13.922  2.7567  0.7489 -1.0851
19627TIP3   OH280295   2.989   6.718   3.545  0.3543  0.6868  0.0376
19627TIP3    H180296   3.064   6.769   3.577  0.9189 -1.0610  1.5863
19627TIP3    H280297   3.013   6.627   3.562 -2.0123  0.0833  0.3069
19628TIP3   OH280298   0.192   2.870   5.745 -0.3338 -0.9316 -0.0839
19628TIP3    H180299   0.164   2.951   5.704 -2.5358 -0.7113  1.7233
19628TIP3    H280300   0.127   2.854   5.814  2.7869 -1.6273  2.8613
19629TIP3   OH280301   1.396   1.991   1.277  0.3661  0.3390  0.3486
19629TIP3    H180302   1.438   1.950   1.353  2.5131  0.1391 -0.9103
19629TIP3    H280303   1.373   1.917   1.220 -1.7954  0.4391  1.0234
19630TIP3   OH280304   4.573   1.948   2.834  0.5653  0.6488  0.9022
19630TIP3    H180305   4.529   2.032   2.847  1.3919  1.1667  0.3760
19630TIP3    H280306   4.662   1.971   2.807 -0.3515 -0.3533 -3.2810
19631TIP3   OH280307   5.948   1.266  15.445  0.1690  0.2098  0.7581
19631TIP3    H180308   5.920   1.332  15.382 -1.9683 -1.0102  0.3777
19631TIP3    H280309   5.875   1.259  15.507  0.6196 -1.3644  1.1335
19632TIP3   OH280310   6.090   6.357   5.176  0.2742 -0.2450 -0.1541
19632TIP3    H180311   6.138   6.339   5.095  1.3385 -0.9432  0.6181
19632TIP3    H280312   6.020   6.416   5.149  0.6959 -0.3574 -1.5639
19633TIP3   OH280313   5.100   5.479   0.658 -0.1067  0.3389  0.2005
19633TIP3    H180314   5.106   5.562   0.705 -2.1564  1.8631 -2.1374
19633TIP3    H280315   5.167   5.485   0.589  0.8119 -0.6216  0.9940
19634TIP3   OH280316   4.969   3.327   3.834  0.0321 -0.7443  0.4574
19634TIP3    H180317   5.064   3.324   3.850 -0.0335 -0.0681  0.9705
19634TIP3    H280318   4.938   3.239   3.858  0.4439 -0.7945  0.8170
19635TIP3   OH280319   6.570   5.505  12.255  0.2816 -0.0377  0.4459
19635TIP3    H180320   6.585   5.478  12.346 -3.3431 -2.6700  0.3690
19635TIP3    H280321   6.500   5.570  12.261 -0.0897 -0.3505 -0.5038
19636TIP3   OH280322   0.477   2.966   5.804 -0.3420 -0.0153  0.2548
19636TIP3    H180323   0.458   3.002   5.891 -0.1332 -0.5704  0.5384
19636TIP3    H280324   0.394   2.927   5.776  0.1615 -1.8271  1.1931
19637TIP3   OH280325   4.635   4.442  16.234  0.2640  0.0287 -0.2938
19637TIP3    H180326   4.599   4.426  16.148 -1.2697  5.1830 -0.7904
19637TIP3    H280327   4.723   4.477  16.218  0.0704  0.7802  0.2501
19638TIP3   OH280328   3.028   4.654   4.390 -0.1792  0.0428  0.0285
19638TIP3    H180329   3.046   4.653   4.485 -0.6831  0.1611  0.1259
19638TIP3    H280330   2.946   4.702   4.382 -0.7001 -0.9046 -0.3751
19639TIP3   OH280331   2.563   1.307  11.872  0.5469 -0.3990 -0.3511
19639TIP3    H180332   2.469   1.296  11.890  0.4574  0.6732 -0.1330
19639TIP3    H280333   2.597   1.218  11.871 -0.3346 -0.7603  0.3688
19640TIP3   OH280334   0.197   1.726   5.221 -0.5777  0.1268 -0.5570
19640TIP3    H180335   0.251   1.660   5.177 -1.0902 -0.4083 -0.3884
19640TIP3    H280336   0.261   1.780   5.269 -0.1216  0.0098 -1.0314
19641TIP3   OH280337   1.163   1.106  11.600 -0.0911  0.0444 -0.1359
19641TIP3    H180338   1.158   1.095  11.505 -0.6463  0.8479 -0.2060
19641TIP3    H280339   1.150   1.018  11.635  0.8680 -0.3850 -0.8249
19642TIP3   OH280340   1.928   3.748   3.072  0.2593  0.1567  0.1346
19642TIP3    H180341   1.908   3.661   3.108 -0.3165  0.0447 -0.4572
19642TIP3    H280342   2.021   3.761   3.091  0.2846 -0.4874  0.4459
19643TIP3   OH280343   0.730   1.062  17.147  0.2254  0.1286 -0.3782
19643TIP3    H180344   0.733   0.989  17.208 -0.7771  1.0868  0.8329
19643TIP3    H280345   0.647   1.052  17.101 -0.4497  1.1519  0.6072
19644TIP3   OH280346   3.973   4.276   2.988 -0.2705  0.1690 -0.1043
19644TIP3    H180347   3.951   4.322   2.906 -2.0867 -0.9973 -0.2903
19644TIP3    H280348   3.982   4.346   3.052 -0.7628  0.9677 -0.8802
19645TIP3   OH280349   1.771   3.486  12.580  0.2161 -0.0109  0.9616
19645TIP3    H180350   1.802   3.536  12.655 -0.0436  1.2626  0.2377
19645TIP3    H280351   1.847   3.482  12.522 -0.3563  1.4162  0.0671
19646TIP3   OH280352   0.894   0.534  13.365 -0.1964  0.1289  0.4069
19646TIP3    H180353   0.819   0.496  13.320  0.0709 -1.5505  1.3571
19646TIP3    H280354   0.970   0.488  13.328  0.3783  1.6993 -0.4316
19647TIP3   OH280355   3.838   1.609   5.573 -0.1674 -0.5882 -0.7227
19647TIP3    H180356   3.824   1.525   5.617  1.9015  0.1513  1.4440
19647TIP3    H280357   3.756   1.657   5.587  0.4313 -0.3646  2.4522
19648TIP3   OH280358   5.240   5.739  14.700 -0.3136 -0.2581  0.6677
19648TIP3    H180359   5.189   5.658  14.697  0.0293 -0.4707  0.5650
19648TIP3    H280360   5.297   5.728  14.776 -0.7408  0.1713  1.0535
19649TIP3   OH280361   3.843   0.571   4.919 -0.5998  0.1509  0.4582
19649TIP3    H180362   3.919   0.546   4.971  0.0024 -1.9181 -1.3180
19649TIP3    H280363   3.799   0.488   4.901 -1.3181  0.9335 -1.4577
19650TIP3   OH280364   2.453   2.560  14.774  0.2956 -0.4433 -0.2213
19650TIP3    H180365   2.376   2.613  14.794  0.5417 -0.1849  0.0291
19650TIP3    H280366   2.417   2.474  14.752 -0.0103 -0.5572  0.7309
19651TIP3   OH280367   3.025   3.451   4.045  0.0788  0.1879 -0.1445
19651TIP3    H180368   2.951   3.489   4.093 -0.1306  0.5381 -0.7291
19651TIP3    H280369   3.039   3.366   4.085 -1.2262 -0.2620 -0.6101
19652TIP3   OH280370   2.933   6.522   1.977  0.3892 -0.5363 -0.2200
19652TIP3    H180371   2.931   6.477   1.893  0.4223 -1.2344  0.1541
19652TIP3    H280372   3.023   6.513   2.008  0.0428 -1.5261  0.5550
19653TIP3   OH280373   4.892   0.199  11.701 -0.0978 -0.1675  0.7619
19653TIP3    H180374   4.984   0.215  11.681 -0.4813  1.4318  0.2085
19653TIP3    H280375   4.860   0.149  11.626 -0.0125  0.4394  0.3203
19654TIP3   OH280376   0.712   3.540   2.745 -0.7361 -0.2206 -0.3437
19654TIP3    H180377   0.796   3.579   2.720  0.2691 -1.9995  0.2232
19654TIP3    H280378   0.703   3.561   2.838 -1.6389  1.2142 -0.7262
19655TIP3   OH280379   4.024   6.420   4.290  0.0042 -0.0570 -0.6930
19655TIP3    H180380   4.103   6.395   4.243  0.0061 -0.5495 -0.4407
19655TIP3    H280381   4.054   6.477   4.360 -0.1253  1.5486 -1.9360
19656TIP3   OH280382   3.572   6.522   2.580  0.8434  0.5150  0.1878
19656TIP3    H180383   3.570   6.526   2.485 -1.3171 -1.2209  0.1294
19656TIP3    H280384   3.541   6.434   2.602 -2.2759  2.1192  2.5859
19657TIP3   OH280385   3.773   4.546   5.182  0.4787  0.0601  0.3176
19657TIP3    H180386   3.731   4.605   5.120 -1.0762 -0.2372  1.0640
19657TIP3    H280387   3.863   4.578   5.188  0.5385  0.3493 -1.7460
19658TIP3   OH280388   0.696   1.925   2.203 -0.1709 -0.0958 -0.1923
19658TIP3    H180389   0.749   1.963   2.133  1.3184 -1.3223  0.2499
19658TIP3    H280390   0.675   1.837   2.173  1.1398 -0.9108  1.2199
19659TIP3   OH280391   4.215   5.436  16.391 -0.0388 -0.4773  0.4860
19659TIP3    H180392   4.201   5.504  16.456  0.0906  0.1129 -0.1060
19659TIP3    H280393   4.310   5.429  16.383 -0.0543 -0.5218  0.3302
19660TIP3   OH280394   1.306   5.033  11.981  0.7971  0.5621  0.0329
19660TIP3    H180395   1.270   4.955  11.939  1.4627 -0.1155  0.6977
19660TIP3    H280396   1.399   5.013  11.993  0.3477  0.0970  3.1658
19661TIP3   OH280397   3.610   2.389   4.317  0.1440  0.0340 -0.1754
19661TIP3    H180398   3.679   2.328   4.291 -1.3151 -1.2566 -1.0663
19661TIP3    H280399   3.560   2.342   4.383 -1.5717 -0.1095 -1.5572
19662TIP3   OH280400   6.745   3.373   4.491  0.2567 -0.1777 -0.3056
19662TIP3    H180401   6.810   3.443   4.484  0.2751  0.1252  2.4308
19662TIP3    H280402   6.796   3.295   4.511 -0.1663  0.0827  1.9628
19663TIP3   OH280403   2.169   1.372  16.510 -0.2810  0.0576  0.0440
19663TIP3    H180404   2.246   1.397  16.460 -0.8072 -0.9249 -1.2951
19663TIP3    H280405   2.202   1.318  16.581  0.2740 -0.2600 -0.4590
19664TIP3   OH280406   1.468   4.972  16.072 -0.4184  0.3576  0.3895
19664TIP3    H180407   1.540   4.914  16.044  1.4784  3.0816 -0.6220
19664TIP3    H280408   1.484   4.986  16.165  0.4988  1.0919  0.1341
19665TIP3   OH280409   5.703   6.664   2.789 -0.2344 -0.1893  0.3539
19665TIP3    H180410   5.609   6.658   2.777 -0.1743  0.0386 -0.3003
19665TIP3    H280411   5.715   6.711   2.871 -0.6819 -2.1227  1.5340
19666TIP3   OH280412   1.081   3.115  12.039 -0.4978 -0.3621 -0.0687
19666TIP3    H180413   1.153   3.135  11.979 -1.1284 -0.1286 -0.7509
19666TIP3    H280414   1.038   3.039  11.999 -2.4898  1.3552 -1.2913
19667TIP3   OH280415   1.465   0.229   4.883  0.2999  0.2693  0.3239
19667TIP3    H180416   1.547   0.188   4.854  1.5311  2.2116  0.9670
19667TIP3    H280417   1.454   0.304   4.825 -1.0844 -0.0430  0.1847
19668TIP3   OH280418   3.486   2.039  15.491 -0.2065  0.0870  0.5560
19668TIP3    H180419   3.453   2.027  15.580  0.2048  1.7672  0.9310
19668TIP3    H280420   3.581   2.039  15.499 -0.1760  1.5268  0.2921
19669TIP3   OH280421   4.648   3.482  11.119  0.2843 -0.1054  0.2176
19669TIP3    H180422   4.652   3.561  11.064 -0.5636 -0.1904  0.0273
19669TIP3    H280423   4.740   3.458  11.133  0.5268  0.4500 -0.3967
19670TIP3   OH280424   5.719   0.611  15.791 -0.1785  0.1736 -0.8246
19670TIP3    H180425   5.705   0.620  15.885 -0.2274 -1.6843 -0.6424
19670TIP3    H280426   5.814   0.601  15.783 -0.3817 -1.8960 -0.7674
19671TIP3   OH280427   0.006   1.157  16.770 -0.6273 -0.0815  0.4652
19671TIP3    H180428  -0.086   1.168  16.796 -0.1959  0.6943  1.6840
19671TIP3    H280429   0.055   1.209  16.833  0.6647 -0.5436 -0.1503
19672TIP3   OH280430   3.147   2.891   6.525  0.4557 -0.3251  0.7348
19672TIP3    H180431   3.150   2.801   6.493 -0.2534 -0.3548  0.7505
19672TIP3    H280432   3.231   2.903   6.569  2.2060  0.2358 -2.5545
19673TIP3   OH280433   5.633   2.476  11.216 -0.2633 -0.7152 -0.2190
19673TIP3    H180434   5.697   2.520  11.160 -0.7867  0.8693  0.3873
19673TIP3    H280435   5.549   2.512  11.189 -0.6750 -1.1276  0.4874
19674TIP3   OH280436   3.354   5.698   5.670  0.5355  0.0925  0.1739
19674TIP3    H180437   3.356   5.749   5.751 -3.1275  0.1927  0.2931
19674TIP3    H280438   3.313   5.757   5.606 -0.1818 -1.3367 -0.7067
19675TIP3   OH280439   1.824   5.114  10.841 -0.1832  0.0989  0.1023
19675TIP3    H180440   1.748   5.057  10.827  0.3211 -0.2932 -1.0751
19675TIP3    H280441   1.806   5.191  10.788 -0.0358  0.2773  0.3125
19676TIP3   OH280442   5.828   3.505   1.306 -0.4796 -0.1813  0.8980
19676TIP3    H180443   5.766   3.505   1.233 -1.3702 -0.2655  1.6478
19676TIP3    H280444   5.896   3.568   1.280 -0.8369 -0.1388  0.0492
19677TIP3   OH280445   0.968   6.418  14.142 -0.6125 -0.3596  0.0430
19677TIP3    H180446   0.965   6.325  14.165 -0.7517 -0.4712 -0.4240
19677TIP3    H280447   0.942   6.463  14.223 -2.2354 -0.7930 -0.2176
19678TIP3   OH280448   4.939   2.121   1.314  0.2180  0.1750  0.3085
19678TIP3    H180449   5.014   2.086   1.265  0.0996  0.5710 -0.1608
19678TIP3    H280450   4.972   2.203   1.351  0.0630  0.2734  0.2275
19679TIP3   OH280451   1.591   0.797  13.670  0.3465 -0.5831 -0.5037
19679TIP3    H180452   1.647   0.873  13.657  1.1303 -1.1405 -0.4051
19679TIP3    H280453   1.503   0.827  13.645  0.7740  0.1318 -1.1610
19680TIP3   OH280454   4.880   0.813  13.087  0.2248  0.8199  0.1645
19680TIP3    H180455   4.805   0.772  13.046  0.1618  0.1363  0.9571
19680TIP3    H280456   4.917   0.745  13.143  0.3589  1.7076  1.1676
19681TIP3   OH280457   1.779   6.053  15.103 -0.3133 -0.3453 -0.0476
19681TIP3    H180458   1.766   6.011  15.018  0.2139  0.1589 -0.3828
19681TIP3    H280459   1.743   6.141  15.091 -5.0269 -1.8594  1.7973
19682TIP3   OH280460   0.216   3.759   5.128 -0.2010 -0.1414 -0.0617
19682TIP3    H180461   0.283   3.815   5.090 -0.9893  0.7823 -0.1245
19682TIP3    H280462   0.222   3.678   5.078  1.3056 -0.3095  0.3803
19683TIP3   OH280463   2.845   6.744   5.264  0.3791  0.6489  0.5579
19683TIP3    H180464   2.762   6.742   5.312 -0.9735 -0.6510 -1.7264
19683TIP3    H280465   2.821   6.775   5.176  1.8535 -2.1401 -0.8844
19684TIP3   OH280466   6.514   3.839  13.446 -0.0160 -0.1638  0.3290
19684TIP3    H180467   6.562   3.890  13.511 -0.2801  0.0766  0.3337
19684TIP3    H280468   6.430   3.883  13.438 -0.1470 -0.4458  0.1406
19685TIP3   OH280469   4.832   5.404   0.606 -0.0459  0.2897 -0.4878
19685TIP3    H180470   4.822   5.309   0.616  0.2440  0.1065 -1.9101
19685TIP3    H280471   4.924   5.421   0.627  0.7810 -0.2093 -3.6108
19686TIP3   OH280472   3.114   1.134  13.774 -0.2567  0.0923  0.2394
19686TIP3    H180473   3.066   1.078  13.714 -1.4220  1.1752  0.1528
19686TIP3    H280474   3.053   1.205  13.796  1.1606  1.2810  0.4203
19687TIP3   OH280475   1.175   0.285   0.783  0.1159 -0.1930  0.1449
19687TIP3    H180476   1.216   0.367   0.756 -1.5237  1.3820  2.2407
19687TIP3    H280477   1.136   0.251   0.702  3.4233 -0.5468 -1.3953
19688TIP3   OH280478   2.342   6.746  15.746  0.3720  0.0595 -1.2156
19688TIP3    H180479   2.379   6.834  15.744  2.2184 -0.7087 -3.6139
19688TIP3    H280480   2.320   6.727  15.655 -2.0699 -1.1470 -0.4268
19689TIP3   OH280481   1.460   1.932  16.694  0.1117  0.4191  0.0090
19689TIP3    H180482   1.489   1.983  16.770  0.5791 -0.0191  0.1250
19689TIP3    H280483   1.424   1.997  16.634 -0.9365  0.6976  0.9172
19690TIP3   OH280484   3.585   4.482   3.522 -0.7805 -0.5851 -0.1829
19690TIP3    H180485   3.614   4.436   3.600  1.5133  0.0457 -0.6205
19690TIP3    H280486   3.554   4.567   3.553  1.7946  0.3732 -0.0774
19691TIP3   OH280487   0.660   1.877  14.024  0.5125  0.9522 -0.2497
19691TIP3    H180488   0.581   1.904  13.979  0.1869  0.3141 -0.0724
19691TIP3    H280489   0.716   1.954  14.023  0.8811  0.6975 -2.5296
19692TIP3   OH280490   1.214   5.778   5.137  0.0294 -0.8909 -0.0402
19692TIP3    H180491   1.230   5.685   5.127 -0.9530 -0.8879 -2.0609
19692TIP3    H280492   1.147   5.798   5.071 -1.0805  0.8974  1.5361
19693TIP3   OH280493   6.649   6.603   5.740  0.3469 -0.5890  0.5465
19693TIP3    H180494   6.721   6.572   5.794  0.3040  0.6174  1.3160
19693TIP3    H280495   6.654   6.699   5.745 -1.2632 -0.4826  0.5684
19694TIP3   OH280496   2.497   5.043  16.881  0.1296 -0.2021 -0.5656
19694TIP3    H180497   2.405   5.066  16.874  0.3895  1.3294  0.6874
19694TIP3    H280498   2.536   5.068  16.798  0.2220  3.1484  0.4263
19695TIP3   OH280499   0.647   5.884  12.328 -0.2140  0.1918  0.5776
19695TIP3    H180500   0.628   5.790  12.320  0.3554 -0.2119  3.3763
19695TIP3    H280501   0.577   5.927  12.278 -2.2103 -1.6432  1.6716
19696TIP3   OH280502   3.035   5.730  11.909 -0.4895 -0.1235 -0.4118
19696TIP3    H180503   3.050   5.816  11.869 -0.7846  0.6828  1.1680
19696TIP3    H280504   3.109   5.718  11.969 -0.5667 -0.8777 -0.4642
19697TIP3   OH280505   3.241   4.289   0.255 -0.2525  0.1751  0.1170
19697TIP3    H180506   3.296   4.339   0.195  1.3477 -0.4450  1.0356
19697TIP3    H280507   3.290   4.208   0.270 -1.2928 -0.2728  1.1443
19698TIP3   OH280508   4.835   2.003  14.265  0.7974 -0.2433 -0.5400
19698TIP3    H180509   4.909   1.990  14.324 -0.3788  0.1409  1.0364
19698TIP3    H280510   4.859   1.955  14.186  1.5945 -2.2844  0.9085
19699TIP3   OH280511   2.639   4.371  11.909  0.0634  0.2712 -0.1405
19699TIP3    H180512   2.566   4.344  11.964  0.7172  0.3224  0.7552
19699TIP3    H280513   2.681   4.442  11.957  1.7403 -0.9094  0.1809
19700TIP3   OH280514   5.510   1.743   3.081  0.3305  0.1121  0.1052
19700TIP3    H180515   5.598   1.778   3.064  0.0916  1.1444  0.9150
19700TIP3    H280516   5.488   1.776   3.168 -1.0846  0.3094 -0.3138
19701TIP3   OH280517   2.869   5.175   1.022  0.8765  0.4509  0.1942
19701TIP3    H180518   2.897   5.094   1.065  1.5332  1.3642  1.5132
19701TIP3    H280519   2.773   5.170   1.024  0.8746 -1.6967 -2.4626
19702TIP3   OH280520   5.680   0.736  16.880  0.2536 -0.4029  0.1791
19702TIP3    H180521   5.600   0.738  16.932  1.3820 -1.1844  2.0221
19702TIP3    H280522   5.690   0.826  16.847 -1.3335 -0.2965 -0.0193
19703TIP3   OH280523   0.498   2.475  13.554  0.0647 -0.9012 -0.2297
19703TIP3    H180524   0.420   2.458  13.607  0.9684 -0.4557  1.2374
19703TIP3    H280525   0.468   2.538  13.488 -0.7610 -0.6076  0.4195
19704TIP3   OH280526   2.175   2.400   0.167 -0.5313  0.3590 -0.4633
19704TIP3    H180527   2.196   2.340   0.239  1.5546  1.6497  0.0571
19704TIP3    H280528   2.091   2.369   0.133 -0.0400 -2.1610  0.5190
19705TIP3   OH280529   6.447   0.880   1.469 -0.6254  0.3080 -0.4093
19705TIP3    H180530   6.393   0.812   1.428  0.4724 -0.3765 -0.7384
19705TIP3    H280531   6.536   0.846   1.464 -0.2029  1.2720  0.4515
19706TIP3   OH280532   6.723   6.173  15.727 -0.2277 -0.0878 -0.3723
19706TIP3    H180533   6.638   6.211  15.704  0.3061  1.0825 -0.4548
19706TIP3    H280534   6.747   6.122  15.650 -1.0466 -0.7629 -0.1847
19707TIP3   OH280535   3.930   5.122   3.672  0.2512 -0.3424  0.5756
19707TIP3    H180536   3.900   5.203   3.630 -1.5954 -1.2788 -0.0022
19707TIP3    H280537   3.956   5.065   3.599  2.3982  0.0229  1.0190
19708TIP3   OH280538   1.812   3.237  15.876  0.2868  0.0507  0.6706
19708TIP3    H180539   1.817   3.332  15.891 -2.0064  0.6645 -2.0002
19708TIP3    H280540   1.861   3.225  15.794 -2.5675 -0.4651 -1.0252
19709TIP3   OH280541   0.928   0.051   2.274 -0.1810 -0.2244 -0.6820
19709TIP3    H180542   0.878   0.079   2.197  1.1990 -0.5194 -1.7212
19709TIP3    H280543   0.911  -0.043   2.281  0.9733 -0.5209 -1.6323
19710TIP3   OH280544   0.580   4.288   0.017 -0.7040  0.1000 -0.0909
19710TIP3    H180545   0.654   4.346   0.002 -0.7413  0.5109  1.2571
19710TIP3    H280546   0.612   4.201  -0.006 -0.5316  0.5763 -1.7508
19711TIP3   OH280547   3.803   5.009  11.192  0.1263 -0.0459  0.0306
19711TIP3    H180548   3.824   4.963  11.110 -1.5651  0.3176 -0.6308
19711TIP3    H280549   3.848   5.092  11.185 -0.2918  0.1280 -0.7117
19712TIP3   OH280550   6.752   6.288  17.015  0.2541 -0.1605  0.6230
19712TIP3    H180551   6.693   6.265  16.944  0.2455 -0.4107  0.7116
19712TIP3    H280552   6.838   6.257  16.986  0.2803 -0.1150  0.6495
19713TIP3   OH280553   5.999   5.673  17.196  0.2816  0.1604  0.3575
19713TIP3    H180554   5.969   5.697  17.284  0.5815  1.1320  0.2076
19713TIP3    H280555   6.053   5.596  17.210  0.9817  0.7760  1.1497
19714TIP3   OH280556   1.026   2.476   3.677 -0.2689  0.5258  0.3226
19714TIP3    H180557   1.114   2.465   3.642 -0.0429  1.2163  0.6752
19714TIP3    H280558   1.018   2.569   3.694 -1.4973  0.6402 -0.8447
19715TIP3   OH280559   0.249   6.044  16.315  0.1975 -0.3763 -0.1000
19715TIP3    H180560   0.275   5.976  16.253 -3.2010 -0.0123 -2.0381
19715TIP3    H280561   0.301   6.121  16.289  0.0530 -0.7068 -1.3986
19716TIP3   OH280562   0.786   1.038  11.963 -0.5811  0.1101 -0.2793
19716TIP3    H180563   0.875   1.036  12.000 -0.2302  1.3375 -1.0313
19716TIP3    H280564   0.789   0.973  11.892 -0.3960 -0.1251 -0.0552
19717TIP3   OH280565   2.352   3.862   6.323  0.3955 -0.5603  0.4685
19717TIP3    H180566   2.295   3.834   6.395 -0.4607 -1.0046 -0.3637
19717TIP3    H280567   2.291   3.897   6.258  1.2301  0.6495  0.3250
19718TIP3   OH280568   4.911   3.692   4.654  0.2996 -0.4051 -0.2321
19718TIP3    H180569   4.884   3.604   4.628 -3.9098  0.9024 -0.6677
19718TIP3    H280570   4.874   3.704   4.741 -0.2839  1.3521 -0.6915
19719TIP3   OH280571   0.030   1.526  12.716  0.4209 -0.1843  0.0024
19719TIP3    H180572   0.022   1.616  12.748  0.1023 -0.2542  0.1287
19719TIP3    H280573  -0.055   1.509  12.674  1.6443  0.7120 -2.9580
19720TIP3   OH280574   3.148   2.808  11.917 -0.3500  0.1532  0.3876
19720TIP3    H180575   3.091   2.735  11.895  0.5463  0.1798 -2.3030
19720TIP3    H280576   3.104   2.885  11.880 -0.2687  0.6685  1.3577
19721TIP3   OH280577   0.696   3.621   3.018 -0.3732  0.6462  0.1549
19721TIP3    H180578   0.668   3.659   3.101  0.0185  0.8655  0.1883
19721TIP3    H280579   0.764   3.680   2.986 -0.1979  0.3128 -0.0947
19722TIP3   OH280580   5.231   1.446  15.158  0.6994  0.0304  0.3263
19722TIP3    H180581   5.247   1.388  15.233  1.0447  1.1552  1.1390
19722TIP3    H280582   5.306   1.432  15.101  0.7738 -0.3295  0.5078
19723TIP3   OH280583   2.919   2.652   4.521  0.3399  0.1160  0.1372
19723TIP3    H180584   2.847   2.591   4.534  0.7458 -0.4673 -0.2752
19723TIP3    H280585   2.890   2.734   4.560 -0.1140 -0.4167  0.9199
19724TIP3   OH280586   3.033   6.013  17.095 -0.1917 -0.2154 -0.5517
19724TIP3    H180587   3.082   5.937  17.063  2.5568  1.3102 -0.0520
19724TIP3    H280588   3.016   6.065  17.016  3.0120  1.5046 -0.1695
19725TIP3   OH280589   3.014   4.898   2.359 -0.0347  0.0834  0.0488
19725TIP3    H180590   2.978   4.822   2.313  0.1742  0.0728 -0.0989
19725TIP3    H280591   3.105   4.902   2.331 -0.3383  1.0659 -0.8312
19726TIP3   OH280592   2.720   0.070   4.230 -0.2508  0.0724  0.0214
19726TIP3    H180593   2.758   0.018   4.301  2.4073 -1.2701 -2.2801
19726TIP3    H280594   2.767   0.154   4.235 -0.2782  0.0868  0.0368
19727TIP3   OH280595   1.336   2.285   4.446  0.3404 -0.3369 -0.2221
19727TIP3    H180596   1.313   2.374   4.472 -0.7912 -1.0516  1.3224
19727TIP3    H280597   1.290   2.272   4.363 -1.4667 -0.2689  0.7219
19728TIP3   OH280598   1.066   0.690  16.333 -0.4031  0.0910  0.5101
19728TIP3    H180599   0.974   0.680  16.358 -0.5017  0.7575  0.4113
19728TIP3    H280600   1.107   0.608  16.361 -1.4975 -1.2101 -1.5277
19729TIP3   OH280601   2.153   3.438  15.014  0.2114 -0.0914 -0.2713
19729TIP3    H180602   2.100   3.374  14.968  1.3068  0.0516 -1.7988
19729TIP3    H280603   2.095   3.514  15.023 -1.0223 -1.2042  1.3754
19730TIP3   OH280604   1.885   2.413   1.794  0.2424 -0.1517 -0.0935
19730TIP3    H180605   1.825   2.354   1.747  0.4872 -1.2250  0.9105
19730TIP3    H280606   1.827   2.467   1.848 -0.0498  1.1762 -1.6956
19731TIP3   OH280607   2.386   3.071   2.914 -0.0062 -0.5074  0.2749
19731TIP3    H180608   2.411   2.987   2.878 -0.9264 -0.6090 -0.1492
19731TIP3    H280609   2.314   3.051   2.974 -0.6399  0.0431 -0.2914
19732TIP3   OH280610   1.066   6.245  12.254  0.7835  0.0312  0.2594
19732TIP3    H180611   1.106   6.296  12.183  0.3538 -0.4509 -0.3319
19732TIP3    H280612   1.006   6.306  12.296  0.4290  0.0818 -0.3128
19733TIP3   OH280613   6.703   1.281  15.839  0.1633  1.0009  0.1493
19733TIP3    H180614   6.719   1.284  15.745  1.0715  2.5464  0.3266
19733TIP3    H280615   6.789   1.260  15.877 -0.4467 -0.7792  0.5709
19734TIP3   OH280616   1.762   3.696   5.802 -0.5944  0.5644  0.5169
19734TIP3    H180617   1.719   3.647   5.732 -0.9030  3.0664 -1.0928
19734TIP3    H280618   1.763   3.635   5.876 -0.1763 -2.1734 -1.6546
19735TIP3   OH280619   6.784   5.218   2.699 -0.0466  0.3713 -0.4055
19735TIP3    H180620   6.702   5.268   2.703  0.5273  1.2414  0.5795
19735TIP3    H280621   6.816   5.218   2.789  0.3217 -1.1863 -0.5330
19736TIP3   OH280622   0.131   4.074   2.871 -0.1706  0.3354  0.5292
19736TIP3    H180623   0.171   4.115   2.794 -3.6580 -2.0231 -2.7765
19736TIP3    H280624   0.082   4.144   2.913  0.2289  1.2767 -0.5393
19737TIP3   OH280625   6.459   6.306  16.956  0.0130  0.3447 -0.3708
19737TIP3    H180626   6.470   6.246  16.883 -0.5684 -0.6629  0.3532
19737TIP3    H280627   6.514   6.270  17.026 -1.0096  0.1612  0.3577
19738TIP3   OH280628   6.252   3.080  15.508 -0.0451  0.8147 -0.1477
19738TIP3    H180629   6.313   3.067  15.435 -1.4121  0.8762 -1.3175
19738TIP3    H280630   6.167   3.050  15.474 -0.7145  0.9326  1.3905
19739TIP3   OH280631   2.686   0.386   0.662  0.0695  0.0481  0.0150
19739TIP3    H180632   2.621   0.316   0.663  0.8225 -0.6547  0.3475
19739TIP3    H280633   2.656   0.449   0.728 -1.2933  0.6850 -1.1807
19740TIP3   OH280634   0.045   3.486  15.361 -0.0660  0.3133  0.1436
19740TIP3    H180635   0.134   3.489  15.326 -0.0887 -0.2317  0.0394
19740TIP3    H280636   0.053   3.439  15.444  0.1070  2.2065  1.2366
19741TIP3   OH280637   1.846   5.590   2.929 -0.4901 -0.3249 -0.2391
19741TIP3    H180638   1.810   5.583   2.840 -1.3707  1.5287 -0.0628
19741TIP3    H280639   1.887   5.677   2.931  2.1144 -1.5196  0.2681
19742TIP3   OH280640   1.947   4.225   4.695  0.0836  0.7368 -0.1712
19742TIP3    H180641   1.863   4.219   4.649 -0.8608 -0.1476  1.6445
19742TIP3    H280642   1.924   4.256   4.782  1.1956 -2.9883  1.5451
19743TIP3   OH280643   5.057   6.108   2.467 -0.0352  0.3509  0.2611
19743TIP3    H180644   5.039   6.088   2.559  0.7312  0.0468  0.3448
19743TIP3    H280645   4.988   6.170   2.443  0.4257  1.3283  1.3736
19744TIP3   OH280646   4.364   6.647   3.541  0.0275  0.1428 -0.2830
19744TIP3    H180647   4.416   6.723   3.514 -0.1638 -0.0871 -1.3154
19744TIP3    H280648   4.357   6.593   3.462  0.1960 -0.9721  0.4423
19745TIP3   OH280649   6.462   0.394   3.765 -0.0023  0.3512  0.5746
19745TIP3    H180650   6.439   0.310   3.726  1.3209  0.0125  0.5048
19745TIP3    H280651   6.425   0.459   3.705  1.5134 -0.1737 -0.9771
19746TIP3   OH280652   1.002   6.172  17.207 -0.3065 -0.6497 -0.3451
19746TIP3    H180653   1.039   6.141  17.289  0.4099  1.8530  0.3200
19746TIP3    H280654   1.076   6.170  17.145 -0.1514  0.1271 -0.1872
19747TIP3   OH280655   1.573   1.758  12.179 -0.2068 -0.2023  0.1807
19747TIP3    H180656   1.606   1.692  12.118 -2.0763 -0.9153 -0.0825
19747TIP3    H280657   1.651   1.807  12.205  0.9334 -1.2963 -1.0795
19748TIP3   OH280658   2.485   5.331   5.843  0.2310 -0.3401  0.1299
19748TIP3    H180659   2.520   5.392   5.909 -0.3995 -0.8834  0.9843
19748TIP3    H280660   2.540   5.254   5.851 -1.0654 -1.1638  1.4181
19749TIP3   OH280661   4.896   2.330  14.722 -0.1472 -0.5627 -1.0806
19749TIP3    H180662   4.977   2.330  14.671  0.9378 -1.0372  0.5743
19749TIP3    H280663   4.839   2.268  14.677 -0.4899  1.4989 -3.5932
19750TIP3   OH280664   4.118   4.336  15.083 -0.2081  0.2720 -0.0829
19750TIP3    H180665   4.131   4.367  15.173  0.7938 -4.5390  1.5538
19750TIP3    H280666   4.201   4.354  15.039  0.6693 -0.9440  1.0818
19751TIP3   OH280667   3.536   2.678  16.796  0.1809  0.6204 -0.4244
19751TIP3    H180668   3.566   2.624  16.869 -0.1771  0.0077 -0.7240
19751TIP3    H280669   3.612   2.685  16.738  0.1436  0.1815 -0.5295
19752TIP3   OH280670   2.409   2.824   0.638  0.0162 -0.2522  0.0251
19752TIP3    H180671   2.453   2.827   0.723  3.4439  1.9083 -1.6528
19752TIP3    H280672   2.481   2.827   0.575 -2.5042  0.6014 -2.9244
19753TIP3   OH280673   1.115   5.462   4.096  0.5172  0.1052 -0.1086
19753TIP3    H180674   1.147   5.447   4.008 -3.0232  0.3673 -1.5257
19753TIP3    H280675   1.042   5.401   4.107 -1.1880  2.2952  1.3970
19754TIP3   OH280676   4.751   6.632  11.327  0.6528  1.0032 -0.1868
19754TIP3    H180677   4.770   6.662  11.238 -0.5268  1.7555 -0.1967
19754TIP3    H280678   4.717   6.543  11.316  1.2361  0.8039 -0.4138
19755TIP3   OH280679   5.164   0.598  16.227  0.1736 -0.1552  0.1490
19755TIP3    H180680   5.113   0.668  16.267  2.4143  0.4016  2.1093
19755TIP3    H280681   5.105   0.522  16.228 -0.9272  0.6885  1.5189
19756TIP3   OH280682   4.350   1.204   4.821 -0.4419 -0.1780 -0.0279
19756TIP3    H180683   4.311   1.272   4.876 -0.1021  0.3095 -0.3773
19756TIP3    H280684   4.392   1.144   4.882 -1.5272 -0.5843  0.3439
19757TIP3   OH280685   4.252   1.693   5.519 -1.0004  0.3003  0.1233
19757TIP3    H180686   4.265   1.787   5.511 -0.6255  0.0407 -3.1888
19757TIP3    H280687   4.192   1.683   5.593  0.1803  2.9923  1.5306
19758TIP3   OH280688   1.750   4.327  16.566  0.2509  0.2950  0.4283
19758TIP3    H180689   1.796   4.271  16.628  2.0494  0.5994 -0.5985
19758TIP3    H280690   1.725   4.269  16.494  0.3015  0.4092  0.3169
19759TIP3   OH280691   3.581   3.837  10.713 -0.5189 -0.0507  0.5316
19759TIP3    H180692   3.543   3.920  10.743  3.3293  1.2881  1.9932
19759TIP3    H280693   3.643   3.862  10.644  0.0182 -1.8067  0.3622
19760TIP3   OH280694   3.040   3.489   0.337 -0.1281  0.4436  0.4184
19760TIP3    H180695   3.002   3.403   0.321  1.2611  0.2336 -1.9630
19760TIP3    H280696   2.985   3.550   0.288  0.3124  0.6121  0.1306
19761TIP3   OH280697   2.021   5.790  12.777 -0.1040  0.6305 -0.1779
19761TIP3    H180698   2.014   5.740  12.859  1.5571 -1.5750 -1.3640
19761TIP3    H280699   2.103   5.761  12.737  0.4851  3.6890 -1.3400
19762TIP3   OH280700   3.519   5.826  15.804  0.4085 -0.2914  0.3414
19762TIP3    H180701   3.572   5.845  15.881  2.3225 -0.8931 -0.7705
19762TIP3    H280702   3.502   5.911  15.764 -0.8911  0.0536  1.5951
19763TIP3   OH280703   6.482   0.714  14.167 -0.9519  0.0799  0.5837
19763TIP3    H180704   6.393   0.697  14.196 -1.0750 -1.9622 -0.9160
19763TIP3    H280705   6.477   0.714  14.071  0.6142  0.1224  0.4911
19764TIP3   OH280706   3.525   6.195  10.674 -0.4879 -0.1536 -0.0377
19764TIP3    H180707   3.539   6.103  10.652  3.7352  0.0079  1.4461
19764TIP3    H280708   3.538   6.242  10.592 -0.6433 -0.7037 -0.3836
19765TIP3   OH280709   5.520   0.273  11.045 -0.3171  0.0450  0.2430
19765TIP3    H180710   5.543   0.183  11.069  0.7845  0.6496  1.4447
19765TIP3    H280711   5.536   0.276  10.950 -0.8019 -1.1436  0.1032
19766TIP3   OH280712   6.186   1.239  16.242  0.2034 -0.4398 -0.0753
19766TIP3    H180713   6.229   1.195  16.315 -1.2803 -0.4867  0.7971
19766TIP3    H280714   6.199   1.181  16.168  0.1494 -1.2786  0.5713
19767TIP3   OH280715   6.405   2.021  12.083 -0.0270 -0.6975  0.3776
19767TIP3    H180716   6.377   2.029  11.992  1.2335 -0.1938  0.0214
19767TIP3    H280717   6.331   1.979  12.127 -0.3040 -1.7596 -1.0515
19768TIP3   OH280718   3.891   6.567  14.489 -0.0336  0.3938 -0.3890
19768TIP3    H180719   3.869   6.611  14.571 -0.5535 -0.7682  0.1062
19768TIP3    H280720   3.864   6.476  14.503 -0.1750  0.2028 -1.8681
19769TIP3   OH280721   3.150   2.749  17.191  0.0490 -0.1746  0.0694
19769TIP3    H180722   3.209   2.778  17.122 -1.0536  0.1362 -0.7500
19769TIP3    H280723   3.113   2.667  17.159 -0.1524 -0.2476  0.4811
19770TIP3   OH280724   4.096   6.243  13.078 -0.5163  0.2947  0.1816
19770TIP3    H180725   4.177   6.241  13.026 -0.1849  0.5516  0.6785
19770TIP3    H280726   4.118   6.194  13.158 -0.7440  0.6579  0.4675
19771TIP3   OH280727   1.829   1.231   1.580 -0.6765 -0.2488  0.8049
19771TIP3    H180728   1.781   1.210   1.660 -1.2956 -0.4465  0.3907
19771TIP3    H280729   1.782   1.184   1.511 -0.7393  0.6973  0.1852
19772TIP3   OH280730   2.636   2.804  13.321  0.2327  0.2175 -0.0404
19772TIP3    H180731   2.560   2.752  13.346  0.0342 -0.3994 -1.8223
19772TIP3    H280732   2.603   2.894  13.318 -0.5665 -0.0894 -1.2021
19773TIP3   OH280733   4.324   1.959  16.003  0.4871 -0.1674 -0.1281
19773TIP3    H180734   4.235   1.946  16.037  1.1726 -1.3792  1.2602
19773TIP3    H280735   4.311   2.001  15.918 -1.4284 -0.6779 -0.1178
19774TIP3   OH280736   3.218   3.042  14.951  0.4848 -0.0179 -0.1037
19774TIP3    H180737   3.158   2.983  14.906  1.7049 -0.8452 -0.6384
19774TIP3    H280738   3.213   3.124  14.901  0.9336 -0.5524 -1.0233
19775TIP3   OH280739   5.015   6.096   1.022 -0.2322  0.1038  0.1103
19775TIP3    H180740   4.953   6.045   0.969 -1.5091  3.0042 -1.2688
19775TIP3    H280741   4.972   6.105   1.107 -0.3675 -0.3783  0.0991
19776TIP3   OH280742   0.891   5.586   3.938 -0.2729  0.4412  0.0243
19776TIP3    H180743   0.850   5.501   3.957 -0.3835  0.5135  0.1098
19776TIP3    H280744   0.985   5.570   3.948 -0.1594 -0.1545 -1.8827
19777TIP3   OH280745   2.533   1.436   2.941  0.3887  0.0623 -0.3472
19777TIP3    H180746   2.460   1.485   2.979  1.1877 -1.2253  3.0700
19777TIP3    H280747   2.571   1.495   2.877 -0.9933  2.4161  0.9248
19778TIP3   OH280748   4.140   3.577  15.726  0.4894  0.9169 -0.1034
19778TIP3    H180749   4.151   3.653  15.782  0.3533  1.6665 -1.0963
19778TIP3    H280750   4.091   3.514  15.780 -0.6269  2.0649  0.2308
19779TIP3   OH280751   1.625   2.117  12.410 -0.0637 -0.3365 -0.1502
19779TIP3    H180752   1.644   2.109  12.316 -0.0711  0.2273 -0.2038
19779TIP3    H280753   1.548   2.174  12.413 -0.0622 -0.3537  0.1997
19780TIP3   OH280754   0.047   6.170   4.433  0.0984  0.2950  0.1380
19780TIP3    H180755   0.121   6.113   4.456 -0.5687 -1.4452 -1.8793
19780TIP3    H280756  -0.027   6.134   4.482 -0.2024 -0.3068 -0.7251
19781TIP3   OH280757   3.719   3.040   5.830 -0.0628 -0.1179 -0.0645
19781TIP3    H180758   3.789   3.048   5.895  2.2894  0.6605 -2.6100
19781TIP3    H280759   3.707   3.129   5.796 -1.8786 -0.3571 -0.1136
19782TIP3   OH280760   3.978   3.112  11.489  0.0037  0.2504  0.7552
19782TIP3    H180761   3.979   3.042  11.423  0.2347  1.6088 -0.7064
19782TIP3    H280762   3.985   3.193  11.438 -0.9476  1.3758  2.3820
19783TIP3   OH280763   1.779   6.303  16.731 -0.7798 -0.2330 -0.1835
19783TIP3    H180764   1.746   6.262  16.651  1.5235 -1.9262 -0.3351
19783TIP3    H280765   1.717   6.278  16.799 -1.8163 -0.2210 -1.1156
19784TIP3   OH280766   3.520   6.685  12.002  0.1469 -0.0627  0.2244
19784TIP3    H180767   3.499   6.715  11.913  2.3364  0.7172 -0.0622
19784TIP3    H280768   3.574   6.607  11.988  1.3578  0.6452  0.8230
19785TIP3   OH280769   0.462   0.535   3.425 -0.0304 -0.1638 -0.3751
19785TIP3    H180770   0.401   0.606   3.443 -0.6761 -0.7786 -0.0935
19785TIP3    H280771   0.454   0.476   3.501  3.4969  1.4948  1.4274
19786TIP3   OH280772   2.714   3.271   4.288 -0.4434  0.4037 -0.0773
19786TIP3    H180773   2.790   3.328   4.298 -0.8934  0.8468  0.8062
19786TIP3    H280774   2.732   3.221   4.208  0.6974  0.6242  0.0385
19787TIP3   OH280775   6.578   0.982   0.473 -0.2740 -0.1071  0.6936
19787TIP3    H180776   6.582   0.904   0.528 -0.9539  1.3809  2.9369
19787TIP3    H280777   6.669   1.010   0.463  0.2438 -2.6570 -2.3852
19788TIP3   OH280778   0.440   4.988  10.789  0.1149 -0.0457 -0.1657
19788TIP3    H180779   0.408   4.988  10.699  0.0643 -2.1538 -0.1593
19788TIP3    H280780   0.370   4.947  10.840  0.4639  0.4409  0.7152
19789TIP3   OH280781   1.863   2.335  14.740 -0.1769  0.1844 -0.1782
19789TIP3    H180782   1.850   2.273  14.667  1.9250 -0.3289 -0.1636
19789TIP3    H280783   1.928   2.397  14.707 -0.8850  1.2772  0.4797
19790TIP3   OH280784   5.975   1.888   6.333 -0.1166 -0.2906 -0.5602
19790TIP3    H180785   5.996   1.797   6.354  1.4618  0.0343 -0.6589
19790TIP3    H280786   6.057   1.935   6.349 -1.3326  1.3541  0.8881
19791TIP3   OH280787   2.498   6.558  10.480 -0.2043 -0.6369  0.1526
19791TIP3    H180788   2.588   6.544  10.506  0.0044 -0.7658 -0.6413
19791TIP3    H280789   2.475   6.643  10.519 -0.3311 -1.4422  1.8848
19792TIP3   OH280790   6.787   2.717   2.860  0.1317  0.8776  0.9949
19792TIP3    H180791   6.842   2.647   2.826 -1.2565 -0.2402  1.0087
19792TIP3    H280792   6.841   2.759   2.927  1.0867  0.0169  0.7805
19793TIP3   OH280793   0.825   0.461  16.030 -0.1859  0.0314 -0.0828
19793TIP3    H180794   0.758   0.515  16.071 -0.1307  0.2040 -0.2182
19793TIP3    H280795   0.777   0.387  15.992 -0.4713  0.8795 -1.3975
19794TIP3   OH280796   4.496   5.342   5.246 -0.2289 -0.1870 -0.1185
19794TIP3    H180797   4.587   5.346   5.215 -0.3996  0.4254 -0.5464
19794TIP3    H280798   4.500   5.372   5.336  0.4279 -2.9249  0.8189
19795TIP3   OH280799   3.752   3.333  16.365 -0.8837 -0.1375  0.0693
19795TIP3    H180800   3.811   3.349  16.292  0.4232 -1.4476  0.8063
19795TIP3    H280801   3.697   3.411  16.369  0.4959  0.9079 -0.9059
19796TIP3   OH280802   4.708   6.144   0.585 -0.1933  0.0836 -0.5409
19796TIP3    H180803   4.780   6.203   0.606  0.6764 -0.4210 -2.0041
19796TIP3    H280804   4.740   6.093   0.511 -2.4862  0.6508 -1.9816
19797TIP3   OH280805   1.735   5.136   2.904  0.2027 -0.2586 -0.4988
19797TIP3    H180806   1.676   5.211   2.900  1.0522  0.4062 -0.7776
19797TIP3    H280807   1.678   5.060   2.897 -0.6508  0.3674 -0.4107
19798TIP3   OH280808   0.932   3.744   0.028  0.1103  0.3618  0.0643
19798TIP3    H180809   0.946   3.795  -0.052  2.1983  1.2057  0.9043
19798TIP3    H280810   0.861   3.789   0.074 -0.5253  0.3649 -0.9283
19799TIP3   OH280811   5.896   3.943  14.558  0.1846 -0.0202 -0.7261
19799TIP3    H180812   5.820   3.969  14.506 -1.2029 -1.5659  0.4752
19799TIP3    H280813   5.882   3.850  14.576 -0.5780  0.9146  4.2955
19800TIP3   OH280814   0.067   5.891  14.509  0.0960  0.7916 -0.1712
19800TIP3    H180815   0.083   5.896  14.415  0.4003  0.7341 -0.1230
19800TIP3    H280816   0.074   5.981  14.540  0.5622  0.7342 -0.1124
19801TIP3   OH280817   6.678   2.476   5.101  0.0710  0.0024  0.1552
19801TIP3    H180818   6.637   2.551   5.144  0.4638  0.7055 -0.6939
19801TIP3    H280819   6.684   2.501   5.009 -1.0783 -1.6411 -0.3944
19802TIP3   OH280820   3.839   5.050  17.052 -0.2211  0.1841  0.2857
19802TIP3    H180821   3.790   4.988  17.107 -0.6260 -0.2077 -0.5145
19802TIP3    H280822   3.865   4.998  16.975 -3.3659  1.8381 -1.9649
19803TIP3   OH280823   0.694   6.455   4.185 -0.2833  0.2586 -0.9166
19803TIP3    H180824   0.736   6.471   4.100  0.2960  0.7060 -0.5483
19803TIP3    H280825   0.612   6.409   4.163  1.0399 -1.8752 -1.5505
19804TIP3   OH280826   5.881   6.470  15.118 -0.2021 -0.3974 -0.3381
19804TIP3    H180827   5.926   6.428  15.045  1.1511 -1.7036  1.2273
19804TIP3    H280828   5.882   6.405  15.188 -1.6029  0.7898  0.8235
19805TIP3   OH280829   6.617   0.602   5.495  0.0926  0.1586  0.1310
19805TIP3    H180830   6.580   0.591   5.582 -0.4233 -2.1294 -0.3557
19805TIP3    H280831   6.571   0.538   5.441  1.4590  0.5200 -1.4991
19806TIP3   OH280832   4.813   6.294  14.520  0.1862 -0.5818  0.2667
19806TIP3    H180833   4.754   6.369  14.528 -0.1886 -0.7531 -0.7909
19806TIP3    H280834   4.848   6.301  14.431  1.0342 -1.0175  0.5617
19807TIP3   OH280835   3.473   3.085   0.776  0.2118 -0.6760  0.8204
19807TIP3    H180836   3.391   3.093   0.824  0.0605 -2.2885  0.8593
19807TIP3    H280837   3.538   3.064   0.843  0.0411 -2.7140  0.3569
19808TIP3   OH280838   5.106   4.940   4.644  0.0550  0.1486 -0.5116
19808TIP3    H180839   5.111   4.850   4.611  0.6078  0.1999 -0.5734
19808TIP3    H280840   5.094   4.931   4.738 -0.2828  0.0071 -0.5693
19809TIP3   OH280841   0.658   3.153  14.500  0.6046 -0.2460 -0.4520
19809TIP3    H180842   0.641   3.065  14.534 -1.3871 -0.4242 -1.8317
19809TIP3    H280843   0.737   3.144  14.447  0.6490 -1.1138 -0.2358
19810TIP3   OH280844   4.589   4.187  12.510 -0.1319 -0.2410  0.0905
19810TIP3    H180845   4.542   4.259  12.550  1.0022 -0.1349  1.2528
19810TIP3    H280846   4.534   4.110  12.525  0.0172 -0.0991  1.3471
19811TIP3   OH280847   2.058   6.017  13.558  0.0187 -0.4736 -0.1671
19811TIP3    H180848   2.062   6.104  13.599  1.4092 -0.6570  0.1305
19811TIP3    H280849   2.029   5.959  13.629 -0.4172 -0.3380 -0.2327
19812TIP3   OH280850   4.170   2.389  14.312  0.6033  0.0180 -0.2450
19812TIP3    H180851   4.121   2.356  14.237  0.2020  0.3365 -0.1223
19812TIP3    H280852   4.251   2.424  14.275  1.5327 -2.0529 -0.2764
19813TIP3   OH280853   5.928   1.750  12.763 -0.0092 -0.2936 -0.0476
19813TIP3    H180854   5.956   1.708  12.682  0.1950  0.5416 -0.4190
19813TIP3    H280855   5.957   1.841  12.753 -1.2426  0.1424  0.3485
19814TIP3   OH280856   2.604   2.538   5.708 -0.5982 -0.1282  0.0780
19814TIP3    H180857   2.576   2.447   5.703  0.1118 -0.5201  2.6087
19814TIP3    H280858   2.699   2.533   5.717 -0.8024  0.6744  3.4224
19815TIP3   OH280859   6.600   0.415  12.142  0.1074 -0.7953 -0.2685
19815TIP3    H180860   6.663   0.405  12.071  1.3213  0.5285  0.5996
19815TIP3    H280861   6.616   0.340  12.199  1.7039  0.1293  0.5345
19816TIP3   OH280862   3.862   1.491   1.904 -0.3330  0.0182 -0.2351
19816TIP3    H180863   3.907   1.552   1.844  1.1321 -0.6576  0.1726
19816TIP3    H280864   3.887   1.521   1.991 -0.0119 -0.8645 -0.0255
19817TIP3   OH280865   4.454   1.782  10.411  1.0158 -0.0945  0.4272
19817TIP3    H180866   4.472   1.690  10.390  0.5572  0.3476 -2.1630
19817TIP3    H280867   4.358   1.788  10.412  1.0316  0.6288 -0.8914
19818TIP3   OH280868   4.924   0.760  10.898 -0.2473 -0.0582  0.1673
19818TIP3    H180869   4.977   0.687  10.866  0.6164  0.1536  1.0897
19818TIP3    H280870   4.898   0.808  10.820 -3.1731 -2.9194 -0.7565
19819TIP3   OH280871   2.521   5.630   1.855  0.0644 -0.0940 -0.0569
19819TIP3    H180872   2.447   5.688   1.870  1.1585  1.4314 -0.3632
19819TIP3    H280873   2.546   5.599   1.942  0.5128  1.2519  0.3146
19820TIP3   OH280874   2.346   2.774   1.152 -0.0582  0.2792  0.1331
19820TIP3    H180875   2.319   2.846   1.095 -1.9169 -0.4348  0.0779
19820TIP3    H280876   2.361   2.815   1.237 -0.0853  0.8976 -0.1572
19821TIP3   OH280877   6.737   2.234  14.094  0.0295  0.2618  0.1729
19821TIP3    H180878   6.756   2.281  14.175 -0.2831  3.6580 -1.6240
19821TIP3    H280879   6.644   2.212  14.100 -0.3254  1.7298  0.1519
19822TIP3   OH280880   0.399   1.706   2.326  0.6367  0.4292  0.1010
19822TIP3    H180881   0.398   1.744   2.238  1.9087  0.1955 -0.0196
19822TIP3    H280882   0.424   1.779   2.383 -0.5781  0.6799  0.3252
19823TIP3   OH280883   4.114   6.583   3.242  0.4520  0.3745  0.1001
19823TIP3    H180884   4.208   6.562   3.248  0.3390 -0.1165  0.1781
19823TIP3    H280885   4.106   6.666   3.290  0.5927 -0.3848  1.4694
19824TIP3   OH280886   4.514   5.795   5.984 -0.1089 -0.1501  0.5520
19824TIP3    H180887   4.489   5.852   6.057 -0.4251  1.0227 -0.4580
19824TIP3    H280888   4.594   5.835   5.948  1.6517 -2.2583  1.9473
19825TIP3   OH280889   2.279   2.311   5.681  0.3620  0.3300 -0.5702
19825TIP3    H180890   2.351   2.251   5.663  0.9657  0.3437  1.7537
19825TIP3    H280891   2.203   2.269   5.640  1.3323 -0.5205 -1.5411
19826TIP3   OH280892   5.100   0.428  11.168 -0.0836  0.4840 -0.1873
19826TIP3    H180893   5.078   0.339  11.139 -0.0713  0.9984 -1.8035
19826TIP3    H280894   5.093   0.424  11.263 -1.0110 -1.0071 -0.3005
19827TIP3   OH280895   2.945   1.999   2.785 -0.0314 -0.0284  0.4247
19827TIP3    H180896   2.998   1.952   2.720  0.7010  0.6667  0.5192
19827TIP3    H280897   2.992   1.988   2.867 -1.3794 -1.6008  1.0304
19828TIP3   OH280898   3.031   0.165  16.594 -0.5761  0.4856 -0.3216
19828TIP3    H180899   3.069   0.079  16.577 -1.9562 -0.0536 -0.7989
19828TIP3    H280900   3.082   0.225  16.539 -0.3945 -0.2184 -0.9366
19829TIP3   OH280901   0.813   3.149   1.222  0.3695 -0.4615  0.9161
19829TIP3    H180902   0.738   3.120   1.170  0.8659  1.3112 -0.8178
19829TIP3    H280903   0.860   3.068   1.242 -1.2767 -1.4534  0.9188
19830TIP3   OH280904   4.125   2.056  14.684  0.4344  0.4428 -0.8622
19830TIP3    H180905   4.133   1.966  14.715  0.1509  0.6739 -0.0816
19830TIP3    H280906   4.036   2.081  14.706  0.2278  0.6252 -1.8846
19831TIP3   OH280907   6.446   3.997   0.595  1.0965 -0.2730  0.3867
19831TIP3    H180908   6.539   3.988   0.615  1.0293  0.1391  0.8849
19831TIP3    H280909   6.401   3.968   0.674  0.8037 -0.2837  0.2196
19832TIP3   OH280910   5.455   5.610   2.824 -0.2336  0.3793  0.1117
19832TIP3    H180911   5.433   5.569   2.740 -1.8735 -1.2847  1.3195
19832TIP3    H280912   5.502   5.542   2.872  1.6174  1.6640  0.1884
19833TIP3   OH280913   3.426   4.943   3.337  0.0431  0.2300 -0.3410
19833TIP3    H180914   3.332   4.931   3.350  0.2702 -0.0668  1.1019
19833TIP3    H280915   3.439   4.928   3.243 -1.3483  0.3128 -0.5592
19834TIP3   OH280916   4.494   3.565  16.110  0.0917  0.2535 -0.3400
19834TIP3    H180917   4.451   3.604  16.034 -0.5032  0.0362 -0.1122
19834TIP3    H280918   4.583   3.600  16.108  0.0567  0.2945 -1.1022
19835TIP3   OH280919   4.896   2.781   0.745 -0.4629 -0.1377 -0.1845
19835TIP3    H180920   4.929   2.776   0.655 -0.3196 -0.1788 -0.1305
19835TIP3    H280921   4.971   2.812   0.796 -0.7389  0.5281 -0.1825
19836TIP3   OH280922   3.262   4.943   4.926  0.3837  0.4130 -0.7016
19836TIP3    H180923   3.275   4.979   5.013 -0.5644  1.2358 -0.8884
19836TIP3    H280924   3.313   5.000   4.868 -0.7285  1.1834 -0.9384
19837TIP3   OH280925   0.368   5.289  14.039 -0.2381 -0.1814  0.2110
19837TIP3    H180926   0.419   5.370  14.041 -2.0240  1.0120 -1.1207
19837TIP3    H280927   0.395   5.245  13.959 -1.2199  0.4101 -0.4513
19838TIP3   OH280928   2.161   3.777   0.820 -0.1119 -0.5868 -0.1610
19838TIP3    H180929   2.209   3.749   0.898 -0.1354  0.6660  0.3211
19838TIP3    H280930   2.069   3.761   0.842 -0.2577  1.2411  0.7372
19839TIP3   OH280931   0.141   1.589  11.609 -0.0009 -0.1601  0.0510
19839TIP3    H180932   0.216   1.563  11.556  0.8069 -0.6508  1.4105
19839TIP3    H280933   0.082   1.513  11.607  0.3668 -0.4625  0.4381
19840TIP3   OH280934   3.525   3.252  11.438 -0.5643  0.1695  0.3593
19840TIP3    H180935   3.492   3.209  11.359 -1.3454  0.3296  0.5931
19840TIP3    H280936   3.448   3.294  11.476  0.2359  2.0944 -0.0606
19841TIP3   OH280937   4.602   0.399  16.344  0.2209 -0.0385  0.2195
19841TIP3    H180938   4.581   0.363  16.430  2.4355  1.1791  1.3109
19841TIP3    H280939   4.575   0.490  16.349 -0.3733 -0.1642 -0.6550
19842TIP3   OH280940   2.046   0.139  16.112  0.3699  0.4928 -0.3064
19842TIP3    H180941   2.130   0.185  16.122 -0.1974  1.4152  0.3312
19842TIP3    H280942   1.981   0.202  16.144 -0.5466 -0.2867 -0.6247
19843TIP3   OH280943   2.782   6.196  15.184  0.5083 -0.4763  0.2261
19843TIP3    H180944   2.699   6.181  15.139  0.0930  1.8529  0.1586
19843TIP3    H280945   2.845   6.216  15.114  0.4162  0.7441  0.4746
19844TIP3   OH280946   3.976   6.608  14.245 -0.4077  0.1249  0.0267
19844TIP3    H180947   3.941   6.595  14.333 -0.4539 -1.3803 -0.2041
19844TIP3    H280948   4.059   6.560  14.245  2.2239  4.3649  0.8595
19845TIP3   OH280949   0.226   5.781   5.383 -0.2530 -0.1337  0.1954
19845TIP3    H180950   0.149   5.822   5.421 -1.3225 -2.6595  0.8140
19845TIP3    H280951   0.216   5.795   5.288 -0.9696  0.3547  0.3387
19846TIP3   OH280952   5.980   3.548  15.307 -0.1369  0.3224  0.3969
19846TIP3    H180953   6.067   3.528  15.275  0.3463  1.2264  1.1206
19846TIP3    H280954   5.945   3.612  15.245  0.4225  1.3278  1.0968
19847TIP3   OH280955   5.897   3.228   0.847 -0.1396 -0.1440  0.0092
19847TIP3    H180956   5.954   3.238   0.771  0.7072  0.5170  0.7281
19847TIP3    H280957   5.952   3.249   0.922 -1.0088 -0.6522  0.8048
19848TIP3   OH280958   1.045   4.946   4.751  0.0292  0.4230 -0.0724
19848TIP3    H180959   0.965   4.996   4.736 -0.6224 -0.3166  0.9429
19848TIP3    H280960   1.109   4.986   4.692 -0.8319  1.6100 -0.2181
19849TIP3   OH280961   5.041   4.521  11.739  0.0076 -0.1181 -0.4099
19849TIP3    H180962   5.104   4.467  11.691 -0.2868 -1.9581  1.1860
19849TIP3    H280963   5.070   4.514  11.831 -0.4868  1.8474 -0.0970
19850TIP3   OH280964   1.502   1.271   6.174 -0.1473  0.5228  0.1160
19850TIP3    H180965   1.496   1.176   6.188 -1.9637  0.6933  0.6113
19850TIP3    H280966   1.567   1.300   6.237  1.3355 -0.5502 -0.8736
19851TIP3   OH280967   5.670   2.582  14.780 -0.2638  0.4502  0.7031
19851TIP3    H180968   5.590   2.621  14.744  1.0785  0.5510 -2.3829
19851TIP3    H280969   5.739   2.644  14.755  0.6890  0.8833  4.2083
19852TIP3   OH280970   3.147   5.754   4.790  0.1336 -0.2270  0.6720
19852TIP3    H180971   3.054   5.777   4.789  0.2179  0.1105  0.6558
19852TIP3    H280972   3.165   5.726   4.700  1.0903  3.8743 -0.4960
19853TIP3   OH280973   1.342   6.366  15.098 -0.0634  0.0638 -0.5088
19853TIP3    H180974   1.292   6.312  15.159 -2.9281  2.3319 -0.7348
19853TIP3    H280975   1.286   6.443  15.083  2.0514  1.1161 -3.3960
19854TIP3   OH280976   1.687   3.362   3.047 -0.6374 -0.7402 -0.5231
19854TIP3    H180977   1.678   3.432   2.983  1.8060 -0.2223 -0.3364
19854TIP3    H280978   1.735   3.401   3.120  0.8128 -2.5891 -0.4382
19855TIP3   OH280979   3.640   4.818   2.583  0.3653 -0.3230 -0.0673
19855TIP3    H180980   3.602   4.730   2.593  0.4213 -0.2096  1.1729
19855TIP3    H280981   3.733   4.805   2.600  0.5104 -0.1714 -0.7358
19856TIP3   OH280982   5.786   2.792   4.332 -0.4461 -0.2381 -0.1252
19856TIP3    H180983   5.751   2.709   4.300  0.5045 -0.7941  0.2474
19856TIP3    H280984   5.880   2.788   4.312  0.0411 -0.3030  2.0731
19857TIP3   OH280985   0.020   2.820  10.755  0.2265  0.2300 -0.4894
19857TIP3    H180986   0.083   2.886  10.727 -0.2627  0.7487 -0.3701
19857TIP3    H280987   0.073   2.743  10.776  0.6049 -0.1944 -2.8903
19858TIP3   OH280988   3.425   1.124  13.408 -0.4348 -0.4722 -0.1365
19858TIP3    H180989   3.405   1.106  13.317  3.4493  0.3085 -1.2330
19858TIP3    H280990   3.495   1.062  13.431 -1.7868 -1.1024  2.5147
19859TIP3   OH280991   5.876   1.180  14.116 -0.0278 -0.0848  0.4166
19859TIP3    H180992   5.967   1.210  14.120  0.8423 -2.4555 -0.7267
19859TIP3    H280993   5.853   1.185  14.023 -0.3952 -1.3986  0.4267
19860TIP3   OH280994   2.175   4.692  14.845  0.6558  0.8109 -0.3288
19860TIP3    H180995   2.215   4.765  14.893  1.3823 -0.2458  0.6880
19860TIP3    H280996   2.248   4.637  14.821  0.0994  0.3981 -1.0822
19861TIP3   OH280997   6.005   1.702   2.217  0.3083  0.2034  0.4234
19861TIP3    H180998   6.004   1.607   2.206  0.0965  0.3834 -1.1755
19861TIP3    H280999   5.914   1.724   2.240  0.7796 -0.1826  2.8546
19862TIP3   OH281000   2.166   6.150   5.598  0.5096  0.2720  0.3831
19862TIP3    H181001   2.104   6.217   5.570  0.6622 -0.4271 -1.7598
19862TIP3    H281002   2.112   6.083   5.640  0.0530  0.5650  0.2643
19863TIP3   OH281003   5.522   0.045  16.216 -0.5718 -0.5707  0.1716
19863TIP3    H181004   5.596   0.069  16.272  1.1438 -1.4857 -1.6102
19863TIP3    H281005   5.531   0.102  16.139  0.1142 -2.7897 -1.4450
19864TIP3   OH281006   3.003   3.269   0.948  0.6900 -0.0049 -0.0122
19864TIP3    H181007   2.965   3.190   0.909  1.1693  0.0686 -0.6353
19864TIP3    H281008   3.080   3.288   0.894  0.5132  0.9558  0.0625
19865TIP3   OH281009   0.943   4.191   3.642 -0.3427  0.4739 -0.1836
19865TIP3    H181010   0.922   4.277   3.605  0.5278  0.6637 -0.2530
19865TIP3    H281011   0.894   4.129   3.588 -0.6266  0.8976 -0.4113
19866TIP3   OH281012   1.198   4.657  11.334 -0.4540 -0.9169  0.1730
19866TIP3    H181013   1.272   4.718  11.337 -0.3236 -1.0242 -0.6522
19866TIP3    H281014   1.129   4.705  11.288 -1.6224 -0.0646  2.7464
19867TIP3   OH281015   1.819   1.440  14.422 -0.4575 -0.1118 -0.7093
19867TIP3    H181016   1.733   1.425  14.462 -0.0155 -1.1883 -0.1458
19867TIP3    H281017   1.835   1.534  14.436 -0.6044 -0.3266  1.1163
19868TIP3   OH281018   5.208   0.894  17.123 -0.0860 -0.1194 -0.2885
19868TIP3    H181019   5.191   0.976  17.076  0.2104  0.1732  0.1157
19868TIP3    H281020   5.169   0.907  17.209 -0.0400 -0.4085 -0.2225
19869TIP3   OH281021   3.848   1.830   5.331  0.0955  0.3561  0.0593
19869TIP3    H181022   3.880   1.905   5.382 -0.5964  0.8241 -0.1874
19869TIP3    H281023   3.830   1.762   5.395 -0.2349  0.7507  0.3828
19870TIP3   OH281024   6.010   4.312   1.135 -0.5052  0.8649 -0.3230
19870TIP3    H181025   6.045   4.243   1.079  1.0437  0.7455  0.7323
19870TIP3    H281026   5.968   4.374   1.076  1.6628  1.0779 -1.6808
19871TIP3   OH281027   2.395   2.403  17.078 -0.3612 -0.2300 -0.0989
19871TIP3    H181028   2.431   2.329  17.030 -0.8613  0.1945 -1.1348
19871TIP3    H281029   2.301   2.388  17.079 -0.1414 -1.8409  3.4465
19872TIP3   OH281030   0.390   3.469   2.870  0.2135 -0.1105  0.4704
19872TIP3    H181031   0.460   3.482   2.934 -0.8304  0.7461  1.4637
19872TIP3    H281032   0.311   3.457   2.923 -0.2883 -1.8285 -0.6137
19873TIP3   OH281033   0.798   3.488   5.422  0.2033  0.1567 -0.0813
19873TIP3    H181034   0.763   3.449   5.341 -1.7728  1.6494 -0.0014
19873TIP3    H281035   0.830   3.574   5.395 -0.5529  0.7004  0.7386
19874TIP3   OH281036   2.409   1.473   1.775  0.2951  0.3523  0.2283
19874TIP3    H181037   2.414   1.378   1.760  2.7376  0.4587  0.0752
19874TIP3    H281038   2.450   1.485   1.861 -0.9708  1.1850  0.7243
19875TIP3   OH281039   6.737   0.610  16.176  0.6562  0.1189 -0.4184
19875TIP3    H181040   6.801   0.552  16.216 -0.7519 -1.4590 -0.3964
19875TIP3    H281041   6.704   0.664  16.248  0.9017 -0.0659 -0.1691
19876TIP3   OH281042   1.257   5.479   2.317  0.0519  0.0559  0.0061
19876TIP3    H181043   1.306   5.400   2.337 -0.1933  0.3841  1.9763
19876TIP3    H281044   1.187   5.450   2.259  0.3455 -1.0633  0.2059
19877TIP3   OH281045   5.117   5.126  13.831 -0.0693  0.2611  0.7431
19877TIP3    H181046   5.206   5.099  13.808 -0.4341  0.0386 -0.4393
19877TIP3    H281047   5.067   5.044  13.833 -0.8756  0.6694 -1.4872
19878TIP3   OH281048   4.593   6.689   3.202 -0.4352  0.0031 -0.5869
19878TIP3    H181049   4.540   6.691   3.122  0.7549  1.3460 -1.3722
19878TIP3    H281050   4.562   6.763   3.253  2.0130  2.0865 -1.9805
19879TIP3   OH281051   6.607   0.064   3.928 -0.3660 -0.0788  0.5233
19879TIP3    H181052   6.589   0.031   3.839  0.9342  2.6216 -0.7976
19879TIP3    H281053   6.659  -0.005   3.969  1.0130 -0.3748 -1.6488
19880TIP3   OH281054   6.259   0.343  14.136 -0.0059 -0.4272  0.3560
19880TIP3    H181055   6.166   0.322  14.135 -0.1324 -0.0132  1.8311
19880TIP3    H281056   6.302   0.260  14.159  0.0022 -0.6038 -0.2680
19881TIP3   OH281057   1.938   1.374  12.693 -0.9082 -1.2261  0.4559
19881TIP3    H181058   1.863   1.314  12.697 -1.0411 -0.9841  1.5019
19881TIP3    H281059   2.004   1.334  12.750 -0.4752 -1.0896  0.0587
19882TIP3   OH281060   2.773   1.728  13.118 -0.4796  0.0467  0.0480
19882TIP3    H181061   2.822   1.653  13.152 -1.3085 -0.0453  1.0383
19882TIP3    H281062   2.760   1.785  13.194  0.2327  1.2490 -0.7228
19883TIP3   OH281063   2.614   6.228   1.677 -0.4560 -0.1147  0.0083
19883TIP3    H181064   2.521   6.225   1.653 -1.0435  1.3090  2.0648
19883TIP3    H281065   2.653   6.285   1.611 -1.7128  2.1942  1.1919
19884TIP3   OH281066   1.086   2.153   1.617  0.0550  0.4172  0.0833
19884TIP3    H181067   1.009   2.139   1.561  0.2541 -0.9136  0.1248
19884TIP3    H281068   1.084   2.080   1.679 -0.2133  1.9382  1.8956
19885TIP3   OH281069   5.395   5.668   5.210  0.1655 -0.4627 -0.0400
19885TIP3    H181070   5.449   5.590   5.202  0.6610 -0.1800  0.5085
19885TIP3    H281071   5.390   5.685   5.305  1.0856  0.8682 -0.2138
19886TIP3   OH281072   3.847   5.218  14.207  0.0040 -0.0751 -0.1748
19886TIP3    H181073   3.901   5.232  14.129 -0.8961 -0.0230 -0.7944
19886TIP3    H281074   3.901   5.251  14.279  0.7456  0.1009 -0.7973
19887TIP3   OH281075   4.910   1.215   4.146 -0.1319  0.1232 -0.2459
19887TIP3    H181076   4.919   1.166   4.228  0.7369  0.7005  0.0122
19887TIP3    H281077   4.854   1.160   4.092 -0.1581 -0.5914  0.4856
19888TIP3   OH281078   2.664   5.209   0.459 -0.1056  0.5935  0.0720
19888TIP3    H181079   2.632   5.231   0.371  1.6529 -1.8226 -1.2240
19888TIP3    H281080   2.599   5.147   0.492  0.6885 -0.6665 -0.6786
19889TIP3   OH281081   0.875   1.279   2.438 -0.0670 -0.8200 -0.0392
19889TIP3    H181082   0.862   1.185   2.447  1.7789 -1.1873 -0.8544
19889TIP3    H281083   0.955   1.287   2.385  2.3352  1.1562  3.6219
19890TIP3   OH281084   6.495   1.333  13.847  0.3412 -0.5607  0.2152
19890TIP3    H181085   6.485   1.420  13.809  2.7508  0.2954  1.4111
19890TIP3    H281086   6.514   1.276  13.772 -2.0573 -0.2419 -0.6708
19891TIP3   OH281087   3.268   2.941   5.076 -0.0145 -0.0220  0.3760
19891TIP3    H181088   3.317   2.968   5.154  1.6238  3.7216 -1.8154
19891TIP3    H281089   3.332   2.943   5.005 -2.0590 -0.7778 -1.5465
19892TIP3   OH281090   0.991   1.422  15.173  0.0358  1.0046  0.2622
19892TIP3    H181091   0.979   1.514  15.198 -1.8057  0.7262  0.4356
19892TIP3    H281092   0.903   1.386  15.169  0.7433 -0.7743  0.2005
19893TIP3   OH281093   0.056   1.528   3.773 -0.4344  0.0992 -0.2295
19893TIP3    H181094   0.145   1.504   3.799 -0.4969  1.2141  1.1102
19893TIP3    H281095  -0.001   1.476   3.830 -0.6241  0.2916 -0.2410
19894TIP3   OH281096   0.945   0.256  12.328 -0.2848  0.2961 -0.3295
19894TIP3    H181097   0.862   0.287  12.365 -0.7919 -0.9842 -0.3830
19894TIP3    H281098   1.012   0.308  12.372 -0.9597 -0.3141  1.4471
19895TIP3   OH281099   0.065   2.703   2.101  0.0891 -0.1882 -0.0059
19895TIP3    H181100   0.085   2.796   2.101 -0.1274 -0.1341 -0.9318
19895TIP3    H281101   0.150   2.660   2.097  0.1507 -0.0021 -0.9421
19896TIP3   OH281102   4.034   1.727   6.296  0.2532  0.1673  0.2887
19896TIP3    H181103   4.032   1.652   6.354 -1.0463  0.7392  1.0050
19896TIP3    H281104   4.002   1.694   6.212 -0.0019 -0.1514  0.5141
19897TIP3   OH281105   1.836   5.173  12.254 -0.1355  0.8534  0.2546
19897TIP3    H181106   1.899   5.208  12.191 -1.3351  2.5886 -0.0161
19897TIP3    H281107   1.794   5.251  12.291 -1.5725 -0.2608  0.9904
19898TIP3   OH281108   2.047   3.161   5.624 -0.3820  0.1728 -0.2805
19898TIP3    H181109   2.049   3.256   5.627  0.2005  0.1548  0.1567
19898TIP3    H281110   2.019   3.139   5.536  1.1654  0.7454 -0.9248
19899TIP3   OH281111   2.564   6.712   3.534 -0.1691 -0.1498  0.1989
19899TIP3    H181112   2.561   6.636   3.593 -2.3593  1.0564  1.6859
19899TIP3    H281113   2.534   6.678   3.450 -1.2219 -0.9275  0.8779
19900TIP3   OH281114   1.467   3.927   5.053 -0.9271  0.1585 -0.4874
19900TIP3    H181115   1.524   3.998   5.083 -2.0507  0.9576 -0.2101
19900TIP3    H281116   1.519   3.882   4.986  0.6394 -0.1270  0.8959
19901TIP3   OH281117   4.876   3.404   2.417 -0.6091  0.4538 -0.0082
19901TIP3    H181118   4.836   3.368   2.496 -1.0964 -2.3080 -1.4656
19901TIP3    H281119   4.805   3.406   2.353  0.4309  0.0894 -1.1826
19902TIP3   OH281120   2.840   6.773  14.838  0.9070  0.5310 -0.2181
19902TIP3    H181121   2.795   6.738  14.916 -1.1887  1.2899 -1.0424
19902TIP3    H281122   2.889   6.848  14.870  0.2420  0.6985  0.4237
19903TIP3   OH281123   2.595   3.749   4.474 -0.5092 -0.3399  0.0499
19903TIP3    H181124   2.659   3.808   4.433 -1.9044  0.3426 -1.2113
19903TIP3    H281125   2.529   3.807   4.511 -1.0607 -1.0612  0.2166
19904TIP3   OH281126   5.988   2.002   5.569 -0.0468  0.2122  0.3397
19904TIP3    H181127   6.047   2.012   5.644  1.8364  0.5839 -1.1659
19904TIP3    H281128   6.003   1.913   5.538 -0.4274  0.2462  0.0512
19905TIP3   OH281129   2.510   3.093   4.998  0.3338 -0.4799  0.3317
19905TIP3    H181130   2.509   3.027   4.929  0.0093  0.8810 -0.9806
19905TIP3    H281131   2.582   3.151   4.975  1.1240 -0.8149  1.9095
19906TIP3   OH281132   3.866   0.160   1.001  0.3105  0.9142 -0.5281
19906TIP3    H181133   3.921   0.222   0.954  0.3295  0.9205 -0.4974
19906TIP3    H281134   3.893   0.074   0.969  0.9595  0.8598  0.1414
19907TIP3   OH281135   0.438   3.934   4.413  0.3922  0.4168 -0.1646
19907TIP3    H181136   0.460   3.847   4.378  0.0054 -0.5668  1.9320
19907TIP3    H281137   0.508   3.953   4.476 -1.0863  0.2768  1.5682
19908TIP3   OH281138   6.376   1.538   0.954 -0.7164  0.2604 -0.0758
19908TIP3    H181139   6.396   1.509   0.865  1.1606  2.8588 -0.5706
19908TIP3    H281140   6.323   1.468   0.991 -1.5840 -0.8391 -3.2510
19909TIP3   OH281141   4.110   1.892   0.511 -0.4532  0.3262 -0.1572
19909TIP3    H181142   4.098   1.856   0.423  0.9083 -1.8909  0.5212
19909TIP3    H281143   4.061   1.832   0.568 -2.8474  2.7748  0.4252
19910TIP3   OH281144   4.904   2.936  14.195  0.0904  0.0787 -0.2250
19910TIP3    H181145   4.837   3.004  14.185 -0.2919 -0.1839  0.4986
19910TIP3    H281146   4.855   2.855  14.202  0.4783 -0.1050  0.4229
19911TIP3   OH281147   1.972   1.805   2.983  0.0501  0.0228  0.3201
19911TIP3    H181148   1.940   1.883   2.938 -2.1385 -1.2703 -0.4372
19911TIP3    H281149   2.014   1.839   3.062 -2.1714  1.9050  0.7629
19912TIP3   OH281150   4.846   1.345  14.392  0.0041 -0.3007 -0.6778
19912TIP3    H181151   4.823   1.263  14.436 -0.4829  0.4180  0.4401
19912TIP3    H281152   4.898   1.393  14.457 -0.1076  0.4643 -1.1498
19913TIP3   OH281153   5.159   4.107  15.961 -0.0997  0.3206  0.0930
19913TIP3    H181154   5.103   4.140  15.891 -0.1989  0.7472  0.3727
19913TIP3    H281155   5.183   4.019  15.933 -0.0745  0.5192 -0.5175
19914TIP3   OH281156   0.666   6.275  15.124  0.5180  0.0226  0.1612
19914TIP3    H181157   0.624   6.230  15.197 -1.0901  0.4990 -0.4605
19914TIP3    H281158   0.599   6.280  15.056  1.6755  0.4981 -0.9871
19915TIP3   OH281159   2.599   5.216   2.815 -0.1196 -0.2985 -0.0869
19915TIP3    H181160   2.665   5.274   2.855 -0.9881  0.8682 -0.3057
19915TIP3    H281161   2.541   5.276   2.768  0.8782 -1.6462 -3.1548
19916TIP3   OH281162   3.906   0.189   0.232  0.4336 -0.7256 -0.8500
19916TIP3    H181163   3.945   0.264   0.188  1.6406 -1.4722 -1.0948
19916TIP3    H281164   3.971   0.163   0.297 -1.3622  0.4081  1.4589
19917TIP3   OH281165   5.509   0.456   1.690 -0.1009 -0.4298 -0.2649
19917TIP3    H181166   5.600   0.428   1.675  0.2994  1.0036 -0.6004
19917TIP3    H281167   5.464   0.433   1.609  0.0682 -0.7159 -0.2801
19918TIP3   OH281168   0.686   4.504  12.861 -0.6258 -0.7025  0.5966
19918TIP3    H181169   0.704   4.561  12.935 -1.2455 -1.0915  1.0450
19918TIP3    H281170   0.608   4.540  12.820 -0.9326 -1.1368  0.7932
19919TIP3   OH281171   2.354   1.665   5.069  0.3812  0.2989  0.3312
19919TIP3    H181172   2.346   1.592   5.130 -0.8364  0.1065 -0.0427
19919TIP3    H281173   2.263   1.691   5.051  0.7600  0.8695 -0.7794
19920TIP3   OH281174   6.158   1.315  10.987  0.3273  0.3563  0.1973
19920TIP3    H181175   6.151   1.249  10.919 -0.0816 -0.1205  0.6974
19920TIP3    H281176   6.108   1.390  10.953 -2.5592 -0.9784  1.2596
19921TIP3   OH281177   1.342   2.027  12.676 -0.0603 -0.6219 -0.1253
19921TIP3    H181178   1.404   2.098  12.688  0.4240 -0.9585 -0.6266
19921TIP3    H281179   1.262   2.058  12.719 -0.1705  0.6492 -1.2373
19922TIP3   OH281180   1.166   0.045  17.168 -0.0028 -0.1400  0.5448
19922TIP3    H181181   1.254   0.009  17.175  0.0695 -0.0380  0.1450
19922TIP3    H281182   1.111  -0.016  17.218  0.0288 -1.1201 -0.5924
19923TIP3   OH281183   0.443   0.083   3.316  0.7787  0.0074 -0.3985
19923TIP3    H181184   0.464   0.058   3.226  2.2416  1.3010 -0.4314
19923TIP3    H281185   0.395   0.165   3.307 -0.5273 -0.7035 -0.0714
19924TIP3   OH281186   4.337   0.711  13.393  0.1955 -0.0591 -0.2816
19924TIP3    H181187   4.329   0.616  13.397  0.5427 -0.1677 -1.9068
19924TIP3    H281188   4.321   0.740  13.483 -0.2424 -1.6200  0.1633
19925TIP3   OH281189   1.963   0.843   2.936 -0.3042 -0.4556  0.1365
19925TIP3    H181190   1.974   0.839   2.841 -0.1627 -0.8243  0.1693
19925TIP3    H281191   1.980   0.935   2.958 -1.0654 -0.2033 -0.2867
19926TIP3   OH281192   5.765   1.394   1.695  0.4498 -0.3864 -0.0918
19926TIP3    H181193   5.699   1.330   1.722  0.3186  0.2503  1.1307
19926TIP3    H281194   5.819   1.348   1.631 -1.8496 -0.5835 -1.9428
19927TIP3   OH281195   1.619   3.849  15.412 -0.4750  0.9672  0.5674
19927TIP3    H181196   1.536   3.802  15.425  1.0892 -1.5335  1.9201
19927TIP3    H281197   1.659   3.853  15.499  2.1738 -0.5337 -0.5166
19928TIP3   OH281198   4.250   1.033  12.839  0.3931 -0.2001 -0.2736
19928TIP3    H181199   4.160   1.009  12.816  0.8450 -1.9626 -0.3237
19928TIP3    H281200   4.242   1.088  12.916 -0.7156 -0.5674 -0.1176
19929TIP3   OH281201   5.024   0.378   2.789 -0.2889 -0.0860 -0.2326
19929TIP3    H181202   4.951   0.361   2.731  0.0292 -1.0319 -0.3625
19929TIP3    H281203   5.064   0.293   2.803 -0.7176  0.0193  1.8480
19930TIP3   OH281204   3.393   6.363  15.678 -0.4253  0.1821  0.5283
19930TIP3    H181205   3.309   6.339  15.640 -0.1370 -1.9790  1.1642
19930TIP3    H281206   3.376   6.372  15.772 -0.1897  0.9488  0.5036
19931TIP3   OH281207   0.940   1.530   3.427  0.5220  1.2283 -0.3458
19931TIP3    H181208   1.028   1.492   3.423  0.6511  1.4168  0.5622
19931TIP3    H281209   0.893   1.475   3.489  0.2068  1.5548 -0.2949
19932TIP3   OH281210   5.402   2.696   3.763 -0.1282  0.3553 -0.4040
19932TIP3    H181211   5.362   2.639   3.829 -0.2401  0.1759 -0.6269
19932TIP3    H281212   5.471   2.743   3.810  1.9733 -2.1168 -0.8614
19933TIP3   OH281213   1.492   4.742  14.994  0.1472 -0.2532  0.3800
19933TIP3    H181214   1.437   4.685  14.940 -0.7000  0.7247  0.2022
19933TIP3    H281215   1.531   4.803  14.932  2.9209 -2.0707  0.2333
19934TIP3   OH281216   5.477   0.972  16.546  0.5308 -0.1866  0.3171
19934TIP3    H181217   5.470   0.973  16.450  0.7320  1.0506  0.3046
19934TIP3    H281218   5.443   1.057  16.573  2.5686  0.3726  1.1968
19935TIP3   OH281219   0.097   5.993  16.795 -0.2002 -0.0399 -0.2165
19935TIP3    H181220   0.099   5.898  16.786 -2.0062 -0.1447  0.3060
19935TIP3    H281221   0.178   6.022  16.754  1.2911 -1.9236  1.3067
19936TIP3   OH281222   2.405   0.704   1.130  0.3752  0.6055 -0.2444
19936TIP3    H181223   2.381   0.618   1.164  0.6038  0.1272 -1.2765
19936TIP3    H281224   2.499   0.712   1.148  0.4204  0.5110 -0.4455
19937TIP3   OH281225   0.089   6.057  11.093  0.4782 -0.3578  0.0499
19937TIP3    H181226   0.013   6.013  11.130  0.7518 -0.1665  0.8416
19937TIP3    H281227   0.064   6.150  11.090  0.3527 -0.4026 -0.5172
19938TIP3   OH281228   0.599   3.362   3.064  0.4596 -0.3281  0.1525
19938TIP3    H181229   0.635   3.450   3.075 -2.6255  1.6148 -3.9944
19938TIP3    H281230   0.539   3.351   3.137  0.4371  1.2653  0.3857
19939TIP3   OH281231   3.153   6.183  12.771  0.3276  0.0022 -0.3828
19939TIP3    H181232   3.092   6.121  12.810 -0.9473 -0.4726 -2.9826
19939TIP3    H281233   3.231   6.131  12.751 -0.4254 -0.6150 -1.7973
19940TIP3   OH281234   3.482   5.960  14.029  0.5044  0.3811  0.1607
19940TIP3    H181235   3.523   6.023  14.088 -3.2266  2.2982  0.8535
19940TIP3    H281236   3.516   5.982  13.942  0.7829  2.0380  0.6757
19941TIP3   OH281237   6.501   2.539   0.967  0.0760 -0.5345 -0.2579
19941TIP3    H181238   6.568   2.564   0.904 -0.7131  0.7649 -0.5889
19941TIP3    H281239   6.419   2.573   0.931 -0.5149 -0.5510  1.0273
19942TIP3   OH281240   2.586   2.663   5.040 -0.2427 -0.6666 -0.5126
19942TIP3    H181241   2.554   2.624   5.121 -2.2217  0.5939 -0.6387
19942TIP3    H281242   2.661   2.716   5.067 -0.7924 -0.3727  0.4783
19943TIP3   OH281243   2.201   5.061  15.593 -0.6081  0.2394  0.7865
19943TIP3    H181244   2.152   5.071  15.675  0.6846  0.0732  1.6054
19943TIP3    H281245   2.263   5.134  15.593 -0.6330  0.2689 -0.0780
19944TIP3   OH281246   1.375   4.412  15.464 -0.1099 -0.0952  0.2437
19944TIP3    H181247   1.286   4.445  15.477 -0.4609 -0.6329 -0.7097
19944TIP3    H281248   1.393   4.359  15.541 -0.1188  1.0753  1.0591
19945TIP3   OH281249   2.295   1.710   2.033  0.2416  0.0072 -0.1775
19945TIP3    H181250   2.258   1.686   2.118 -0.3863 -0.1598 -0.4961
19945TIP3    H281251   2.377   1.660   2.027  1.2666  1.4952  1.1619
19946TIP3   OH281252   0.791   1.554  16.088  0.3872  0.0040  0.3122
19946TIP3    H181253   0.859   1.488  16.101  0.0814 -0.2686  0.5489
19946TIP3    H281254   0.819   1.627  16.143  2.6404  1.5445 -2.7640
19947LIG      S81255   3.790   3.552  15.798 -0.3880 -0.0289  0.0954
19947LIG     F181256   3.558   3.144  16.641  0.7046  0.3333 -0.4125
19947LIG     F281257   3.406   3.094  16.780 -0.2787 -0.2649 -0.3446
19947LIG     F381258   3.384   3.043  16.580  0.0633 -0.2779  0.4826
19947LIG     N181259   3.470   3.574  16.032 -0.2918  0.2175 -0.7040
19947LIG     N281260   3.543   3.353  15.703  0.3297  0.2521  0.2655
19947LIG     C181261   3.523   3.483  15.785  0.4991  0.0494  0.6179
19947LIG     C281262   3.508   3.460  15.940 -1.7013 -0.5850  0.4345
19947LIG     C381263   3.331   3.632  16.034  0.2673 -0.1435  1.1272
19947LIG     C481264   3.513   3.555  16.171  0.4613  0.8230  0.1345
19947LIG     C581265   3.226   3.540  16.106  0.7141 -0.1347 -0.2058
19947LIG     C681266   3.419   3.456  16.241  0.0615  0.6121 -0.1711
19947LIG     C781267   3.273   3.499  16.242 -0.3916  0.6983  0.1851
19947LIG     C881268   3.623   3.602  15.740 -0.8651 -0.0555 -0.6439
19947LIG     C981269   3.675   3.299  15.736 -0.3516  0.6343 -0.3456
19947LIG    C1081270   3.791   3.397  15.699  0.6161 -0.0540 -0.2848
19947LIG    C1181271   3.191   3.482  16.347  0.0688 -0.1612 -0.5207
19947LIG    C1281272   3.512   3.367  15.559 -0.9989 -0.4222 -0.0076
19947LIG    C1381273   3.246   3.445  16.485 -0.0188 -0.4289 -0.0761
19947LIG    C1481274   3.047   3.497  16.336  0.8046 -0.6978  0.4165
19947LIG    C1581275   3.309   3.320  16.502  0.9706 -0.1952 -0.1326
19947LIG    C1681276   3.247   3.536  16.591 -0.1406 -0.3786  0.7994
19947LIG    C1781277   2.989   3.628  16.321 -0.6165  0.3631  0.5240
19947LIG    C1881278   2.967   3.392  16.364 -0.1824 -0.5161  0.9177
19947LIG    C1981279   3.367   3.285  16.635  0.4159  0.4869 -1.0137
19947LIG    C2081280   3.280   3.497  16.718  0.0457 -0.1120 -0.2872
19947LIG    C2181281   2.848   3.646  16.331  0.9219  0.0240  0.1790
19947LIG    C2281282   2.826   3.406  16.373  0.5834 -0.5725 -0.0293
19947LIG    C2381283   3.348   3.378  16.737  0.2846  0.2028  0.0502
19947LIG    C2481284   2.766   3.532  16.358  0.3665  0.8369 -0.7742
19947LIG    C2581285   3.426   3.147  16.658 -0.6469 -0.2360 -0.4071
19947LIG     H181286   3.425   3.526  15.755  0.7651 -0.3661 -0.8714
19947LIG     H281287   3.444   3.373  15.968 -2.7938  1.0215  3.1775
19947LIG     H381288   3.609   3.430  15.972 -1.7111 -1.3442 -0.2363
19947LIG     H481289   3.307   3.635  15.926  0.1609  0.8952  1.1768
19947LIG     H581290   3.339   3.739  16.061  1.0476  0.9073 -2.9732
19947LIG     H681291   3.507   3.659  16.210 -1.3754  0.4964  0.7473
19947LIG     H781292   3.620   3.525  16.163  0.3034 -0.3348  2.1843
19947LIG     H881293   3.208   3.450  16.044  0.3579 -0.6193  0.5845
19947LIG     H981294   3.127   3.589  16.117 -0.2885 -2.2896  0.6436
19947LIG    H1081295   3.466   3.443  16.341 -0.6052  0.0574  0.0742
19947LIG    H1181296   3.436   3.357  16.193  1.7854  1.1954 -0.7913
19947LIG    H1281297   3.620   3.622  15.631  2.2285  1.6023 -0.4549
19947LIG    H1381298   3.584   3.695  15.787  3.0255  1.3141  0.0387
19947LIG    H1481299   3.708   3.204  15.690  2.2855  0.1185  2.4970
19947LIG    H1581300   3.677   3.271  15.844 -0.6149  2.2498  0.0901
19947LIG    H1681301   3.884   3.336  15.710 -0.2076 -1.5593 -1.3365
19947LIG    H1781302   3.786   3.405  15.588  3.7474 -1.8774 -0.6147
19947LIG    H1881303   3.531   3.469  15.521  3.7513 -1.3082 -0.2791
19947LIG    H1981304   3.405   3.339  15.555 -0.3999 -2.5732 -1.5009
19947LIG    H2081305   3.563   3.286  15.503  2.2897  2.3966 -1.2868
19947LIG    H2181306   3.307   3.245  16.425  1.7972 -1.8950  1.4632
19947LIG    H2281307   3.208   3.634  16.568  2.6088  0.5813  0.0428
19947LIG    H2381308   3.053   3.714  16.308 -0.3408  0.0112 -0.5219
19947LIG    H2481309   3.018   3.299  16.386  0.2717 -0.7149 -0.8725
19947LIG    H2581310   3.284   3.573  16.793  1.3778  2.8980 -3.2866
19947LIG    H2681311   2.802   3.742  16.317  1.6138  0.3011 -0.2035
19947LIG    H2781312   2.763   3.322  16.395  1.0857 -1.0497 -0.3900
19947LIG    H2881313   3.373   3.358  16.840 -1.6374 -2.5561  0.0260
19947LIG    H2981314   2.663   3.560  16.373  0.7743  2.8017 -1.4674
   6.78697   6.78697  17.23950
